
     Program PWSCF v.7.3.1 starts on 10Feb2025 at 12:37: 6 

     This program is part of the open-source Quantum ESPRESSO suite
     for quantum simulation of materials; please cite
         "P. Giannozzi et al., J. Phys.:Condens. Matter 21 395502 (2009);
         "P. Giannozzi et al., J. Phys.:Condens. Matter 29 465901 (2017);
         "P. Giannozzi et al., J. Chem. Phys. 152 154105 (2020);
          URL http://www.quantum-espresso.org", 
     in publications or presentations arising from this work. More details at
     http://www.quantum-espresso.org/quote

     Parallel version (MPI), running on     6 processors

     MPI processes distributed on     1 nodes
     5657 MiB available memory on the printing compute node when the environment starts

     Reading input from vc_relax.in

     Current dimensions of program PWSCF are:
     Max number of different atomic species (ntypx) = 10
     Max number of k-points (npk) =  40000
     Max angular momentum in pseudopotentials (lmaxx) =  4
     file Al.pbe-n-kjpaw_psl.1.0.0.UPF: wavefunction(s)  3S 3P renormalized
     file Fe.pbe-spn-kjpaw_psl.1.0.0.UPF: wavefunction(s)  3P 3D renormalized
     file H.pbe-kjpaw_psl.1.0.0.UPF: wavefunction(s)  1S renormalized
     file K.pbe-spn-kjpaw_psl.1.0.0.UPF: wavefunction(s)  3S renormalized
     file Mg.pbe-spnl-kjpaw_psl.1.0.0.UPF: wavefunction(s)  2P renormalized
     file O.pbe-n-kjpaw_psl.1.0.0.UPF: wavefunction(s)  2S 2P renormalized
     file Si.pbe-n-kjpaw_psl.1.0.0.UPF: wavefunction(s)  3S 3P renormalized

     R & G space division:  proc/nbgrp/npool/nimage =       6
     Subspace diagonalization in iterative solution of the eigenvalue problem:
     one sub-group per band group will be used
     custom distributed-memory algorithm (size of sub-group:  2*  2 procs)


     Parallelization info
     --------------------
     sticks:   dense  smooth     PW     G-vecs:    dense   smooth      PW
     Min        1123     560    150               101043    35718    5067
     Max        1124     561    151               101044    35720    5072
     Sum        6741    3363    905               606263   214317   30425

     Using Slab Decomposition



     bravais-lattice index     =          -12
     lattice parameter (alat)  =      10.0675  a.u.
     unit-cell volume          =    3414.2439 (a.u.)^3
     number of atoms/cell      =           44
     number of atomic types    =            7
     number of electrons       =       262.00
     number of Kohn-Sham states=          157
     kinetic-energy cutoff     =      60.0000  Ry
     charge density cutoff     =     480.0000  Ry
     scf convergence threshold =      1.0E-06
     mixing beta               =       0.7000
     number of iterations used =            8  plain     mixing
     energy convergence thresh.=      1.0E-06
     force convergence thresh. =      1.0E-03
     press convergence thresh. =      5.0E-01
     Exchange-correlation= SLA  PW   PBX  PBC
                           (   1   4   3   4   0   0   0)
     nstep                     =           50


     celldm(1)=  10.067544  celldm(2)=   1.739602  celldm(3)=   1.954678
     celldm(4)=   0.000000  celldm(5)=  -0.178119  celldm(6)=   0.000000

     crystal axes: (cart. coord. in units of alat)
               a(1) = (   1.000000   0.000000   0.000000 )  
               a(2) = (   0.000000   1.739602   0.000000 )  
               a(3) = (  -0.348166   0.000000   1.923420 )  

     reciprocal axes: (cart. coord. in units 2 pi/alat)
               b(1) = (  1.000000 -0.000000  0.181014 )  
               b(2) = (  0.000000  0.574844 -0.000000 )  
               b(3) = (  0.000000  0.000000  0.519907 )  


     PseudoPot. # 1 for Al read from file:
     ./../../../pseudos/Al.pbe-n-kjpaw_psl.1.0.0.UPF
     MD5 check sum: 502b6b27b9c6270cab5dd1084b96fa6d
     Pseudo is Projector augmented-wave + core cor, Zval =  3.0
     Generated using &quot;atomic&quot; code by A. Dal Corso  v.6.3
     Shape of augmentation charge: PSQ
     Using radial grid of 1135 points,  6 beta functions with: 
                l(1) =   0
                l(2) =   0
                l(3) =   1
                l(4) =   1
                l(5) =   2
                l(6) =   2
     Q(r) pseudized with 0 coefficients 


     PseudoPot. # 2 for Fe read from file:
     ./../../../pseudos/Fe.pbe-spn-kjpaw_psl.1.0.0.UPF
     MD5 check sum: fc81f059e5c5069939230b1155715ae8
     Pseudo is Projector augmented-wave + core cor, Zval = 16.0
     Generated using &quot;atomic&quot; code by A. Dal Corso  v.6.3
     Shape of augmentation charge: PSQ
     Using radial grid of 1191 points,  6 beta functions with: 
                l(1) =   0
                l(2) =   0
                l(3) =   1
                l(4) =   1
                l(5) =   2
                l(6) =   2
     Q(r) pseudized with 0 coefficients 


     PseudoPot. # 3 for H  read from file:
     ./../../../pseudos/H.pbe-kjpaw_psl.1.0.0.UPF
     MD5 check sum: d81a744832360e4a8af0b0b5b123bc2a
     Pseudo is Projector augmented-wave, Zval =  1.0
     Generated using &quot;atomic&quot; code by A. Dal Corso  v.6.3MaX
     Shape of augmentation charge: PSQ
     Using radial grid of  929 points,  2 beta functions with: 
                l(1) =   0
                l(2) =   0
     Q(r) pseudized with 0 coefficients 


     PseudoPot. # 4 for K  read from file:
     ./../../../pseudos/K.pbe-spn-kjpaw_psl.1.0.0.UPF
     MD5 check sum: 34cc42130a09071ebe376fd42eb21491
     Pseudo is Projector augmented-wave + core cor, Zval =  9.0
     Generated using &quot;atomic&quot; code by A. Dal Corso  v.6.2.2
     Shape of augmentation charge: PSQ
     Using radial grid of 1165 points,  6 beta functions with: 
                l(1) =   0
                l(2) =   0
                l(3) =   1
                l(4) =   1
                l(5) =   2
                l(6) =   2
     Q(r) pseudized with 0 coefficients 


     PseudoPot. # 5 for Mg read from file:
     ./../../../pseudos/Mg.pbe-spnl-kjpaw_psl.1.0.0.UPF
     MD5 check sum: fda14e0d92a6a9a5ebed782e5a4b3067
     Pseudo is Projector augmented-wave + core cor, Zval = 10.0
     Generated using &quot;atomic&quot; code by A. Dal Corso  v.6.3
     Shape of augmentation charge: PSQ
     Using radial grid of 1129 points,  4 beta functions with: 
                l(1) =   0
                l(2) =   0
                l(3) =   1
                l(4) =   1
     Q(r) pseudized with 0 coefficients 


     PseudoPot. # 6 for O  read from file:
     ./../../../pseudos/O.pbe-n-kjpaw_psl.1.0.0.UPF
     MD5 check sum: e99d9cef9b487d1ca56f5b95ecd0fd7a
     Pseudo is Projector augmented-wave + core cor, Zval =  6.0
     Generated using &quot;atomic&quot; code by A. Dal Corso  v.6.3
     Shape of augmentation charge: PSQ
     Using radial grid of 1095 points,  4 beta functions with: 
                l(1) =   0
                l(2) =   0
                l(3) =   1
                l(4) =   1
     Q(r) pseudized with 0 coefficients 


     PseudoPot. # 7 for Si read from file:
     ./../../../pseudos/Si.pbe-n-kjpaw_psl.1.0.0.UPF
     MD5 check sum: c39c59da582df4a0d9f10159256ea34e
     Pseudo is Projector augmented-wave + core cor, Zval =  4.0
     Generated using &quot;atomic&quot; code by A. Dal Corso  v.6.3
     Shape of augmentation charge: PSQ
     Using radial grid of 1141 points,  6 beta functions with: 
                l(1) =   0
                l(2) =   0
                l(3) =   1
                l(4) =   1
                l(5) =   2
                l(6) =   2
     Q(r) pseudized with 0 coefficients 


     atomic species   valence    mass     pseudopotential
     Al                3.00    26.98154     Al( 1.00)
     Fe               16.00    55.84500     Fe( 1.00)
     H                 1.00     1.00794     H ( 1.00)
     K                 9.00    39.09830     K ( 1.00)
     Mg               10.00    24.30500     Mg( 1.00)
     O                 6.00    15.99940     O ( 1.00)
     Si                4.00    28.08550     Si( 1.00)

     Starting magnetic structure 
     atomic species   magnetization
     Al              0.000
     Fe              0.300
     H               0.000
     K               0.000
     Mg              0.000
     O               0.000
     Si              0.000

      2 Sym. Ops. (no inversion) found


                                    s                        frac. trans.

      isym =  1     identity                                     

 cryst.   s( 1) = (     1          0          0      )
                  (     0          1          0      )
                  (     0          0          1      )

 cart.    s( 1) = (  1.0000000  0.0000000  0.0000000 )
                  (  0.0000000  1.0000000  0.0000000 )
                  (  0.0000000  0.0000000  1.0000000 )


      isym =  2     180 deg rotation - cart. axis [0,1,0]        

 cryst.   s( 2) = (    -1          0          0      )
                  (     0          1          0      )
                  (     0          0         -1      )

 cart.    s( 2) = ( -1.0000000  0.0000000 -0.0000000 )
                  (  0.0000000  1.0000000  0.0000000 )
                  (  0.0000000  0.0000000 -1.0000000 )


     point group C_2  (2)   
     there are  2 classes
     the character table:

       E     C2   
A      1.00  1.00
B      1.00 -1.00

     the symmetry operations in each class and the name of the first element:

     E        1
          identity                                               
     C2       2
          180 deg rotation - cart. axis [0,1,0]                  

   Cartesian axes

     site n.     atom                  positions (alat units)
         1        K      tau(   1) = (   0.0000000   0.8592778   0.0000000  )
         2        K      tau(   2) = (   0.5000001   0.0049001   0.0000000  )
         3        Mg     tau(   3) = (  -0.1740827   0.0110558   0.9617099  )
         4        Mg     tau(   4) = (  -0.1740827   1.1602560   0.9617099  )
         5        Mg     tau(   5) = (   0.3259175   0.8621897   0.9617099  )
         6        Mg     tau(   6) = (   0.3259175   1.4538600   0.9617099  )
         7        Mg     tau(   7) = (   0.3259175   0.2965176   0.9617099  )
         8        Si     tau(   8) = (   0.0148652   0.2840238   0.4329784  )
         9        Si     tau(   9) = (   0.6369697   0.2840238   1.4904415  )
        10        Si     tau(  10) = (   0.6663216   1.4515822   1.4755159  )
        11        Si     tau(  11) = (  -0.0144867   1.4515822   0.4479039  )
        12        Si     tau(  12) = (   0.4855333   1.1593409   0.4451568  )
        13        Si     tau(  13) = (   0.1663016   1.1593409   1.4782631  )
        14        Al     tau(  14) = (   0.1364887   0.5751234   1.4850082  )
        15        Al     tau(  15) = (   0.5153463   0.5751234   0.4384117  )
        16        O      tau(  16) = (   0.0034704   0.2742015   0.7387771  )
        17        O      tau(  17) = (   0.6483645   0.2742015   1.1846429  )
        18        O      tau(  18) = (   0.6619749   1.4521765   1.1713525  )
        19        O      tau(  19) = (  -0.0101400   1.4521765   0.7520675  )
        20        O      tau(  20) = (   0.4913182   1.1648173   0.7507890  )
        21        O      tau(  21) = (   0.1605167   1.1648173   1.1726310  )
        22        O      tau(  22) = (   0.1497901   0.5796384   1.1569493  )
        23        O      tau(  23) = (   0.5020449   0.5796384   0.7664705  )
        24        O      tau(  24) = (   0.2927726   0.3550978   0.3253415  )
        25        O      tau(  25) = (   0.3590624   0.3550978   1.5980783  )
        26        O      tau(  26) = (  -0.0500909   1.7335777   0.3260823  )
        27        O      tau(  27) = (   0.7019259   1.7335777   1.5973376  )
        28        O      tau(  28) = (   0.4003301   1.3365745   1.5885564  )
        29        O      tau(  29) = (   0.2515048   1.3365745   0.3348635  )
        30        O      tau(  30) = (   0.7502033   1.2842471   0.3330181  )
        31        O      tau(  31) = (  -0.0983683   1.2842471   1.5904018  )
        32        O      tau(  32) = (   0.4534723   0.8824777   0.3228523  )
        33        O      tau(  33) = (   0.1983626   0.8824777   1.6005676  )
        34        O      tau(  34) = (  -0.1571815   0.4784114   1.6063961  )
        35        O      tau(  35) = (   0.8090165   0.4784114   0.3170238  )
        36        O      tau(  36) = (  -0.0000085   0.8900231   0.7562269  )
        37        O      tau(  37) = (   0.6518434   0.8900231   1.1671930  )
        38        O      tau(  38) = (   0.4957192   1.7387851   0.7672944  )
        39        O      tau(  39) = (   0.1561158   1.7387851   1.1561255  )
        40        H      tau(  40) = (   0.0008942   0.8538518   0.5784868  )
        41        H      tau(  41) = (   0.6509408   0.8538518   1.3449331  )
        42        H      tau(  42) = (   0.4894703   0.0257089   0.5878845  )
        43        H      tau(  43) = (   0.1623646   0.0257089   1.3355354  )
        44        Fe     tau(  44) = (  -0.1740827   0.5838503   0.9617099  )

     --------------------------------------------
     DFT-D3 Dispersion Correction (3-body terms):
     --------------------------------------------
       Reference C6 values for interpolation: 

         atom   Coordination number   C6
         H          0.912             6.05
         H          0.000            15.18
         O          0.000            31.01
         O          0.993            25.63
         O          1.989            20.74
         Mg         0.000          1366.75
         Mg         0.963           902.54
         Mg         1.950           351.12
         Al         0.000          1081.08
         Al         0.965           875.51
         Al         1.931           513.50
         Al         2.915           307.19
         Si         0.000           635.71
         Si         0.951           540.53
         Si         1.944           466.25
         Si         2.941           443.01
         Si         3.868           299.55
         K          0.000          9967.00
         K          0.977           676.04
         Fe         0.000           982.67
         Fe         1.648           409.99
         Fe         9.138           219.01

       Values used:

         atom   Coordination number  R0_AB[au]  C6      C8
         K         11.877            4.007    676.04 129074.98
         K         12.270            4.007    676.04 129074.98
         Mg        11.314            3.292    351.12  31436.69
         Mg        11.299            3.292    351.12  31436.69
         Mg        11.204            3.292    351.12  31436.69
         Mg        11.573            3.292    351.12  31436.69
         Mg        11.383            3.292    351.12  31436.69
         Si         6.519            3.583    299.55  21425.58
         Si         6.519            3.583    299.55  21425.58
         Si         6.299            3.583    299.55  21425.58
         Si         6.299            3.583    299.55  21425.58
         Si         6.332            3.583    299.55  21425.58
         Si         6.332            3.583    299.55  21425.58
         Al         7.195            3.789    307.19  29441.29
         Al         7.195            3.789    307.19  29441.29
         O          3.463            2.345     20.74    418.58
         O          3.463            2.345     20.74    418.58
         O          3.908            2.345     20.74    418.58
         O          3.908            2.345     20.74    418.58
         O          3.897            2.345     20.74    418.58
         O          3.897            2.345     20.74    418.58
         O          3.833            2.345     20.74    418.58
         O          3.833            2.345     20.74    418.58
         O          3.114            2.345     20.74    418.58
         O          3.114            2.345     20.74    418.58
         O          3.077            2.345     20.74    418.58
         O          3.077            2.345     20.74    418.58
         O          2.927            2.345     20.74    418.58
         O          2.927            2.345     20.74    418.58
         O          2.924            2.345     20.74    418.58
         O          2.924            2.345     20.74    418.58
         O          3.084            2.345     20.74    418.58
         O          3.084            2.345     20.74    418.58
         O          3.139            2.345     20.74    418.58
         O          3.139            2.345     20.74    418.58
         O          3.632            2.345     20.74    418.58
         O          3.632            2.345     20.74    418.58
         O          3.981            2.345     20.74    418.58
         O          3.981            2.345     20.74    418.58
         H          1.231            2.062      6.08     73.47
         H          1.231            2.062      6.08     73.47
         H          1.237            2.062      6.08     73.45
         H          1.237            2.062      6.08     73.45
         Fe         7.261            3.252    219.01  20487.87

         Molecular C6 ( Ry / a.u.^6 ) =    165309.04


   Crystallographic axes

     site n.     atom                  positions (cryst. coord.)
         1        K      tau(   1) = (  0.0000000  0.4939509  0.0000000  )
         2        K      tau(   2) = (  0.5000001  0.0028168  0.0000000  )
         3        Mg     tau(   3) = (  0.0000002  0.0063553  0.4999999  )
         4        Mg     tau(   4) = (  0.0000002  0.6669664  0.4999999  )
         5        Mg     tau(   5) = (  0.5000003  0.4956248  0.4999999  )
         6        Mg     tau(   6) = (  0.5000003  0.8357430  0.4999999  )
         7        Mg     tau(   7) = (  0.5000003  0.1704514  0.4999999  )
         8        Si     tau(   8) = (  0.0932403  0.1632694  0.2251086  )
         9        Si     tau(   9) = (  0.9067603  0.1632694  0.7748913  )
        10        Si     tau(  10) = (  0.9334105  0.8344337  0.7671314  )
        11        Si     tau(  11) = (  0.0665902  0.8344337  0.2328685  )
        12        Si     tau(  12) = (  0.5661129  0.6664404  0.2314402  )
        13        Si     tau(  13) = (  0.4338877  0.6664404  0.7685596  )
        14        Al     tau(  14) = (  0.4052958  0.3306063  0.7720665  )
        15        Al     tau(  15) = (  0.5947049  0.3306063  0.2279334  )
        16        O      tau(  16) = (  0.1371993  0.1576232  0.3840956  )
        17        O      tau(  17) = (  0.8628013  0.1576232  0.6159044  )
        18        O      tau(  18) = (  0.8740060  0.8347753  0.6089946  )
        19        O      tau(  19) = (  0.1259947  0.8347753  0.3910053  )
        20        O      tau(  20) = (  0.6272214  0.6695885  0.3903406  )
        21        O      tau(  21) = (  0.3727792  0.6695885  0.6096593  )
        22        O      tau(  22) = (  0.3592139  0.3332018  0.6015063  )
        23        O      tau(  23) = (  0.6407867  0.3332018  0.3984935  )
        24        O      tau(  24) = (  0.3516639  0.2041259  0.1691474  )
        25        O      tau(  25) = (  0.6483367  0.2041259  0.8308524  )
        26        O      tau(  26) = (  0.0089345  0.9965371  0.1695325  )
        27        O      tau(  27) = (  0.9910662  0.9965371  0.8304673  )
        28        O      tau(  28) = (  0.6878809  0.7683221  0.8259019  )
        29        O      tau(  29) = (  0.3121198  0.7683221  0.1740980  )
        30        O      tau(  30) = (  0.8104842  0.7382420  0.1731385  )
        31        O      tau(  31) = (  0.1895164  0.7382420  0.8268614  )
        32        O      tau(  32) = (  0.5119130  0.5072872  0.1678532  )
        33        O      tau(  33) = (  0.4880876  0.5072872  0.8321466  )
        34        O      tau(  34) = (  0.1335984  0.2750120  0.8351769  )
        35        O      tau(  35) = (  0.8664022  0.2750120  0.1648230  )
        36        O      tau(  36) = (  0.1368791  0.5116246  0.3931678  )
        37        O      tau(  37) = (  0.8631215  0.5116246  0.6068321  )
        38        O      tau(  38) = (  0.6346101  0.9995306  0.3989219  )
        39        O      tau(  39) = (  0.3653906  0.9995306  0.6010780  )
        40        H      tau(  40) = (  0.1056083  0.4908318  0.3007595  )
        41        H      tau(  41) = (  0.8943924  0.4908318  0.6992404  )
        42        H      tau(  42) = (  0.5958856  0.0147786  0.3056454  )
        43        H      tau(  43) = (  0.4041151  0.0147786  0.6943545  )
        44        Fe     tau(  44) = (  0.0000002  0.3356230  0.4999999  )

     number of k points=    20  Gaussian smearing, width (Ry)=  0.0010
                       cart. coord. in units 2pi/alat
        k(    1) = (   0.0000000   0.0000000   0.0000000), wk =   0.0185185
        k(    2) = (   0.0000000   0.0000000   0.1733024), wk =   0.0370370
        k(    3) = (   0.0000000   0.1916147   0.0000000), wk =   0.0370370
        k(    4) = (   0.0000000   0.1916147   0.1733024), wk =   0.0740741
        k(    5) = (   0.1666667   0.0000000   0.0301690), wk =   0.0370370
        k(    6) = (   0.1666667   0.0000000   0.2034714), wk =   0.0370370
        k(    7) = (   0.1666667   0.0000000  -0.1431334), wk =   0.0370370
        k(    8) = (   0.1666667   0.1916147   0.0301690), wk =   0.0740741
        k(    9) = (   0.1666667   0.1916147   0.2034714), wk =   0.0740741
        k(   10) = (   0.1666667   0.1916147  -0.1431334), wk =   0.0740741
        k(   11) = (   0.3333333   0.0000000   0.0603380), wk =   0.0370370
        k(   12) = (   0.3333333   0.0000000   0.2336404), wk =   0.0370370
        k(   13) = (   0.3333333   0.0000000  -0.1129644), wk =   0.0370370
        k(   14) = (   0.3333333   0.1916147   0.0603380), wk =   0.0740741
        k(   15) = (   0.3333333   0.1916147   0.2336404), wk =   0.0740741
        k(   16) = (   0.3333333   0.1916147  -0.1129644), wk =   0.0740741
        k(   17) = (  -0.5000000   0.0000000  -0.0905069), wk =   0.0185185
        k(   18) = (  -0.5000000   0.0000000   0.0827955), wk =   0.0370370
        k(   19) = (  -0.5000000   0.1916147  -0.0905069), wk =   0.0370370
        k(   20) = (  -0.5000000   0.1916147   0.0827955), wk =   0.0740741

                       cryst. coord.
        k(    1) = (   0.0000000   0.0000000   0.0000000), wk =   0.0185185
        k(    2) = (   0.0000000   0.0000000   0.3333333), wk =   0.0370370
        k(    3) = (   0.0000000   0.3333333   0.0000000), wk =   0.0370370
        k(    4) = (   0.0000000   0.3333333   0.3333333), wk =   0.0740741
        k(    5) = (   0.1666667   0.0000000   0.0000000), wk =   0.0370370
        k(    6) = (   0.1666667   0.0000000   0.3333333), wk =   0.0370370
        k(    7) = (   0.1666667   0.0000000  -0.3333333), wk =   0.0370370
        k(    8) = (   0.1666667   0.3333333   0.0000000), wk =   0.0740741
        k(    9) = (   0.1666667   0.3333333   0.3333333), wk =   0.0740741
        k(   10) = (   0.1666667   0.3333333  -0.3333333), wk =   0.0740741
        k(   11) = (   0.3333333   0.0000000   0.0000000), wk =   0.0370370
        k(   12) = (   0.3333333   0.0000000   0.3333333), wk =   0.0370370
        k(   13) = (   0.3333333   0.0000000  -0.3333333), wk =   0.0370370
        k(   14) = (   0.3333333   0.3333333   0.0000000), wk =   0.0740741
        k(   15) = (   0.3333333   0.3333333   0.3333333), wk =   0.0740741
        k(   16) = (   0.3333333   0.3333333  -0.3333333), wk =   0.0740741
        k(   17) = (  -0.5000000   0.0000000  -0.0000000), wk =   0.0185185
        k(   18) = (  -0.5000000   0.0000000   0.3333333), wk =   0.0370370
        k(   19) = (  -0.5000000   0.3333333  -0.0000000), wk =   0.0370370
        k(   20) = (  -0.5000000   0.3333333   0.3333333), wk =   0.0740741

     Dense  grid:   606263 G-vectors     FFT dimensions: (  72, 125, 144)

     Smooth grid:   214317 G-vectors     FFT dimensions: (  50,  90, 100)

     Dynamical RAM for                 wfc:      10.70 MB

     Dynamical RAM for     wfc (w. buffer):     438.65 MB

     Dynamical RAM for           str. fact:      10.79 MB

     Dynamical RAM for           local pot:       0.00 MB

     Dynamical RAM for          nlocal pot:      29.85 MB

     Dynamical RAM for                qrad:      24.61 MB

     Dynamical RAM for          rho,v,vnew:      19.14 MB

     Dynamical RAM for               rhoin:       6.38 MB

     Dynamical RAM for            rho*nmix:      49.34 MB

     Dynamical RAM for           G-vectors:       6.05 MB

     Dynamical RAM for          h,s,v(r/c):       1.13 MB

     Dynamical RAM for          <psi|beta>:       1.05 MB

     Dynamical RAM for                 psi:      21.40 MB

     Dynamical RAM for                hpsi:      21.40 MB

     Dynamical RAM for                spsi:      21.40 MB

     Dynamical RAM for      wfcinit/wfcrot:      21.96 MB

     Dynamical RAM for           addusdens:     325.32 MB

     Dynamical RAM for          addusforce:     396.43 MB

     Dynamical RAM for         addusstress:     312.22 MB

     Estimated static dynamical RAM per process >     557.70 MB

     Estimated max dynamical RAM per process >    1003.47 MB

     Estimated total dynamical RAM >       5.88 GB

     Atomic positions and unit cell read from directory:
     ./temp/phl-fe1-fe2.save/
     Atomic positions from file used, from input discarded


     Check: negative core charge=   -0.000004
     Generating pointlists ...
     new r_m :   0.1354 (alat units)  1.3628 (a.u.) for type    1
     new r_m :   0.1561 (alat units)  1.5713 (a.u.) for type    2
     new r_m :   0.0748 (alat units)  0.7532 (a.u.) for type    3
     new r_m :   0.2153 (alat units)  2.1673 (a.u.) for type    4
     new r_m :   0.1573 (alat units)  1.5837 (a.u.) for type    5
     new r_m :   0.0748 (alat units)  0.7532 (a.u.) for type    6
     new r_m :   0.1255 (alat units)  1.2633 (a.u.) for type    7

     The initial density is read from file :
     ./temp/phl-fe1-fe2.save/charge-density


     starting charge     262.0263, renormalised to     262.0000

     negative rho (up, down):  0.000E+00 3.809E-04
     Cannot read wfcs: file not found
     Starting wfcs are  183 randomized atomic wfcs
     Checking if some PAW data can be deallocated... 
       PAW data deallocated on    5 nodes for type:  1
       PAW data deallocated on    5 nodes for type:  2
       PAW data deallocated on    5 nodes for type:  3
       PAW data deallocated on    5 nodes for type:  4
       PAW data deallocated on    5 nodes for type:  5
       PAW data deallocated on    1 nodes for type:  6
       PAW data deallocated on    4 nodes for type:  7

     total cpu time spent up to now is      341.7 secs

     Self-consistent Calculation

     iteration #  1     ecut=    60.00 Ry     beta= 0.70
     Davidson diagonalization with overlap

---- Real-time Memory Report at c_bands before calling an iterative solver
           619 MiB given to the printing process from OS
             0 MiB allocation reported by mallinfo(arena+hblkhd)
          2020 MiB available memory on the node where the printing process lives
------------------
     c_bands:  1 eigenvalues not converged
     c_bands:  1 eigenvalues not converged
     c_bands:  1 eigenvalues not converged
     c_bands:  2 eigenvalues not converged
     c_bands:  1 eigenvalues not converged
     c_bands:  2 eigenvalues not converged
     c_bands:  3 eigenvalues not converged
     c_bands:  1 eigenvalues not converged
     c_bands:  2 eigenvalues not converged
     c_bands:  1 eigenvalues not converged
     c_bands:  1 eigenvalues not converged
     c_bands:  1 eigenvalues not converged
     c_bands:  1 eigenvalues not converged
     c_bands:  2 eigenvalues not converged
     c_bands:  2 eigenvalues not converged
     c_bands:  1 eigenvalues not converged
     c_bands:  2 eigenvalues not converged
     c_bands:  2 eigenvalues not converged
     c_bands:  1 eigenvalues not converged
     c_bands:  2 eigenvalues not converged
     c_bands:  1 eigenvalues not converged
     c_bands:  2 eigenvalues not converged
     c_bands:  1 eigenvalues not converged
     c_bands:  2 eigenvalues not converged
     c_bands:  3 eigenvalues not converged
     c_bands:  1 eigenvalues not converged
     c_bands:  2 eigenvalues not converged
     c_bands:  1 eigenvalues not converged
     c_bands:  1 eigenvalues not converged
     c_bands:  2 eigenvalues not converged
     c_bands:  1 eigenvalues not converged
     c_bands:  4 eigenvalues not converged
     c_bands:  2 eigenvalues not converged
     c_bands:  2 eigenvalues not converged
     c_bands:  2 eigenvalues not converged
     c_bands:  2 eigenvalues not converged
     ethr =  1.00E-05,  avg # of iterations = 39.9

     negative rho (up, down):  0.000E+00 3.801E-04

     total cpu time spent up to now is     9212.4 secs

     total energy              =   -2631.26315153 Ry
     estimated scf accuracy    <       0.00355566 Ry

     total magnetization       =     4.00 Bohr mag/cell
     absolute magnetization    =     4.04 Bohr mag/cell

     iteration #  2     ecut=    60.00 Ry     beta= 0.70
     Davidson diagonalization with overlap

---- Real-time Memory Report at c_bands before calling an iterative solver
           925 MiB given to the printing process from OS
             0 MiB allocation reported by mallinfo(arena+hblkhd)
          1776 MiB available memory on the node where the printing process lives
------------------
     c_bands:  1 eigenvalues not converged
     c_bands:  1 eigenvalues not converged
     c_bands:  1 eigenvalues not converged
     c_bands:  1 eigenvalues not converged
     c_bands:  1 eigenvalues not converged
     c_bands:  1 eigenvalues not converged
     c_bands:  1 eigenvalues not converged
     c_bands:  1 eigenvalues not converged
     c_bands:  1 eigenvalues not converged
     c_bands:  1 eigenvalues not converged
     c_bands:  1 eigenvalues not converged
     c_bands:  1 eigenvalues not converged
     c_bands:  1 eigenvalues not converged
     c_bands:  1 eigenvalues not converged
     ethr =  1.36E-06,  avg # of iterations = 16.8

     negative rho (up, down):  0.000E+00 3.815E-04

     total cpu time spent up to now is    10575.6 secs

     total energy              =   -2631.26416985 Ry
     estimated scf accuracy    <       0.00054734 Ry

     total magnetization       =     4.00 Bohr mag/cell
     absolute magnetization    =     4.04 Bohr mag/cell

     iteration #  3     ecut=    60.00 Ry     beta= 0.70
     Davidson diagonalization with overlap

---- Real-time Memory Report at c_bands before calling an iterative solver
           928 MiB given to the printing process from OS
             0 MiB allocation reported by mallinfo(arena+hblkhd)
          1757 MiB available memory on the node where the printing process lives
------------------
     c_bands:  1 eigenvalues not converged
     ethr =  2.09E-07,  avg # of iterations =  6.2

     negative rho (up, down):  0.000E+00 3.804E-04

     total cpu time spent up to now is    11869.6 secs

     total energy              =   -2631.26444043 Ry
     estimated scf accuracy    <       0.00013673 Ry

     total magnetization       =     4.00 Bohr mag/cell
     absolute magnetization    =     4.04 Bohr mag/cell

     iteration #  4     ecut=    60.00 Ry     beta= 0.70
     Davidson diagonalization with overlap

---- Real-time Memory Report at c_bands before calling an iterative solver
           930 MiB given to the printing process from OS
             0 MiB allocation reported by mallinfo(arena+hblkhd)
          1732 MiB available memory on the node where the printing process lives
------------------
     ethr =  5.22E-08,  avg # of iterations =  5.3

     negative rho (up, down):  0.000E+00 3.810E-04

     total cpu time spent up to now is    13058.7 secs

     total energy              =   -2631.26449665 Ry
     estimated scf accuracy    <       0.00002747 Ry

     total magnetization       =     4.00 Bohr mag/cell
     absolute magnetization    =     4.05 Bohr mag/cell

     iteration #  5     ecut=    60.00 Ry     beta= 0.70
     Davidson diagonalization with overlap

---- Real-time Memory Report at c_bands before calling an iterative solver
           932 MiB given to the printing process from OS
             0 MiB allocation reported by mallinfo(arena+hblkhd)
          1755 MiB available memory on the node where the printing process lives
------------------
     ethr =  1.05E-08,  avg # of iterations =  6.0

     negative rho (up, down):  0.000E+00 3.810E-04

     total cpu time spent up to now is    14584.7 secs

     total energy              =   -2631.26451349 Ry
     estimated scf accuracy    <       0.00000462 Ry

     total magnetization       =     4.00 Bohr mag/cell
     absolute magnetization    =     4.04 Bohr mag/cell

     iteration #  6     ecut=    60.00 Ry     beta= 0.70
     Davidson diagonalization with overlap

---- Real-time Memory Report at c_bands before calling an iterative solver
           935 MiB given to the printing process from OS
             0 MiB allocation reported by mallinfo(arena+hblkhd)
          1742 MiB available memory on the node where the printing process lives
------------------
     ethr =  1.76E-09,  avg # of iterations =  6.5

     negative rho (up, down):  0.000E+00 3.811E-04

     Magnetic moment per site  (integrated on atomic sphere of radius R)
     atom   1 (R=0.215)  charge=  7.5449  magn=  0.0001
     atom   2 (R=0.215)  charge=  7.5489  magn=  0.0001
     atom   3 (R=0.157)  charge=  8.1106  magn= -0.0002
     atom   4 (R=0.157)  charge=  8.1073  magn= -0.0000
     atom   5 (R=0.157)  charge=  8.1098  magn=  0.0007
     atom   6 (R=0.157)  charge=  8.1060  magn= -0.0000
     atom   7 (R=0.157)  charge=  8.1129  magn=  0.0006
     atom   8 (R=0.125)  charge=  0.5511  magn=  0.0008
     atom   9 (R=0.125)  charge=  0.5511  magn=  0.0008
     atom  10 (R=0.125)  charge=  0.5436  magn= -0.0000
     atom  11 (R=0.125)  charge=  0.5436  magn= -0.0000
     atom  12 (R=0.125)  charge=  0.5432  magn=  0.0000
     atom  13 (R=0.125)  charge=  0.5432  magn=  0.0000
     atom  14 (R=0.135)  charge=  0.3429  magn=  0.0014
     atom  15 (R=0.135)  charge=  0.3429  magn=  0.0014
     atom  16 (R=0.075)  charge=  1.9380  magn=  0.0156
     atom  17 (R=0.075)  charge=  1.9380  magn=  0.0156
     atom  18 (R=0.075)  charge=  1.9411  magn=  0.0004
     atom  19 (R=0.075)  charge=  1.9411  magn=  0.0004
     atom  20 (R=0.075)  charge=  1.9404  magn=  0.0004
     atom  21 (R=0.075)  charge=  1.9404  magn=  0.0004
     atom  22 (R=0.075)  charge=  1.9325  magn=  0.0276
     atom  23 (R=0.075)  charge=  1.9325  magn=  0.0276
     atom  24 (R=0.075)  charge=  1.9412  magn=  0.0009
     atom  25 (R=0.075)  charge=  1.9412  magn=  0.0009
     atom  26 (R=0.075)  charge=  1.9449  magn=  0.0008
     atom  27 (R=0.075)  charge=  1.9449  magn=  0.0008
     atom  28 (R=0.075)  charge=  1.9466  magn=  0.0001
     atom  29 (R=0.075)  charge=  1.9466  magn=  0.0001
     atom  30 (R=0.075)  charge=  1.9468  magn=  0.0001
     atom  31 (R=0.075)  charge=  1.9468  magn=  0.0001
     atom  32 (R=0.075)  charge=  1.9397  magn=  0.0005
     atom  33 (R=0.075)  charge=  1.9397  magn=  0.0005
     atom  34 (R=0.075)  charge=  1.9417  magn= -0.0000
     atom  35 (R=0.075)  charge=  1.9417  magn= -0.0000
     atom  36 (R=0.075)  charge=  1.9383  magn=  0.0210
     atom  37 (R=0.075)  charge=  1.9383  magn=  0.0210
     atom  38 (R=0.075)  charge=  1.9434  magn=  0.0003
     atom  39 (R=0.075)  charge=  1.9434  magn=  0.0003
     atom  40 (R=0.075)  charge=  0.3999  magn=  0.0001
     atom  41 (R=0.075)  charge=  0.3999  magn=  0.0001
     atom  42 (R=0.075)  charge=  0.4004  magn=  0.0000
     atom  43 (R=0.075)  charge=  0.4004  magn=  0.0000
     atom  44 (R=0.156)  charge= 13.2606  magn=  3.2766

     total cpu time spent up to now is    16086.0 secs

     End of self-consistent calculation

 ------ SPIN UP ------------


          k = 0.0000 0.0000 0.0000 ( 26793 PWs)   bands (ev):

   -81.5306 -67.8873 -67.8579 -67.6751 -67.5370 -67.3714 -48.5299 -47.2136
   -47.0165 -34.6558 -34.6354 -34.6307 -34.6157 -34.6147 -34.5930 -34.4400
   -34.4305 -34.4103 -34.2967 -34.2882 -34.2808 -34.1344 -34.1213 -34.1141
   -23.4762 -23.4517 -15.2344 -15.1899 -14.3198 -14.2816 -13.7889 -13.7737
   -13.6231 -13.5113 -13.4432 -13.3153 -13.1189 -13.0741 -13.0504 -13.0401
   -12.9357 -12.8324 -12.7088 -12.6482 -12.5319 -12.5122 -12.4503 -12.3509
   -11.8000 -11.5111  -7.0241  -6.9925  -6.9483  -6.9427  -6.9315  -6.9251
    -4.4921  -4.4512  -2.6250  -2.5426  -2.0175  -1.5504  -1.3928  -1.3588
    -1.2709  -1.2144  -0.8573  -0.8421  -0.7769  -0.5928  -0.5556  -0.3708
    -0.1910  -0.1186  -0.0125   0.2061   0.3303   0.3438   0.4905   0.6925
     0.6927   0.8532   0.8817   0.9995   1.1949   1.2447   1.2469   1.4203
     1.4628   1.6135   1.6320   1.8348   1.8885   1.8959   1.9143   2.0142
     2.0149   2.2550   2.2749   2.3866   2.3995   2.4175   2.4787   2.5620
     2.6161   2.6239   2.7751   2.8312   2.8775   2.9367   2.9579   3.0518
     3.1078   3.1561   3.1895   3.2155   3.2950   3.3080   3.3358   3.4361
     3.5165   3.5986   3.6062   3.6691   3.7029   3.8390   4.0367   4.0785
     4.8904   5.1844   6.0233   6.4803   6.7352   8.7220  10.2139  10.8564
    11.1616  11.5367  11.6697  11.8099  12.1044  12.2491  12.5995  12.6241
    12.7252  12.9577  13.0012  13.1474  13.2197  13.2545  13.3879  13.5133
    13.5316  13.5433  13.6469  13.7071  14.0093

     occupation numbers 
     1.0000   1.0000   1.0000   1.0000   1.0000   1.0000   1.0000   1.0000
     1.0000   1.0000   1.0000   1.0000   1.0000   1.0000   1.0000   1.0000
     1.0000   1.0000   1.0000   1.0000   1.0000   1.0000   1.0000   1.0000
     1.0000   1.0000   1.0000   1.0000   1.0000   1.0000   1.0000   1.0000
     1.0000   1.0000   1.0000   1.0000   1.0000   1.0000   1.0000   1.0000
     1.0000   1.0000   1.0000   1.0000   1.0000   1.0000   1.0000   1.0000
     1.0000   1.0000   1.0000   1.0000   1.0000   1.0000   1.0000   1.0000
     1.0000   1.0000   1.0000   1.0000   1.0000   1.0000   1.0000   1.0000
     1.0000   1.0000   1.0000   1.0000   1.0000   1.0000   1.0000   1.0000
     1.0000   1.0000   1.0000   1.0000   1.0000   1.0000   1.0000   1.0000
     1.0000   1.0000   1.0000   1.0000   1.0000   1.0000   1.0000   1.0000
     1.0000   1.0000   1.0000   1.0000   1.0000   1.0000   1.0000   1.0000
     1.0000   1.0000   1.0000   1.0000   1.0000   1.0000   1.0000   1.0000
     1.0000   1.0000   1.0000   1.0000   1.0000   1.0000   1.0000   1.0000
     1.0000   1.0000   1.0000   1.0000   1.0000   1.0000   1.0000   1.0000
     1.0000   1.0000   1.0000   1.0000   1.0000   1.0000   1.0000   1.0000
     1.0000   1.0000   1.0000   1.0000   1.0000   0.0000   0.0000   0.0000
     0.0000   0.0000   0.0000   0.0000   0.0000   0.0000   0.0000   0.0000
     0.0000   0.0000   0.0000   0.0000   0.0000   0.0000   0.0000   0.0000
     0.0000   0.0000   0.0000   0.0000   0.0000

          k = 0.0000 0.0000 0.1733 ( 26794 PWs)   bands (ev):

   -81.5306 -67.8873 -67.8579 -67.6751 -67.5370 -67.3714 -48.5299 -47.2136
   -47.0165 -34.6558 -34.6354 -34.6307 -34.6157 -34.6147 -34.5930 -34.4400
   -34.4305 -34.4103 -34.2966 -34.2882 -34.2808 -34.1344 -34.1213 -34.1141
   -23.4762 -23.4517 -15.2246 -15.2003 -14.3105 -14.2914 -13.7892 -13.7734
   -13.6151 -13.5252 -13.4381 -13.3121 -13.1195 -13.0760 -13.0518 -13.0392
   -12.9315 -12.8351 -12.7043 -12.6528 -12.5340 -12.5098 -12.4458 -12.3557
   -11.7997 -11.5117  -7.0241  -6.9925  -6.9482  -6.9427  -6.9315  -6.9250
    -4.4888  -4.4548  -2.6059  -2.5646  -1.9936  -1.5411  -1.3882  -1.3624
    -1.2681  -1.2270  -0.8648  -0.8217  -0.7918  -0.6035  -0.5351  -0.4566
    -0.1601  -0.1044  -0.0552   0.1607   0.3261   0.3351   0.5142   0.7030
     0.7321   0.8575   0.9177   0.9589   1.1794   1.2609   1.2908   1.3641
     1.5504   1.6287   1.7150   1.8750   1.8903   1.9041   1.9245   1.9840
     2.0588   2.1812   2.2729   2.3061   2.3847   2.4129   2.4545   2.5317
     2.5779   2.6457   2.7939   2.8396   2.8796   2.9222   2.9549   3.0702
     3.1045   3.1504   3.1692   3.2137   3.2763   3.3239   3.3842   3.4396
     3.5192   3.5551   3.5897   3.6704   3.6921   3.8811   4.0378   4.0746
     4.8915   5.1804   6.0230   6.4788   6.7371   9.0234   9.7321  10.9569
    11.2064  11.3688  11.6924  11.7417  12.3232  12.4369  12.6171  12.6690
    12.8340  12.8911  12.9779  13.0211  13.1165  13.2937  13.4346  13.4721
    13.5205  13.5490  13.7393  13.7556  13.7914

     occupation numbers 
     1.0000   1.0000   1.0000   1.0000   1.0000   1.0000   1.0000   1.0000
     1.0000   1.0000   1.0000   1.0000   1.0000   1.0000   1.0000   1.0000
     1.0000   1.0000   1.0000   1.0000   1.0000   1.0000   1.0000   1.0000
     1.0000   1.0000   1.0000   1.0000   1.0000   1.0000   1.0000   1.0000
     1.0000   1.0000   1.0000   1.0000   1.0000   1.0000   1.0000   1.0000
     1.0000   1.0000   1.0000   1.0000   1.0000   1.0000   1.0000   1.0000
     1.0000   1.0000   1.0000   1.0000   1.0000   1.0000   1.0000   1.0000
     1.0000   1.0000   1.0000   1.0000   1.0000   1.0000   1.0000   1.0000
     1.0000   1.0000   1.0000   1.0000   1.0000   1.0000   1.0000   1.0000
     1.0000   1.0000   1.0000   1.0000   1.0000   1.0000   1.0000   1.0000
     1.0000   1.0000   1.0000   1.0000   1.0000   1.0000   1.0000   1.0000
     1.0000   1.0000   1.0000   1.0000   1.0000   1.0000   1.0000   1.0000
     1.0000   1.0000   1.0000   1.0000   1.0000   1.0000   1.0000   1.0000
     1.0000   1.0000   1.0000   1.0000   1.0000   1.0000   1.0000   1.0000
     1.0000   1.0000   1.0000   1.0000   1.0000   1.0000   1.0000   1.0000
     1.0000   1.0000   1.0000   1.0000   1.0000   1.0000   1.0000   1.0000
     1.0000   1.0000   1.0000   1.0000   1.0000   0.0000   0.0000   0.0000
     0.0000   0.0000   0.0000   0.0000   0.0000   0.0000   0.0000   0.0000
     0.0000   0.0000   0.0000   0.0000   0.0000   0.0000   0.0000   0.0000
     0.0000   0.0000   0.0000   0.0000   0.0000

          k = 0.0000 0.1917 0.0000 ( 26831 PWs)   bands (ev):

   -81.5306 -67.8873 -67.8579 -67.6751 -67.5370 -67.3714 -48.5299 -47.2136
   -47.0166 -34.6558 -34.6354 -34.6307 -34.6157 -34.6147 -34.5930 -34.4400
   -34.4305 -34.4103 -34.2967 -34.2882 -34.2808 -34.1344 -34.1213 -34.1141
   -23.4762 -23.4518 -15.2291 -15.1849 -14.3558 -14.3131 -13.7889 -13.7738
   -13.5323 -13.4333 -13.4055 -13.3287 -13.1662 -13.1167 -13.0963 -13.0638
   -12.9460 -12.8287 -12.6975 -12.6439 -12.5316 -12.5120 -12.4448 -12.3469
   -11.7980 -11.5104  -7.0227  -6.9941  -6.9472  -6.9418  -6.9326  -6.9258
    -4.4512  -4.4089  -2.7791  -2.6938  -1.9601  -1.6210  -1.2647  -1.2614
    -1.1931  -1.1511  -0.9115  -0.8709  -0.8278  -0.5408  -0.5098  -0.3498
    -0.2903  -0.0605  -0.0057   0.2027   0.2815   0.2864   0.5020   0.6458
     0.7277   0.7840   0.8773   0.9616   1.1204   1.3056   1.3317   1.4513
     1.4803   1.6373   1.7294   1.8395   1.8484   1.9216   1.9892   2.0977
     2.1044   2.2209   2.2259   2.3062   2.3993   2.4092   2.5213   2.5606
     2.6046   2.6817   2.7595   2.7839   2.8329   2.8895   2.9937   3.0312
     3.1136   3.1580   3.2008   3.2434   3.2885   3.3293   3.3695   3.4279
     3.5018   3.5705   3.5925   3.6568   3.6771   3.8624   3.8688   4.0172
     4.8918   5.1757   6.0316   6.4507   6.7484   9.1181  10.0382  10.4597
    11.0361  11.4450  11.8350  12.1360  12.2394  12.3066  12.5134  12.6910
    12.6975  12.8999  13.0473  13.0523  13.1473  13.2937  13.3548  13.4081
    13.4891  13.5195  13.7723  13.9009  13.9407

     occupation numbers 
     1.0000   1.0000   1.0000   1.0000   1.0000   1.0000   1.0000   1.0000
     1.0000   1.0000   1.0000   1.0000   1.0000   1.0000   1.0000   1.0000
     1.0000   1.0000   1.0000   1.0000   1.0000   1.0000   1.0000   1.0000
     1.0000   1.0000   1.0000   1.0000   1.0000   1.0000   1.0000   1.0000
     1.0000   1.0000   1.0000   1.0000   1.0000   1.0000   1.0000   1.0000
     1.0000   1.0000   1.0000   1.0000   1.0000   1.0000   1.0000   1.0000
     1.0000   1.0000   1.0000   1.0000   1.0000   1.0000   1.0000   1.0000
     1.0000   1.0000   1.0000   1.0000   1.0000   1.0000   1.0000   1.0000
     1.0000   1.0000   1.0000   1.0000   1.0000   1.0000   1.0000   1.0000
     1.0000   1.0000   1.0000   1.0000   1.0000   1.0000   1.0000   1.0000
     1.0000   1.0000   1.0000   1.0000   1.0000   1.0000   1.0000   1.0000
     1.0000   1.0000   1.0000   1.0000   1.0000   1.0000   1.0000   1.0000
     1.0000   1.0000   1.0000   1.0000   1.0000   1.0000   1.0000   1.0000
     1.0000   1.0000   1.0000   1.0000   1.0000   1.0000   1.0000   1.0000
     1.0000   1.0000   1.0000   1.0000   1.0000   1.0000   1.0000   1.0000
     1.0000   1.0000   1.0000   1.0000   1.0000   1.0000   1.0000   1.0000
     1.0000   1.0000   1.0000   1.0000   1.0000   0.0000   0.0000   0.0000
     0.0000   0.0000   0.0000   0.0000   0.0000   0.0000   0.0000   0.0000
     0.0000   0.0000   0.0000   0.0000   0.0000   0.0000   0.0000   0.0000
     0.0000   0.0000   0.0000   0.0000   0.0000

          k = 0.0000 0.1917 0.1733 ( 26834 PWs)   bands (ev):

   -81.5306 -67.8873 -67.8579 -67.6751 -67.5370 -67.3714 -48.5299 -47.2136
   -47.0166 -34.6558 -34.6354 -34.6307 -34.6157 -34.6147 -34.5930 -34.4400
   -34.4305 -34.4103 -34.2967 -34.2882 -34.2808 -34.1344 -34.1213 -34.1141
   -23.4762 -23.4518 -15.2191 -15.1954 -14.3461 -14.3235 -13.7893 -13.7734
   -13.5269 -13.4298 -13.4180 -13.3211 -13.1743 -13.1075 -13.0983 -13.0650
   -12.9440 -12.8315 -12.6931 -12.6484 -12.5338 -12.5096 -12.4400 -12.3516
   -11.7978 -11.5110  -7.0227  -6.9941  -6.9472  -6.9418  -6.9326  -6.9257
    -4.4453  -4.4150  -2.7590  -2.7157  -1.9393  -1.6128  -1.2643  -1.2595
    -1.1867  -1.1614  -0.9074  -0.8754  -0.8337  -0.5727  -0.4808  -0.4233
    -0.2503  -0.0684  -0.0541   0.1752   0.2737   0.2882   0.5341   0.6401
     0.7639   0.7943   0.8309   1.0067   1.1733   1.2866   1.3676   1.4397
     1.5749   1.6183   1.7698   1.8172   1.8796   1.9003   2.0031   2.0854
     2.1261   2.1854   2.2377   2.2912   2.3520   2.3956   2.5022   2.5410
     2.6025   2.6720   2.7385   2.7997   2.8177   2.8975   2.9451   3.0445
     3.0876   3.1782   3.2089   3.2532   3.3062   3.3216   3.3651   3.4411
     3.4852   3.5558   3.5906   3.6603   3.6672   3.8740   3.9036   4.0194
     4.8930   5.1709   6.0314   6.4469   6.7498   9.3822  10.0248  10.2236
    10.7251  11.4362  11.8339  12.1760  12.3601  12.5429  12.6384  12.7117
    12.8354  12.9187  13.0176  13.0746  13.1602  13.2153  13.2995  13.4212
    13.4532  13.5791  13.7190  13.8188  13.9134

     occupation numbers 
     1.0000   1.0000   1.0000   1.0000   1.0000   1.0000   1.0000   1.0000
     1.0000   1.0000   1.0000   1.0000   1.0000   1.0000   1.0000   1.0000
     1.0000   1.0000   1.0000   1.0000   1.0000   1.0000   1.0000   1.0000
     1.0000   1.0000   1.0000   1.0000   1.0000   1.0000   1.0000   1.0000
     1.0000   1.0000   1.0000   1.0000   1.0000   1.0000   1.0000   1.0000
     1.0000   1.0000   1.0000   1.0000   1.0000   1.0000   1.0000   1.0000
     1.0000   1.0000   1.0000   1.0000   1.0000   1.0000   1.0000   1.0000
     1.0000   1.0000   1.0000   1.0000   1.0000   1.0000   1.0000   1.0000
     1.0000   1.0000   1.0000   1.0000   1.0000   1.0000   1.0000   1.0000
     1.0000   1.0000   1.0000   1.0000   1.0000   1.0000   1.0000   1.0000
     1.0000   1.0000   1.0000   1.0000   1.0000   1.0000   1.0000   1.0000
     1.0000   1.0000   1.0000   1.0000   1.0000   1.0000   1.0000   1.0000
     1.0000   1.0000   1.0000   1.0000   1.0000   1.0000   1.0000   1.0000
     1.0000   1.0000   1.0000   1.0000   1.0000   1.0000   1.0000   1.0000
     1.0000   1.0000   1.0000   1.0000   1.0000   1.0000   1.0000   1.0000
     1.0000   1.0000   1.0000   1.0000   1.0000   1.0000   1.0000   1.0000
     1.0000   1.0000   1.0000   1.0000   1.0000   0.0000   0.0000   0.0000
     0.0000   0.0000   0.0000   0.0000   0.0000   0.0000   0.0000   0.0000
     0.0000   0.0000   0.0000   0.0000   0.0000   0.0000   0.0000   0.0000
     0.0000   0.0000   0.0000   0.0000   0.0000

          k = 0.1667 0.0000 0.0310 ( 26789 PWs)   bands (ev):

   -81.5306 -67.8873 -67.8579 -67.6751 -67.5370 -67.3714 -48.5299 -47.2136
   -47.0165 -34.6554 -34.6363 -34.6299 -34.6165 -34.6139 -34.5930 -34.4400
   -34.4305 -34.4103 -34.2967 -34.2882 -34.2808 -34.1344 -34.1213 -34.1140
   -23.4761 -23.4516 -15.1765 -15.1332 -14.3356 -14.3011 -13.9100 -13.8866
   -13.5509 -13.4359 -13.3968 -13.2988 -13.1335 -13.0842 -13.0463 -13.0427
   -12.9290 -12.8392 -12.7255 -12.6660 -12.5922 -12.5528 -12.4315 -12.3386
   -11.7833 -11.5265  -7.0256  -6.9943  -6.9477  -6.9404  -6.9312  -6.9244
    -4.3340  -4.2882  -2.5861  -2.5020  -2.0225  -1.6587  -1.6046  -1.5224
    -1.0895  -1.0280  -0.9263  -0.8679  -0.7382  -0.5520  -0.5276  -0.3624
    -0.1619  -0.1127  -0.0198   0.1753   0.2919   0.3760   0.4491   0.5685
     0.7446   0.8746   0.8857   0.9819   1.1142   1.2108   1.3100   1.3614
     1.4262   1.6346   1.7213   1.7426   1.8245   1.9005   1.9952   2.0349
     2.1431   2.1992   2.2866   2.3592   2.3832   2.4302   2.4834   2.5774
     2.6235   2.6753   2.7392   2.8166   2.8764   2.9304   2.9946   3.0241
     3.0745   3.1233   3.1638   3.1972   3.2218   3.3197   3.3840   3.4578
     3.4987   3.5602   3.5773   3.6150   3.6512   3.7833   3.8586   4.0508
     4.9518   5.1523   6.0265   6.4803   6.7243   9.0462  10.3881  10.9411
    11.3118  11.5730  11.7064  11.9804  12.1942  12.2740  12.5676  12.6484
    12.7523  12.8449  12.9572  13.1497  13.1620  13.2963  13.3062  13.3579
    13.4780  13.6788  13.7362  13.8257  13.8752

     occupation numbers 
     1.0000   1.0000   1.0000   1.0000   1.0000   1.0000   1.0000   1.0000
     1.0000   1.0000   1.0000   1.0000   1.0000   1.0000   1.0000   1.0000
     1.0000   1.0000   1.0000   1.0000   1.0000   1.0000   1.0000   1.0000
     1.0000   1.0000   1.0000   1.0000   1.0000   1.0000   1.0000   1.0000
     1.0000   1.0000   1.0000   1.0000   1.0000   1.0000   1.0000   1.0000
     1.0000   1.0000   1.0000   1.0000   1.0000   1.0000   1.0000   1.0000
     1.0000   1.0000   1.0000   1.0000   1.0000   1.0000   1.0000   1.0000
     1.0000   1.0000   1.0000   1.0000   1.0000   1.0000   1.0000   1.0000
     1.0000   1.0000   1.0000   1.0000   1.0000   1.0000   1.0000   1.0000
     1.0000   1.0000   1.0000   1.0000   1.0000   1.0000   1.0000   1.0000
     1.0000   1.0000   1.0000   1.0000   1.0000   1.0000   1.0000   1.0000
     1.0000   1.0000   1.0000   1.0000   1.0000   1.0000   1.0000   1.0000
     1.0000   1.0000   1.0000   1.0000   1.0000   1.0000   1.0000   1.0000
     1.0000   1.0000   1.0000   1.0000   1.0000   1.0000   1.0000   1.0000
     1.0000   1.0000   1.0000   1.0000   1.0000   1.0000   1.0000   1.0000
     1.0000   1.0000   1.0000   1.0000   1.0000   1.0000   1.0000   1.0000
     1.0000   1.0000   1.0000   1.0000   1.0000   0.0000   0.0000   0.0000
     0.0000   0.0000   0.0000   0.0000   0.0000   0.0000   0.0000   0.0000
     0.0000   0.0000   0.0000   0.0000   0.0000   0.0000   0.0000   0.0000
     0.0000   0.0000   0.0000   0.0000   0.0000

          k = 0.1667 0.0000 0.2043 ( 26830 PWs)   bands (ev):

   -81.5306 -67.8873 -67.8579 -67.6751 -67.5370 -67.3714 -48.5299 -47.2136
   -47.0166 -34.6555 -34.6363 -34.6299 -34.6165 -34.6139 -34.5931 -34.4400
   -34.4305 -34.4103 -34.2967 -34.2882 -34.2808 -34.1344 -34.1213 -34.1141
   -23.4761 -23.4516 -15.1641 -15.1462 -14.3267 -14.3105 -13.9059 -13.8909
   -13.5434 -13.4502 -13.3915 -13.2944 -13.1331 -13.0846 -13.0579 -13.0341
   -12.9250 -12.8421 -12.7213 -12.6716 -12.5862 -12.5579 -12.4249 -12.3449
   -11.7828 -11.5273  -7.0256  -6.9943  -6.9477  -6.9404  -6.9312  -6.9243
    -4.3355  -4.2869  -2.5689  -2.5226  -1.9966  -1.6883  -1.5812  -1.5115
    -1.0847  -1.0354  -0.9267  -0.8816  -0.7173  -0.5567  -0.5124  -0.4604
    -0.1318  -0.0792  -0.0639   0.1225   0.2852   0.3793   0.4275   0.6197
     0.7650   0.8622   0.9115   0.9790   1.1037   1.2513   1.2779   1.4097
     1.4468   1.6821   1.7385   1.7753   1.8329   1.9639   1.9977   2.0516
     2.0853   2.1938   2.2409   2.3009   2.3456   2.4443   2.4735   2.5328
     2.5903   2.7133   2.7457   2.7862   2.8850   2.9551   2.9702   3.0412
     3.0490   3.1109   3.1506   3.1909   3.2603   3.3474   3.4113   3.4309
     3.4936   3.5317   3.5710   3.6174   3.6311   3.8066   3.8938   4.0481
     4.9521   5.1484   6.0258   6.4794   6.7243   9.4115   9.8342  11.0303
    11.3388  11.4319  11.7571  11.8810  12.1531  12.4931  12.6780  12.7006
    12.8473  12.9680  13.0042  13.0759  13.1611  13.1936  13.3294  13.4081
    13.4691  13.5362  13.6460  13.7235  13.9541

     occupation numbers 
     1.0000   1.0000   1.0000   1.0000   1.0000   1.0000   1.0000   1.0000
     1.0000   1.0000   1.0000   1.0000   1.0000   1.0000   1.0000   1.0000
     1.0000   1.0000   1.0000   1.0000   1.0000   1.0000   1.0000   1.0000
     1.0000   1.0000   1.0000   1.0000   1.0000   1.0000   1.0000   1.0000
     1.0000   1.0000   1.0000   1.0000   1.0000   1.0000   1.0000   1.0000
     1.0000   1.0000   1.0000   1.0000   1.0000   1.0000   1.0000   1.0000
     1.0000   1.0000   1.0000   1.0000   1.0000   1.0000   1.0000   1.0000
     1.0000   1.0000   1.0000   1.0000   1.0000   1.0000   1.0000   1.0000
     1.0000   1.0000   1.0000   1.0000   1.0000   1.0000   1.0000   1.0000
     1.0000   1.0000   1.0000   1.0000   1.0000   1.0000   1.0000   1.0000
     1.0000   1.0000   1.0000   1.0000   1.0000   1.0000   1.0000   1.0000
     1.0000   1.0000   1.0000   1.0000   1.0000   1.0000   1.0000   1.0000
     1.0000   1.0000   1.0000   1.0000   1.0000   1.0000   1.0000   1.0000
     1.0000   1.0000   1.0000   1.0000   1.0000   1.0000   1.0000   1.0000
     1.0000   1.0000   1.0000   1.0000   1.0000   1.0000   1.0000   1.0000
     1.0000   1.0000   1.0000   1.0000   1.0000   1.0000   1.0000   1.0000
     1.0000   1.0000   1.0000   1.0000   1.0000   0.0000   0.0000   0.0000
     0.0000   0.0000   0.0000   0.0000   0.0000   0.0000   0.0000   0.0000
     0.0000   0.0000   0.0000   0.0000   0.0000   0.0000   0.0000   0.0000
     0.0000   0.0000   0.0000   0.0000   0.0000

          k = 0.1667 0.0000-0.1424 ( 26811 PWs)   bands (ev):

   -81.5306 -67.8873 -67.8579 -67.6751 -67.5370 -67.3714 -48.5299 -47.2136
   -47.0165 -34.6555 -34.6363 -34.6299 -34.6165 -34.6139 -34.5930 -34.4400
   -34.4305 -34.4103 -34.2967 -34.2882 -34.2808 -34.1344 -34.1213 -34.1140
   -23.4761 -23.4516 -15.1694 -15.1407 -14.3285 -14.3086 -13.9051 -13.8915
   -13.5462 -13.4424 -13.3971 -13.2950 -13.1336 -13.0836 -13.0552 -13.0357
   -12.9267 -12.8418 -12.7189 -12.6739 -12.5774 -12.5666 -12.4257 -12.3436
   -11.7828 -11.5271  -7.0256  -6.9943  -6.9477  -6.9404  -6.9312  -6.9243
    -4.3191  -4.3036  -2.5677  -2.5225  -2.0070  -1.6837  -1.5825  -1.5159
    -1.0791  -1.0426  -0.9194  -0.8591  -0.7405  -0.5492  -0.5286  -0.4344
    -0.1553  -0.0888  -0.0491   0.1316   0.3031   0.3687   0.4828   0.5965
     0.7364   0.8748   0.8946   0.9827   1.1232   1.2350   1.3047   1.3454
     1.4859   1.6903   1.7011   1.7667   1.8174   1.8883   1.9960   2.0396
     2.0841   2.2204   2.2686   2.3269   2.3515   2.4389   2.4894   2.5373
     2.6173   2.6889   2.7737   2.8164   2.9206   2.9603   2.9833   3.0086
     3.0584   3.1126   3.1457   3.2244   3.2386   3.2837   3.3878   3.4556
     3.4760   3.5235   3.5562   3.6376   3.6491   3.7962   3.8866   4.0544
     4.9493   5.1523   6.0263   6.4792   6.7264   9.2140  10.0911  11.0587
    11.3835  11.4278  11.7828  11.8793  12.1522  12.4850  12.6194  12.6626
    12.8152  12.8463  12.9600  13.0324  13.1754  13.2046  13.2788  13.4127
    13.4927  13.6008  13.7092  13.7897  13.9166

     occupation numbers 
     1.0000   1.0000   1.0000   1.0000   1.0000   1.0000   1.0000   1.0000
     1.0000   1.0000   1.0000   1.0000   1.0000   1.0000   1.0000   1.0000
     1.0000   1.0000   1.0000   1.0000   1.0000   1.0000   1.0000   1.0000
     1.0000   1.0000   1.0000   1.0000   1.0000   1.0000   1.0000   1.0000
     1.0000   1.0000   1.0000   1.0000   1.0000   1.0000   1.0000   1.0000
     1.0000   1.0000   1.0000   1.0000   1.0000   1.0000   1.0000   1.0000
     1.0000   1.0000   1.0000   1.0000   1.0000   1.0000   1.0000   1.0000
     1.0000   1.0000   1.0000   1.0000   1.0000   1.0000   1.0000   1.0000
     1.0000   1.0000   1.0000   1.0000   1.0000   1.0000   1.0000   1.0000
     1.0000   1.0000   1.0000   1.0000   1.0000   1.0000   1.0000   1.0000
     1.0000   1.0000   1.0000   1.0000   1.0000   1.0000   1.0000   1.0000
     1.0000   1.0000   1.0000   1.0000   1.0000   1.0000   1.0000   1.0000
     1.0000   1.0000   1.0000   1.0000   1.0000   1.0000   1.0000   1.0000
     1.0000   1.0000   1.0000   1.0000   1.0000   1.0000   1.0000   1.0000
     1.0000   1.0000   1.0000   1.0000   1.0000   1.0000   1.0000   1.0000
     1.0000   1.0000   1.0000   1.0000   1.0000   1.0000   1.0000   1.0000
     1.0000   1.0000   1.0000   1.0000   1.0000   0.0000   0.0000   0.0000
     0.0000   0.0000   0.0000   0.0000   0.0000   0.0000   0.0000   0.0000
     0.0000   0.0000   0.0000   0.0000   0.0000   0.0000   0.0000   0.0000
     0.0000   0.0000   0.0000   0.0000   0.0000

          k = 0.1667 0.1917 0.0310 ( 26802 PWs)   bands (ev):

   -81.5306 -67.8873 -67.8579 -67.6751 -67.5370 -67.3714 -48.5299 -47.2136
   -47.0165 -34.6555 -34.6363 -34.6299 -34.6165 -34.6139 -34.5931 -34.4400
   -34.4305 -34.4103 -34.2967 -34.2881 -34.2808 -34.1344 -34.1213 -34.1141
   -23.4761 -23.4516 -15.1714 -15.1284 -14.3673 -14.3285 -13.8950 -13.8752
   -13.4920 -13.4102 -13.3510 -13.2906 -13.1515 -13.1270 -13.0926 -13.0692
   -12.9447 -12.8352 -12.7189 -12.6530 -12.5871 -12.5560 -12.4286 -12.3365
   -11.7819 -11.5261  -7.0248  -6.9954  -6.9468  -6.9397  -6.9320  -6.9249
    -4.2960  -4.2492  -2.7538  -2.6692  -1.9419  -1.5965  -1.4998  -1.4566
    -1.0812  -1.0393  -0.9631  -0.8723  -0.7258  -0.5154  -0.4769  -0.3310
    -0.2272  -0.0877  -0.0297   0.1673   0.2410   0.3383   0.4713   0.5312
     0.7291   0.8058   0.8923   0.9766   1.0806   1.2372   1.3399   1.3974
     1.4535   1.6378   1.7035   1.7590   1.8510   1.9085   2.0371   2.0954
     2.1759   2.2412   2.2646   2.3061   2.3705   2.4711   2.5238   2.5705
     2.6311   2.6858   2.7471   2.8012   2.8709   2.9246   2.9724   3.0026
     3.0989   3.1297   3.1790   3.2030   3.2541   3.2839   3.3483   3.4376
     3.4667   3.5209   3.5894   3.6000   3.6435   3.7325   3.8733   3.9713
     4.9534   5.1424   6.0343   6.4520   6.7397   9.3942  10.2288  10.6111
    11.1422  11.5077  11.8333  12.2153  12.2588  12.3875  12.5119  12.6875
    12.7497  12.8922  12.9423  13.0670  13.1208  13.2590  13.3240  13.4163
    13.5213  13.5633  13.7727  13.9380  14.0472

     occupation numbers 
     1.0000   1.0000   1.0000   1.0000   1.0000   1.0000   1.0000   1.0000
     1.0000   1.0000   1.0000   1.0000   1.0000   1.0000   1.0000   1.0000
     1.0000   1.0000   1.0000   1.0000   1.0000   1.0000   1.0000   1.0000
     1.0000   1.0000   1.0000   1.0000   1.0000   1.0000   1.0000   1.0000
     1.0000   1.0000   1.0000   1.0000   1.0000   1.0000   1.0000   1.0000
     1.0000   1.0000   1.0000   1.0000   1.0000   1.0000   1.0000   1.0000
     1.0000   1.0000   1.0000   1.0000   1.0000   1.0000   1.0000   1.0000
     1.0000   1.0000   1.0000   1.0000   1.0000   1.0000   1.0000   1.0000
     1.0000   1.0000   1.0000   1.0000   1.0000   1.0000   1.0000   1.0000
     1.0000   1.0000   1.0000   1.0000   1.0000   1.0000   1.0000   1.0000
     1.0000   1.0000   1.0000   1.0000   1.0000   1.0000   1.0000   1.0000
     1.0000   1.0000   1.0000   1.0000   1.0000   1.0000   1.0000   1.0000
     1.0000   1.0000   1.0000   1.0000   1.0000   1.0000   1.0000   1.0000
     1.0000   1.0000   1.0000   1.0000   1.0000   1.0000   1.0000   1.0000
     1.0000   1.0000   1.0000   1.0000   1.0000   1.0000   1.0000   1.0000
     1.0000   1.0000   1.0000   1.0000   1.0000   1.0000   1.0000   1.0000
     1.0000   1.0000   1.0000   1.0000   1.0000   0.0000   0.0000   0.0000
     0.0000   0.0000   0.0000   0.0000   0.0000   0.0000   0.0000   0.0000
     0.0000   0.0000   0.0000   0.0000   0.0000   0.0000   0.0000   0.0000
     0.0000   0.0000   0.0000   0.0000   0.0000

          k = 0.1667 0.1917 0.2043 ( 26797 PWs)   bands (ev):

   -81.5306 -67.8873 -67.8579 -67.6751 -67.5370 -67.3714 -48.5299 -47.2136
   -47.0165 -34.6555 -34.6363 -34.6299 -34.6165 -34.6139 -34.5931 -34.4400
   -34.4305 -34.4103 -34.2967 -34.2881 -34.2808 -34.1344 -34.1213 -34.1141
   -23.4761 -23.4516 -15.1588 -15.1416 -14.3563 -14.3401 -13.8932 -13.8770
   -13.4869 -13.4070 -13.3651 -13.2805 -13.1572 -13.1285 -13.0894 -13.0670
   -12.9430 -12.8383 -12.7155 -12.6578 -12.5836 -12.5585 -12.4219 -12.3426
   -11.7814 -11.5268  -7.0248  -6.9954  -6.9468  -6.9397  -6.9320  -6.9248
    -4.2948  -4.2505  -2.7329  -2.6923  -1.9215  -1.5877  -1.5191  -1.4384
    -1.0862  -1.0338  -0.9655  -0.8802  -0.7075  -0.5616  -0.4525  -0.3895
    -0.1941  -0.1040  -0.0488   0.1278   0.2392   0.3382   0.4560   0.5613
     0.7262   0.8010   0.9276   0.9914   1.0950   1.2716   1.3383   1.4229
     1.5223   1.6127   1.6810   1.7865   1.8871   1.9319   2.0539   2.1086
     2.1500   2.2217   2.2455   2.2866   2.3351   2.4430   2.5001   2.5786
     2.6048   2.6723   2.7262   2.8281   2.8608   2.8987   2.9375   3.0496
     3.0892   3.1096   3.1867   3.2062   3.2707   3.3091   3.3532   3.4341
     3.4559   3.5086   3.5742   3.5869   3.6389   3.7783   3.8939   3.9764
     4.9537   5.1379   6.0337   6.4496   6.7398   9.7080  10.1213  10.4332
    10.8132  11.4862  11.8246  12.2482  12.3261  12.4587  12.7008  12.8191
    12.8742  12.9912  13.0189  13.0644  13.1369  13.1951  13.3001  13.3608
    13.3917  13.5872  13.6749  13.8645  13.9300

     occupation numbers 
     1.0000   1.0000   1.0000   1.0000   1.0000   1.0000   1.0000   1.0000
     1.0000   1.0000   1.0000   1.0000   1.0000   1.0000   1.0000   1.0000
     1.0000   1.0000   1.0000   1.0000   1.0000   1.0000   1.0000   1.0000
     1.0000   1.0000   1.0000   1.0000   1.0000   1.0000   1.0000   1.0000
     1.0000   1.0000   1.0000   1.0000   1.0000   1.0000   1.0000   1.0000
     1.0000   1.0000   1.0000   1.0000   1.0000   1.0000   1.0000   1.0000
     1.0000   1.0000   1.0000   1.0000   1.0000   1.0000   1.0000   1.0000
     1.0000   1.0000   1.0000   1.0000   1.0000   1.0000   1.0000   1.0000
     1.0000   1.0000   1.0000   1.0000   1.0000   1.0000   1.0000   1.0000
     1.0000   1.0000   1.0000   1.0000   1.0000   1.0000   1.0000   1.0000
     1.0000   1.0000   1.0000   1.0000   1.0000   1.0000   1.0000   1.0000
     1.0000   1.0000   1.0000   1.0000   1.0000   1.0000   1.0000   1.0000
     1.0000   1.0000   1.0000   1.0000   1.0000   1.0000   1.0000   1.0000
     1.0000   1.0000   1.0000   1.0000   1.0000   1.0000   1.0000   1.0000
     1.0000   1.0000   1.0000   1.0000   1.0000   1.0000   1.0000   1.0000
     1.0000   1.0000   1.0000   1.0000   1.0000   1.0000   1.0000   1.0000
     1.0000   1.0000   1.0000   1.0000   1.0000   0.0000   0.0000   0.0000
     0.0000   0.0000   0.0000   0.0000   0.0000   0.0000   0.0000   0.0000
     0.0000   0.0000   0.0000   0.0000   0.0000   0.0000   0.0000   0.0000
     0.0000   0.0000   0.0000   0.0000   0.0000

          k = 0.1667 0.1917-0.1424 ( 26819 PWs)   bands (ev):

   -81.5306 -67.8873 -67.8579 -67.6751 -67.5370 -67.3714 -48.5299 -47.2136
   -47.0166 -34.6555 -34.6363 -34.6299 -34.6165 -34.6139 -34.5931 -34.4400
   -34.4305 -34.4103 -34.2967 -34.2882 -34.2808 -34.1344 -34.1213 -34.1141
   -23.4761 -23.4516 -15.1642 -15.1360 -14.3594 -14.3369 -13.8909 -13.8794
   -13.4889 -13.4073 -13.3599 -13.2850 -13.1578 -13.1223 -13.0945 -13.0676
   -12.9429 -12.8378 -12.7124 -12.6601 -12.5757 -12.5670 -12.4227 -12.3415
   -11.7814 -11.5267  -7.0249  -6.9955  -6.9468  -6.9397  -6.9320  -6.9248
    -4.2792  -4.2664  -2.7344  -2.6903  -1.9295  -1.5906  -1.5189  -1.4380
    -1.0696  -1.0535  -0.9409  -0.8756  -0.7400  -0.5348  -0.4657  -0.3720
    -0.2181  -0.1001  -0.0524   0.1478   0.2506   0.3278   0.5033   0.5574
     0.6994   0.8023   0.9033   1.0038   1.0995   1.2300   1.3652   1.4262
     1.4961   1.6270   1.6719   1.8070   1.8487   1.9147   2.0125   2.0850
     2.1290   2.2234   2.2702   2.3158   2.3619   2.4530   2.5180   2.5770
     2.6475   2.6759   2.7486   2.7853   2.8828   2.9112   2.9203   3.0509
     3.1074   3.1396   3.1751   3.2269   3.2563   3.2839   3.3578   3.4148
     3.4678   3.5002   3.5479   3.6017   3.6318   3.7702   3.8889   3.9766
     4.9510   5.1426   6.0342   6.4487   6.7404   9.5543  10.3313  10.3667
    10.9282  11.5488  11.8621  12.1998  12.2703  12.4853  12.6346  12.6926
    12.8479  12.8926  12.9773  13.0444  13.1639  13.2472  13.3106  13.4040
    13.4751  13.5313  13.6284  13.9032  13.9828

     occupation numbers 
     1.0000   1.0000   1.0000   1.0000   1.0000   1.0000   1.0000   1.0000
     1.0000   1.0000   1.0000   1.0000   1.0000   1.0000   1.0000   1.0000
     1.0000   1.0000   1.0000   1.0000   1.0000   1.0000   1.0000   1.0000
     1.0000   1.0000   1.0000   1.0000   1.0000   1.0000   1.0000   1.0000
     1.0000   1.0000   1.0000   1.0000   1.0000   1.0000   1.0000   1.0000
     1.0000   1.0000   1.0000   1.0000   1.0000   1.0000   1.0000   1.0000
     1.0000   1.0000   1.0000   1.0000   1.0000   1.0000   1.0000   1.0000
     1.0000   1.0000   1.0000   1.0000   1.0000   1.0000   1.0000   1.0000
     1.0000   1.0000   1.0000   1.0000   1.0000   1.0000   1.0000   1.0000
     1.0000   1.0000   1.0000   1.0000   1.0000   1.0000   1.0000   1.0000
     1.0000   1.0000   1.0000   1.0000   1.0000   1.0000   1.0000   1.0000
     1.0000   1.0000   1.0000   1.0000   1.0000   1.0000   1.0000   1.0000
     1.0000   1.0000   1.0000   1.0000   1.0000   1.0000   1.0000   1.0000
     1.0000   1.0000   1.0000   1.0000   1.0000   1.0000   1.0000   1.0000
     1.0000   1.0000   1.0000   1.0000   1.0000   1.0000   1.0000   1.0000
     1.0000   1.0000   1.0000   1.0000   1.0000   1.0000   1.0000   1.0000
     1.0000   1.0000   1.0000   1.0000   1.0000   0.0000   0.0000   0.0000
     0.0000   0.0000   0.0000   0.0000   0.0000   0.0000   0.0000   0.0000
     0.0000   0.0000   0.0000   0.0000   0.0000   0.0000   0.0000   0.0000
     0.0000   0.0000   0.0000   0.0000   0.0000

          k = 0.3334 0.0000 0.0620 ( 26818 PWs)   bands (ev):

   -81.5306 -67.8873 -67.8579 -67.6751 -67.5370 -67.3714 -48.5298 -47.2136
   -47.0165 -34.6548 -34.6379 -34.6288 -34.6172 -34.6132 -34.5932 -34.4400
   -34.4305 -34.4103 -34.2968 -34.2881 -34.2808 -34.1345 -34.1214 -34.1140
   -23.4759 -23.4514 -15.0170 -14.9775 -14.4515 -14.4232 -14.0321 -14.0057
   -13.4480 -13.3365 -13.2835 -13.2605 -13.1757 -13.1215 -13.0600 -13.0566
   -12.9332 -12.8550 -12.7772 -12.7331 -12.6631 -12.5923 -12.4119 -12.3309
   -11.7459 -11.5645  -7.0291  -6.9977  -6.9464  -6.9358  -6.9303  -6.9232
    -3.9189  -3.8593  -2.7206  -2.6189  -2.0216  -1.8850  -1.6113  -1.4578
    -1.0686  -1.0317  -0.9628  -0.9083  -0.6034  -0.4882  -0.4377  -0.3234
    -0.2490  -0.0919   0.0155   0.1577   0.2671   0.3705   0.4527   0.5293
     0.6086   0.7765   0.8843   0.9388   1.1283   1.2047   1.2811   1.3375
     1.3825   1.4696   1.5947   1.7108   1.8052   1.9809   2.0768   2.1334
     2.1864   2.2306   2.3215   2.3863   2.4496   2.4643   2.4973   2.6094
     2.6615   2.6979   2.7126   2.8167   2.8688   2.9074   2.9223   2.9610
     3.0163   3.0542   3.1163   3.1964   3.2663   3.2999   3.3443   3.3974
     3.4298   3.4539   3.5157   3.5490   3.5981   3.6444   3.7502   3.9742
     5.0447   5.0856   6.0328   6.4812   6.7122   9.8245  10.8073  11.0916
    11.5623  11.6266  11.7942  11.8944  12.3269  12.3778  12.3839  12.6017
    12.7501  12.8529  12.8947  13.1507  13.1819  13.2401  13.3388  13.3474
    13.5718  13.6819  13.7701  13.9865  14.0285

     occupation numbers 
     1.0000   1.0000   1.0000   1.0000   1.0000   1.0000   1.0000   1.0000
     1.0000   1.0000   1.0000   1.0000   1.0000   1.0000   1.0000   1.0000
     1.0000   1.0000   1.0000   1.0000   1.0000   1.0000   1.0000   1.0000
     1.0000   1.0000   1.0000   1.0000   1.0000   1.0000   1.0000   1.0000
     1.0000   1.0000   1.0000   1.0000   1.0000   1.0000   1.0000   1.0000
     1.0000   1.0000   1.0000   1.0000   1.0000   1.0000   1.0000   1.0000
     1.0000   1.0000   1.0000   1.0000   1.0000   1.0000   1.0000   1.0000
     1.0000   1.0000   1.0000   1.0000   1.0000   1.0000   1.0000   1.0000
     1.0000   1.0000   1.0000   1.0000   1.0000   1.0000   1.0000   1.0000
     1.0000   1.0000   1.0000   1.0000   1.0000   1.0000   1.0000   1.0000
     1.0000   1.0000   1.0000   1.0000   1.0000   1.0000   1.0000   1.0000
     1.0000   1.0000   1.0000   1.0000   1.0000   1.0000   1.0000   1.0000
     1.0000   1.0000   1.0000   1.0000   1.0000   1.0000   1.0000   1.0000
     1.0000   1.0000   1.0000   1.0000   1.0000   1.0000   1.0000   1.0000
     1.0000   1.0000   1.0000   1.0000   1.0000   1.0000   1.0000   1.0000
     1.0000   1.0000   1.0000   1.0000   1.0000   1.0000   1.0000   1.0000
     1.0000   1.0000   1.0000   1.0000   1.0000   0.0000   0.0000   0.0000
     0.0000   0.0000   0.0000   0.0000   0.0000   0.0000   0.0000   0.0000
     0.0000   0.0000   0.0000   0.0000   0.0000   0.0000   0.0000   0.0000
     0.0000   0.0000   0.0000   0.0000   0.0000

          k = 0.3334 0.0000 0.2353 ( 26778 PWs)   bands (ev):

   -81.5306 -67.8873 -67.8579 -67.6751 -67.5370 -67.3714 -48.5298 -47.2136
   -47.0165 -34.6548 -34.6379 -34.6288 -34.6172 -34.6132 -34.5932 -34.4400
   -34.4305 -34.4103 -34.2967 -34.2881 -34.2808 -34.1345 -34.1214 -34.1139
   -23.4759 -23.4514 -15.0023 -14.9928 -14.4496 -14.4251 -14.0261 -14.0121
   -13.4426 -13.3413 -13.2918 -13.2524 -13.1741 -13.1189 -13.0730 -13.0475
   -12.9321 -12.8566 -12.7723 -12.7400 -12.6530 -12.5999 -12.4049 -12.3377
   -11.7449 -11.5656  -7.0292  -6.9977  -6.9463  -6.9358  -6.9303  -6.9232
    -3.9202  -3.8580  -2.7010  -2.6410  -1.9997  -1.9133  -1.5909  -1.4504
    -1.0730  -1.0371  -0.9439  -0.9164  -0.5728  -0.4896  -0.4420  -0.4140
    -0.2097  -0.1230   0.0228   0.1234   0.2770   0.3667   0.4291   0.5664
     0.6122   0.8112   0.8977   0.9399   1.0781   1.2230   1.2810   1.3461
     1.4278   1.5062   1.5519   1.7721   1.8496   1.9950   2.0146   2.1407
     2.1752   2.1936   2.2725   2.3746   2.4397   2.4913   2.5344   2.5463
     2.6366   2.6715   2.7751   2.8058   2.8085   2.9160   2.9262   2.9798
     3.0358   3.0939   3.1406   3.2092   3.2782   3.2859   3.3249   3.3926
     3.4213   3.4309   3.4793   3.5231   3.6087   3.6955   3.7667   3.9804
     5.0422   5.0852   6.0319   6.4811   6.7126  10.1414  10.3467  11.1467
    11.5546  11.6145  11.7746  11.9302  12.2522  12.3137  12.4263  12.5322
    12.9598  12.9915  13.0336  13.1002  13.1621  13.2371  13.3238  13.3669
    13.4872  13.5310  13.6400  14.0372  14.0608

     occupation numbers 
     1.0000   1.0000   1.0000   1.0000   1.0000   1.0000   1.0000   1.0000
     1.0000   1.0000   1.0000   1.0000   1.0000   1.0000   1.0000   1.0000
     1.0000   1.0000   1.0000   1.0000   1.0000   1.0000   1.0000   1.0000
     1.0000   1.0000   1.0000   1.0000   1.0000   1.0000   1.0000   1.0000
     1.0000   1.0000   1.0000   1.0000   1.0000   1.0000   1.0000   1.0000
     1.0000   1.0000   1.0000   1.0000   1.0000   1.0000   1.0000   1.0000
     1.0000   1.0000   1.0000   1.0000   1.0000   1.0000   1.0000   1.0000
     1.0000   1.0000   1.0000   1.0000   1.0000   1.0000   1.0000   1.0000
     1.0000   1.0000   1.0000   1.0000   1.0000   1.0000   1.0000   1.0000
     1.0000   1.0000   1.0000   1.0000   1.0000   1.0000   1.0000   1.0000
     1.0000   1.0000   1.0000   1.0000   1.0000   1.0000   1.0000   1.0000
     1.0000   1.0000   1.0000   1.0000   1.0000   1.0000   1.0000   1.0000
     1.0000   1.0000   1.0000   1.0000   1.0000   1.0000   1.0000   1.0000
     1.0000   1.0000   1.0000   1.0000   1.0000   1.0000   1.0000   1.0000
     1.0000   1.0000   1.0000   1.0000   1.0000   1.0000   1.0000   1.0000
     1.0000   1.0000   1.0000   1.0000   1.0000   1.0000   1.0000   1.0000
     1.0000   1.0000   1.0000   1.0000   1.0000   0.0000   0.0000   0.0000
     0.0000   0.0000   0.0000   0.0000   0.0000   0.0000   0.0000   0.0000
     0.0000   0.0000   0.0000   0.0000   0.0000   0.0000   0.0000   0.0000
     0.0000   0.0000   0.0000   0.0000   0.0000

          k = 0.3334 0.0000-0.1114 ( 26779 PWs)   bands (ev):

   -81.5306 -67.8873 -67.8579 -67.6751 -67.5370 -67.3714 -48.5298 -47.2136
   -47.0165 -34.6548 -34.6379 -34.6288 -34.6172 -34.6132 -34.5932 -34.4400
   -34.4305 -34.4103 -34.2968 -34.2881 -34.2808 -34.1345 -34.1214 -34.1139
   -23.4759 -23.4514 -15.0129 -14.9819 -14.4440 -14.4309 -14.0283 -14.0097
   -13.4467 -13.3324 -13.2947 -13.2553 -13.1743 -13.1197 -13.0733 -13.0453
   -12.9324 -12.8558 -12.7710 -12.7437 -12.6491 -12.6026 -12.4063 -12.3359
   -11.7452 -11.5652  -7.0292  -6.9978  -6.9463  -6.9358  -6.9302  -6.9232
    -3.8932  -3.8857  -2.7119  -2.6290  -2.0112  -1.8978  -1.6056  -1.4554
    -1.0635  -1.0314  -0.9412  -0.9128  -0.6042  -0.4733  -0.4525  -0.3692
    -0.2455  -0.1168   0.0400   0.1173   0.2895   0.3593   0.4827   0.5368
     0.5834   0.8112   0.8835   0.9883   1.1048   1.2089   1.2557   1.3517
     1.4174   1.4351   1.6070   1.7245   1.8005   1.9826   2.0474   2.1148
     2.1463   2.2233   2.3212   2.3625   2.4517   2.4891   2.5452   2.5814
     2.6518   2.7090   2.7366   2.8110   2.8657   2.9041   2.9229   2.9985
     3.0543   3.0970   3.1018   3.2019   3.2654   3.2890   3.3301   3.3475
     3.4295   3.4302   3.4582   3.4973   3.6292   3.7145   3.7569   3.9820
     5.0396   5.0891   6.0324   6.4811   6.7154   9.8573  10.7162  11.2062
    11.4727  11.6811  11.8299  11.9662  12.2413  12.3116  12.4326  12.5633
    12.7670  12.8081  13.0004  13.0390  13.1800  13.2407  13.2812  13.3204
    13.5937  13.6381  13.7800  13.8721  14.0374

     occupation numbers 
     1.0000   1.0000   1.0000   1.0000   1.0000   1.0000   1.0000   1.0000
     1.0000   1.0000   1.0000   1.0000   1.0000   1.0000   1.0000   1.0000
     1.0000   1.0000   1.0000   1.0000   1.0000   1.0000   1.0000   1.0000
     1.0000   1.0000   1.0000   1.0000   1.0000   1.0000   1.0000   1.0000
     1.0000   1.0000   1.0000   1.0000   1.0000   1.0000   1.0000   1.0000
     1.0000   1.0000   1.0000   1.0000   1.0000   1.0000   1.0000   1.0000
     1.0000   1.0000   1.0000   1.0000   1.0000   1.0000   1.0000   1.0000
     1.0000   1.0000   1.0000   1.0000   1.0000   1.0000   1.0000   1.0000
     1.0000   1.0000   1.0000   1.0000   1.0000   1.0000   1.0000   1.0000
     1.0000   1.0000   1.0000   1.0000   1.0000   1.0000   1.0000   1.0000
     1.0000   1.0000   1.0000   1.0000   1.0000   1.0000   1.0000   1.0000
     1.0000   1.0000   1.0000   1.0000   1.0000   1.0000   1.0000   1.0000
     1.0000   1.0000   1.0000   1.0000   1.0000   1.0000   1.0000   1.0000
     1.0000   1.0000   1.0000   1.0000   1.0000   1.0000   1.0000   1.0000
     1.0000   1.0000   1.0000   1.0000   1.0000   1.0000   1.0000   1.0000
     1.0000   1.0000   1.0000   1.0000   1.0000   1.0000   1.0000   1.0000
     1.0000   1.0000   1.0000   1.0000   1.0000   0.0000   0.0000   0.0000
     0.0000   0.0000   0.0000   0.0000   0.0000   0.0000   0.0000   0.0000
     0.0000   0.0000   0.0000   0.0000   0.0000   0.0000   0.0000   0.0000
     0.0000   0.0000   0.0000   0.0000   0.0000

          k = 0.3334 0.1917 0.0620 ( 26787 PWs)   bands (ev):

   -81.5306 -67.8873 -67.8579 -67.6751 -67.5370 -67.3714 -48.5298 -47.2136
   -47.0165 -34.6548 -34.6379 -34.6288 -34.6172 -34.6132 -34.5932 -34.4399
   -34.4305 -34.4103 -34.2968 -34.2881 -34.2808 -34.1345 -34.1214 -34.1139
   -23.4759 -23.4514 -15.0131 -14.9737 -14.4638 -14.4340 -14.0281 -14.0034
   -13.4131 -13.3550 -13.2646 -13.2206 -13.1794 -13.1309 -13.1051 -13.0782
   -12.9399 -12.8487 -12.7744 -12.7188 -12.6620 -12.5985 -12.4104 -12.3305
   -11.7454 -11.5646  -7.0294  -6.9982  -6.9458  -6.9356  -6.9305  -6.9233
    -3.8943  -3.8355  -2.8281  -2.7417  -1.9373  -1.7664  -1.5660  -1.4736
    -1.0861  -1.0443  -0.9528  -0.8816  -0.5977  -0.4638  -0.4121  -0.3061
    -0.2316  -0.1298  -0.0005   0.1466   0.2710   0.3493   0.4066   0.4582
     0.6116   0.7286   0.9112   1.0251   1.1049   1.2217   1.2954   1.3275
     1.3714   1.4558   1.5662   1.6383   1.8566   1.9924   2.1289   2.1378
     2.1934   2.2483   2.3092   2.3371   2.3941   2.4971   2.5598   2.5963
     2.6602   2.7007   2.7557   2.8045   2.8824   2.9081   2.9513   3.0250
     3.0518   3.0836   3.1178   3.1817   3.2129   3.2610   3.3023   3.3560
     3.3828   3.4281   3.5304   3.5474   3.6006   3.7016   3.7769   3.9181
     5.0444   5.0762   6.0396   6.4564   6.7271  10.0745  10.6915  10.9830
    11.4099  11.5190  11.7030  12.0908  12.1779  12.3170  12.4702  12.7378
    12.7970  12.9228  12.9536  13.0318  13.1352  13.2686  13.3047  13.4726
    13.6106  13.7449  13.8497  13.9378  14.0493

     occupation numbers 
     1.0000   1.0000   1.0000   1.0000   1.0000   1.0000   1.0000   1.0000
     1.0000   1.0000   1.0000   1.0000   1.0000   1.0000   1.0000   1.0000
     1.0000   1.0000   1.0000   1.0000   1.0000   1.0000   1.0000   1.0000
     1.0000   1.0000   1.0000   1.0000   1.0000   1.0000   1.0000   1.0000
     1.0000   1.0000   1.0000   1.0000   1.0000   1.0000   1.0000   1.0000
     1.0000   1.0000   1.0000   1.0000   1.0000   1.0000   1.0000   1.0000
     1.0000   1.0000   1.0000   1.0000   1.0000   1.0000   1.0000   1.0000
     1.0000   1.0000   1.0000   1.0000   1.0000   1.0000   1.0000   1.0000
     1.0000   1.0000   1.0000   1.0000   1.0000   1.0000   1.0000   1.0000
     1.0000   1.0000   1.0000   1.0000   1.0000   1.0000   1.0000   1.0000
     1.0000   1.0000   1.0000   1.0000   1.0000   1.0000   1.0000   1.0000
     1.0000   1.0000   1.0000   1.0000   1.0000   1.0000   1.0000   1.0000
     1.0000   1.0000   1.0000   1.0000   1.0000   1.0000   1.0000   1.0000
     1.0000   1.0000   1.0000   1.0000   1.0000   1.0000   1.0000   1.0000
     1.0000   1.0000   1.0000   1.0000   1.0000   1.0000   1.0000   1.0000
     1.0000   1.0000   1.0000   1.0000   1.0000   1.0000   1.0000   1.0000
     1.0000   1.0000   1.0000   1.0000   1.0000   0.0000   0.0000   0.0000
     0.0000   0.0000   0.0000   0.0000   0.0000   0.0000   0.0000   0.0000
     0.0000   0.0000   0.0000   0.0000   0.0000   0.0000   0.0000   0.0000
     0.0000   0.0000   0.0000   0.0000   0.0000

          k = 0.3334 0.1917 0.2353 ( 26789 PWs)   bands (ev):

   -81.5306 -67.8873 -67.8579 -67.6751 -67.5370 -67.3714 -48.5298 -47.2136
   -47.0165 -34.6548 -34.6379 -34.6288 -34.6172 -34.6132 -34.5932 -34.4400
   -34.4305 -34.4103 -34.2968 -34.2881 -34.2808 -34.1345 -34.1214 -34.1139
   -23.4759 -23.4514 -14.9982 -14.9892 -14.4600 -14.4379 -14.0227 -14.0093
   -13.4091 -13.3524 -13.2772 -13.2126 -13.1790 -13.1288 -13.1156 -13.0702
   -12.9386 -12.8510 -12.7685 -12.7288 -12.6526 -12.6042 -12.4035 -12.3371
   -11.7445 -11.5655  -7.0294  -6.9982  -6.9458  -6.9356  -6.9305  -6.9233
    -3.8934  -3.8364  -2.8019  -2.7706  -1.9227  -1.7862  -1.5528  -1.4607
    -1.0855  -1.0562  -0.9161  -0.9053  -0.5687  -0.4854  -0.4293  -0.3367
    -0.2200  -0.1568   0.0242   0.1054   0.2686   0.3418   0.3956   0.4684
     0.6209   0.7473   0.9449   1.0271   1.0832   1.2094   1.2816   1.3759
     1.4092   1.4857   1.5499   1.6647   1.9157   1.9503   2.1179   2.1438
     2.1775   2.2176   2.2491   2.3698   2.3940   2.4698   2.5422   2.5803
     2.6518   2.7026   2.7618   2.7831   2.8580   2.9046   2.9665   3.0251
     3.0631   3.1027   3.1544   3.2012   3.2237   3.2784   3.3001   3.3659
     3.3799   3.4196   3.4423   3.5628   3.6141   3.6876   3.8111   3.9278
     5.0418   5.0759   6.0389   6.4552   6.7272  10.3457  10.5812  10.8579
    11.1629  11.4998  11.7049  12.1322  12.2315  12.3432  12.4259  12.7178
    12.8342  12.9884  13.0739  13.1305  13.1762  13.2798  13.3231  13.5171
[...]
     atom   11 type  7   force =    -0.00033493    0.00300273    0.01371534
     atom   12 type  7   force =    -0.00096945   -0.01083460    0.01067054
     atom   13 type  7   force =     0.00097011   -0.01083459   -0.01067085
     atom   14 type  1   force =    -0.00011281   -0.00197116   -0.00785957
     atom   15 type  1   force =     0.00011354   -0.00197117    0.00785925
     atom   16 type  6   force =     0.00003809   -0.00060917    0.00639447
     atom   17 type  6   force =    -0.00003780   -0.00060919   -0.00639444
     atom   18 type  6   force =    -0.00003546    0.00016761   -0.00704549
     atom   19 type  6   force =     0.00003578    0.00016761    0.00704547
     atom   20 type  6   force =     0.00003262   -0.00010269    0.00682304
     atom   21 type  6   force =    -0.00003233   -0.00010270   -0.00682305
     atom   22 type  6   force =     0.00149533    0.00003282   -0.00260542
     atom   23 type  6   force =    -0.00149511    0.00003282    0.00260530
     atom   24 type  6   force =     0.00453788   -0.00165327   -0.00580107
     atom   25 type  6   force =    -0.00453782   -0.00165317    0.00580098
     atom   26 type  6   force =    -0.00314502    0.00069065   -0.00732664
     atom   27 type  6   force =     0.00314542    0.00069067    0.00732648
     atom   28 type  6   force =    -0.00139707    0.00199070    0.00734199
     atom   29 type  6   force =     0.00139709    0.00199089   -0.00734208
     atom   30 type  6   force =     0.00071266   -0.00181015   -0.00750747
     atom   31 type  6   force =    -0.00071265   -0.00180997    0.00750736
     atom   32 type  6   force =    -0.00220169   -0.00342648   -0.00642609
     atom   33 type  6   force =     0.00220199   -0.00342649    0.00642595
     atom   34 type  6   force =     0.00102002    0.00416083    0.00628439
     atom   35 type  6   force =    -0.00101986    0.00416095   -0.00628452
     atom   36 type  6   force =     0.00018107    0.00277402    0.01088048
     atom   37 type  6   force =    -0.00018062    0.00277402   -0.01088039
     atom   38 type  6   force =     0.00018875   -0.00139548    0.01113049
     atom   39 type  6   force =    -0.00018823   -0.00139544   -0.01113041
     atom   40 type  3   force =     0.00000000    0.00000000    0.00000000
     atom   41 type  3   force =     0.00000000    0.00000000    0.00000000
     atom   42 type  3   force =     0.00000000    0.00000000    0.00000000
     atom   43 type  3   force =     0.00000000    0.00000000    0.00000000
     atom   44 type  2   force =     0.00000116    0.00326251   -0.00000092
     The Hubbard contrib.    to forces
     atom    1 type  4   force =     0.00000000    0.00000000    0.00000000
     atom    2 type  4   force =     0.00000000    0.00000000    0.00000000
     atom    3 type  5   force =     0.00000000    0.00000000    0.00000000
     atom    4 type  5   force =     0.00000000    0.00000000    0.00000000
     atom    5 type  5   force =     0.00000000    0.00000000    0.00000000
     atom    6 type  5   force =     0.00000000    0.00000000    0.00000000
     atom    7 type  5   force =     0.00000000    0.00000000    0.00000000
     atom    8 type  7   force =     0.00000000    0.00000000    0.00000000
     atom    9 type  7   force =     0.00000000    0.00000000    0.00000000
     atom   10 type  7   force =     0.00000000    0.00000000    0.00000000
     atom   11 type  7   force =     0.00000000    0.00000000    0.00000000
     atom   12 type  7   force =     0.00000000    0.00000000    0.00000000
     atom   13 type  7   force =     0.00000000    0.00000000    0.00000000
     atom   14 type  1   force =     0.00000000    0.00000000    0.00000000
     atom   15 type  1   force =     0.00000000    0.00000000    0.00000000
     atom   16 type  6   force =     0.00000000    0.00000000    0.00000000
     atom   17 type  6   force =     0.00000000    0.00000000    0.00000000
     atom   18 type  6   force =     0.00000000    0.00000000    0.00000000
     atom   19 type  6   force =     0.00000000    0.00000000    0.00000000
     atom   20 type  6   force =     0.00000000    0.00000000    0.00000000
     atom   21 type  6   force =     0.00000000    0.00000000    0.00000000
     atom   22 type  6   force =     0.00000000    0.00000000    0.00000000
     atom   23 type  6   force =     0.00000000    0.00000000    0.00000000
     atom   24 type  6   force =     0.00000000    0.00000000    0.00000000
     atom   25 type  6   force =     0.00000000    0.00000000    0.00000000
     atom   26 type  6   force =     0.00000000    0.00000000    0.00000000
     atom   27 type  6   force =     0.00000000    0.00000000    0.00000000
     atom   28 type  6   force =     0.00000000    0.00000000    0.00000000
     atom   29 type  6   force =     0.00000000    0.00000000    0.00000000
     atom   30 type  6   force =     0.00000000    0.00000000    0.00000000
     atom   31 type  6   force =     0.00000000    0.00000000    0.00000000
     atom   32 type  6   force =     0.00000000    0.00000000    0.00000000
     atom   33 type  6   force =     0.00000000    0.00000000    0.00000000
     atom   34 type  6   force =     0.00000000    0.00000000    0.00000000
     atom   35 type  6   force =     0.00000000    0.00000000    0.00000000
     atom   36 type  6   force =     0.00000000    0.00000000    0.00000000
     atom   37 type  6   force =     0.00000000    0.00000000    0.00000000
     atom   38 type  6   force =     0.00000000    0.00000000    0.00000000
     atom   39 type  6   force =     0.00000000    0.00000000    0.00000000
     atom   40 type  3   force =     0.00000000    0.00000000    0.00000000
     atom   41 type  3   force =     0.00000000    0.00000000    0.00000000
     atom   42 type  3   force =     0.00000000    0.00000000    0.00000000
     atom   43 type  3   force =     0.00000000    0.00000000    0.00000000
     atom   44 type  2   force =     0.00000000    0.00000000    0.00000000
     The SCF correction term to forces
     atom    1 type  4   force =     0.00000000   -0.00000342   -0.00000000
     atom    2 type  4   force =    -0.00000000    0.00000389   -0.00000000
     atom    3 type  5   force =    -0.00000000   -0.00000579    0.00000000
     atom    4 type  5   force =    -0.00000000    0.00000617    0.00000000
     atom    5 type  5   force =    -0.00000000    0.00000435    0.00000000
     atom    6 type  5   force =    -0.00000000   -0.00000803    0.00000000
     atom    7 type  5   force =    -0.00000000    0.00000599    0.00000000
     atom    8 type  7   force =     0.00000037    0.00000165   -0.00000445
     atom    9 type  7   force =    -0.00000037    0.00000165    0.00000445
     atom   10 type  7   force =    -0.00000028   -0.00000081   -0.00000131
     atom   11 type  7   force =     0.00000028   -0.00000081    0.00000131
     atom   12 type  7   force =    -0.00000068   -0.00000116    0.00000197
     atom   13 type  7   force =     0.00000068   -0.00000116   -0.00000197
     atom   14 type  1   force =    -0.00000011    0.00000018    0.00000009
     atom   15 type  1   force =     0.00000011    0.00000018   -0.00000009
     atom   16 type  6   force =    -0.00000437   -0.00000306    0.00000586
     atom   17 type  6   force =     0.00000437   -0.00000306   -0.00000586
     atom   18 type  6   force =     0.00000057   -0.00000274    0.00000149
     atom   19 type  6   force =    -0.00000057   -0.00000274   -0.00000149
     atom   20 type  6   force =     0.00000015    0.00000474    0.00000430
     atom   21 type  6   force =    -0.00000015    0.00000474   -0.00000430
     atom   22 type  6   force =    -0.00000065    0.00000313   -0.00001081
     atom   23 type  6   force =     0.00000064    0.00000313    0.00001081
     atom   24 type  6   force =     0.00000263   -0.00000322   -0.00001912
     atom   25 type  6   force =    -0.00000263   -0.00000322    0.00001912
     atom   26 type  6   force =    -0.00000045   -0.00000244   -0.00000378
     atom   27 type  6   force =     0.00000045   -0.00000244    0.00000378
     atom   28 type  6   force =     0.00000018   -0.00000062    0.00000145
     atom   29 type  6   force =    -0.00000018   -0.00000062   -0.00000145
     atom   30 type  6   force =     0.00000034   -0.00000001   -0.00000140
     atom   31 type  6   force =    -0.00000034   -0.00000001    0.00000140
     atom   32 type  6   force =    -0.00000150    0.00000390   -0.00001254
     atom   33 type  6   force =     0.00000150    0.00000390    0.00001254
     atom   34 type  6   force =    -0.00000047    0.00000325    0.00001797
     atom   35 type  6   force =     0.00000047    0.00000325   -0.00001797
     atom   36 type  6   force =    -0.00000037    0.00000386   -0.00000225
     atom   37 type  6   force =     0.00000037    0.00000386    0.00000225
     atom   38 type  6   force =     0.00000324   -0.00000779   -0.00000377
     atom   39 type  6   force =    -0.00000324   -0.00000779    0.00000377
     atom   40 type  3   force =    -0.00000004    0.00000067    0.00000031
     atom   41 type  3   force =     0.00000004    0.00000067   -0.00000031
     atom   42 type  3   force =     0.00000034   -0.00000118    0.00000240
     atom   43 type  3   force =    -0.00000034   -0.00000118   -0.00000240
     atom   44 type  2   force =     0.00000000   -0.00000012   -0.00000000

     DFT-D3 dispersion contribution to forces:
     atom    1 type  4   force =     0.00000001    0.00117576   -0.00000000
     atom    2 type  4   force =     0.00000000   -0.00078455    0.00000000
     atom    3 type  5   force =    -0.00000000    0.00044668    0.00000000
     atom    4 type  5   force =    -0.00000000   -0.00131172   -0.00000000
     atom    5 type  5   force =     0.00000000   -0.00048995    0.00000000
     atom    6 type  5   force =     0.00000000    0.00113626   -0.00000000
     atom    7 type  5   force =     0.00000000   -0.00032442   -0.00000000
     atom    8 type  7   force =    -0.00003697   -0.00005076   -0.00012283
     atom    9 type  7   force =     0.00003697   -0.00005076    0.00012283
     atom   10 type  7   force =     0.00004634    0.00002151    0.00025647
     atom   11 type  7   force =    -0.00004634    0.00002150   -0.00025647
     atom   12 type  7   force =     0.00001936    0.00025979   -0.00025505
     atom   13 type  7   force =    -0.00001936    0.00025979    0.00025505
     atom   14 type  1   force =    -0.00019649    0.00003828   -0.00101683
     atom   15 type  1   force =     0.00019649    0.00003828    0.00101683
     atom   16 type  6   force =    -0.00005470    0.00012519    0.00050076
     atom   17 type  6   force =     0.00005470    0.00012519   -0.00050077
     atom   18 type  6   force =     0.00000374    0.00000508   -0.00039104
     atom   19 type  6   force =    -0.00000374    0.00000508    0.00039104
     atom   20 type  6   force =    -0.00002093   -0.00000217    0.00039621
     atom   21 type  6   force =     0.00002093   -0.00000217   -0.00039621
     atom   22 type  6   force =    -0.00007815   -0.00001553    0.00002468
     atom   23 type  6   force =     0.00007815   -0.00001553   -0.00002468
     atom   24 type  6   force =    -0.00019896    0.00103108    0.00026233
     atom   25 type  6   force =     0.00019896    0.00103108   -0.00026232
     atom   26 type  6   force =     0.00087127    0.00006567    0.00021273
     atom   27 type  6   force =    -0.00087128    0.00006567   -0.00021273
     atom   28 type  6   force =     0.00032512   -0.00045547    0.00001593
     atom   29 type  6   force =    -0.00032513   -0.00045548   -0.00001593
     atom   30 type  6   force =    -0.00013805    0.00021143   -0.00005002
     atom   31 type  6   force =     0.00013804    0.00021143    0.00005003
     atom   32 type  6   force =     0.00095632   -0.00042662    0.00039052
     atom   33 type  6   force =    -0.00095632   -0.00042662   -0.00039052
     atom   34 type  6   force =     0.00069086   -0.00058947   -0.00043093
     atom   35 type  6   force =    -0.00069086   -0.00058947    0.00043093
     atom   36 type  6   force =    -0.00010783   -0.00017327   -0.00036669
     atom   37 type  6   force =     0.00010783   -0.00017327    0.00036669
     atom   38 type  6   force =     0.00002275   -0.00000340   -0.00052704
     atom   39 type  6   force =    -0.00002275   -0.00000340    0.00052704
     atom   40 type  3   force =    -0.00010118    0.00013375   -0.00010250
     atom   41 type  3   force =     0.00010118    0.00013375    0.00010250
     atom   42 type  3   force =     0.00010299   -0.00043800   -0.00030369
     atom   43 type  3   force =    -0.00010299   -0.00043800    0.00030369
     atom   44 type  2   force =    -0.00000000    0.00067776   -0.00000000

     Total force =     0.000532     Total SCF correction =     0.000053

     DFT-D3 dispersion Force =     0.004538


     Computing stress (Cartesian axis) and pressure


     negative rho (up, down):  0.000E+00 3.801E-04
          total   stress  (Ry/bohr**3)                   (kbar)     P=       -0.12
  -0.00000083   0.00000000   0.00000007           -0.12        0.00        0.01
   0.00000000  -0.00000029   0.00000000            0.00       -0.04        0.00
   0.00000007   0.00000000  -0.00000122            0.01        0.00       -0.18

     kinetic stress (kbar)  20077.25      0.00    -53.98
                                0.00  20167.15      0.00
                              -53.98      0.00  19859.16

     local   stress (kbar) -40692.81      0.00   -359.19
                                0.00 -39867.36     -0.00
                             -359.19     -0.00  19227.32

     nonloc. stress (kbar)   3807.02      0.00      7.02
                                0.00   3796.28      0.00
                                7.02      0.00   3784.64

     hartree stress (kbar)  22894.67      0.00    133.09
                                0.00  22563.39     -0.00
                              133.09     -0.00  -6369.33

     exc-cor stress (kbar)  -2822.35      0.00      0.01
                                0.00  -2822.34      0.00
                                0.01      0.00  -2819.23

     corecor stress (kbar)  -1858.59     -0.00      0.46
                               -0.00  -1859.26     -0.00
                                0.46     -0.00  -1860.54

     ewald   stress (kbar)  -1390.64     -0.00    272.58
                               -0.00  -1963.15      0.00
                              272.58      0.00 -31811.21

     hubbard stress (kbar)      0.00      0.00      0.00
                                0.00      0.00      0.00
                                0.00      0.00      0.00

     DFT-D   stress (kbar)    -14.67      0.00      0.03
                                0.00    -14.75      0.00
                                0.03      0.00    -10.98

     XDM     stress (kbar)      0.00      0.00      0.00
                                0.00      0.00      0.00
                                0.00      0.00      0.00

     dft-nl  stress (kbar)      0.00      0.00      0.00
                                0.00      0.00      0.00
                                0.00      0.00      0.00

     TS-vdW  stress (kbar)      0.00      0.00      0.00
                                0.00      0.00      0.00
                                0.00      0.00      0.00

     MDB     stress (kbar)      0.00      0.00      0.00
                                0.00      0.00      0.00
                                0.00      0.00      0.00

     3D-RISM stress (kbar)      0.00      0.00      0.00
                                0.00      0.00      0.00
                                0.00      0.00      0.00


     Writing all to output data dir ./temp/phl-fe1-fe2.save/ :
     XML data file, charge density, pseudopotentials, collected wavefunctions

     init_run     :    665.37s CPU    674.60s WALL (       2 calls)
     electrons    : 119890.78s CPU 120719.05s WALL (       9 calls)
     update_pot   :     16.94s CPU     17.28s WALL (       7 calls)
     forces       :   2482.28s CPU   2496.06s WALL (       9 calls)
     force_dftd3  :     22.46s CPU     22.61s WALL (       9 calls)
     stress       :   3914.88s CPU   3965.60s WALL (       9 calls)
     stres_dftd3  :     22.89s CPU     23.00s WALL (       9 calls)

     Called by init_run:
     wfcinit      :    644.04s CPU    651.37s WALL (       2 calls)
     wfcinit:atom :      0.85s CPU      0.86s WALL (      80 calls)
     wfcinit:wfcr :    635.72s CPU    642.91s WALL (      80 calls)
     potinit      :      4.69s CPU      5.10s WALL (       2 calls)
     hinit0       :      1.79s CPU      1.92s WALL (       2 calls)

     Called by electrons:
     c_bands      : 111786.10s CPU 112468.69s WALL (      72 calls)
     sum_band     :   7471.62s CPU   7576.41s WALL (      72 calls)
     v_of_rho     :     47.92s CPU     50.21s WALL (      74 calls)
     v_h          :      2.70s CPU      2.81s WALL (      74 calls)
     v_xc         :     56.25s CPU     58.91s WALL (      92 calls)
     newd         :    523.62s CPU    566.25s WALL (      74 calls)
     PAW_pot      :    121.90s CPU    122.18s WALL (      81 calls)
     mix_rho      :      9.67s CPU      9.97s WALL (      72 calls)
     energy_dftd3 :     17.46s CPU     17.48s WALL (       9 calls)

     Called by c_bands:
     init_us_2    :    275.48s CPU    279.04s WALL (    6840 calls)
     cegterg      : 111502.21s CPU 112178.83s WALL (    2961 calls)

     Called by sum_band:
     sum_band:wei :      0.02s CPU      0.03s WALL (      72 calls)
     sum_band:loo :   6233.01s CPU   6283.67s WALL (      72 calls)
     sum_band:buf :     36.12s CPU     36.61s WALL (    2880 calls)
     sum_band:ini :    120.45s CPU    121.64s WALL (    2880 calls)
     sum_band:cal :   4892.91s CPU   4906.30s WALL (    3160 calls)
     sum_band:bec :      5.79s CPU      5.82s WALL (    3160 calls)
     addusdens    :   1221.56s CPU   1275.08s WALL (      72 calls)
                                        0.00s GPU  (      72 calls)
     addusd:skk   :      3.83s CPU      5.11s WALL (     504 calls)
                                        0.00s GPU  (     504 calls)

     Called by *egterg:
     cdiaghg      :   1329.98s CPU   1349.62s WALL (   23004 calls)
     cegterg:over :  15225.03s CPU  15280.60s WALL (   20684 calls)
     cegterg:upda :   8909.77s CPU   8955.85s WALL (   20684 calls)
     cegterg:last :  25121.69s CPU  25215.16s WALL (   10244 calls)
     cdiaghg:chol :     28.59s CPU     28.90s WALL (   23004 calls)
     cdiaghg:inve :     25.17s CPU     25.28s WALL (   23004 calls)
     cdiaghg:para :    496.74s CPU    504.38s WALL (   46008 calls)
     h_psi        :  41918.20s CPU  42272.33s WALL (   23725 calls)
     s_psi        :  17091.08s CPU  17140.69s WALL (   23725 calls)
     g_psi        :     36.61s CPU     36.82s WALL (   20684 calls)

     Called by h_psi:
     h_psi:calbec :  16993.53s CPU  17047.18s WALL (   23725 calls)
     vloc_psi     :   7598.19s CPU   7821.24s WALL (   23725 calls)
     add_vuspsi   :  17228.62s CPU  17281.46s WALL (   23725 calls)

     General routines
     calbec       :  24664.53s CPU  24740.09s WALL (   28685 calls)
     fft          :     44.76s CPU     47.72s WALL (    2213 calls)
     ffts         :      1.19s CPU      1.29s WALL (     292 calls)
     fftw         :   4448.54s CPU   4552.47s WALL ( 3896162 calls)
     interpolate  :      4.53s CPU      4.78s WALL (     148 calls)

     Parallel routines

     PAW routines
     PAW_pot      :    121.90s CPU    122.18s WALL (      81 calls)
     PAW_symme    :      0.07s CPU      0.07s WALL (     152 calls)

     PWSCF        :   1d11h24m CPU   1d11h40m WALL


   This run was terminated on:   0:17:21  12Feb2025            

=------------------------------------------------------------------------------=
   JOB DONE.
=------------------------------------------------------------------------------=
