
     Program PWSCF v.7.3.1 starts on 15Dec2024 at 15:14:28 

     This program is part of the open-source Quantum ESPRESSO suite
     for quantum simulation of materials; please cite
         "P. Giannozzi et al., J. Phys.:Condens. Matter 21 395502 (2009);
         "P. Giannozzi et al., J. Phys.:Condens. Matter 29 465901 (2017);
         "P. Giannozzi et al., J. Chem. Phys. 152 154105 (2020);
          URL http://www.quantum-espresso.org", 
     in publications or presentations arising from this work. More details at
     http://www.quantum-espresso.org/quote

     Parallel version (MPI), running on     8 processors

     MPI processes distributed on     1 nodes
     5018 MiB available memory on the printing compute node when the environment starts

     Reading input from relax.in
Warning: card  &CELL ignored
Warning: card    CELL_DOFREE     = 'IBRAV' ignored
Warning: card  / ignored

     Current dimensions of program PWSCF are:
     Max number of different atomic species (ntypx) = 10
     Max number of k-points (npk) =  40000
     Max angular momentum in pseudopotentials (lmaxx) =  4
     file Al.pbe-n-kjpaw_psl.1.0.0.UPF: wavefunction(s)  3S 3P renormalized
     file H.pbe-kjpaw_psl.1.0.0.UPF: wavefunction(s)  1S renormalized
     file K.pbe-spn-kjpaw_psl.1.0.0.UPF: wavefunction(s)  3S renormalized
     file Mg.pbe-spnl-kjpaw_psl.1.0.0.UPF: wavefunction(s)  2P renormalized
     file O.pbe-n-kjpaw_psl.1.0.0.UPF: wavefunction(s)  2S 2P renormalized
     file Si.pbe-n-kjpaw_psl.1.0.0.UPF: wavefunction(s)  3S 3P renormalized

     R & G space division:  proc/nbgrp/npool/nimage =       8
     Subspace diagonalization in iterative solution of the eigenvalue problem:
     a serial algorithm will be used


     Parallelization info
     --------------------
     sticks:   dense  smooth     PW     G-vecs:    dense   smooth      PW
     Min         829     416    112                73308    25934    3688
     Max         830     417    114                73309    25935    3690
     Sum        6633    3329    905               586467   207475   29511

     Using Slab Decomposition



     bravais-lattice index     =          -12
     lattice parameter (alat)  =      10.0136  a.u.
     unit-cell volume          =    3303.4414 (a.u.)^3
     number of atoms/cell      =           44
     number of atomic types    =            6
     number of electrons       =       256.00
     number of Kohn-Sham states=          128
     kinetic-energy cutoff     =      60.0000  Ry
     charge density cutoff     =     480.0000  Ry
     scf convergence threshold =      1.0E-06
     mixing beta               =       0.7000
     number of iterations used =            8  plain     mixing
     energy convergence thresh.=      1.0E-04
     force convergence thresh. =      1.0E-03
     Exchange-correlation= SLA  PW   PBX  PBC
                           (   1   4   3   4   0   0   0)
     nstep                     =           50


     celldm(1)=  10.013640  celldm(2)=   1.735306  celldm(3)=   1.926511
     celldm(4)=   0.000000  celldm(5)=  -0.177565  celldm(6)=   0.000000

     crystal axes: (cart. coord. in units of alat)
               a(1) = (   1.000000   0.000000   0.000000 )  
               a(2) = (   0.000000   1.735306   0.000000 )  
               a(3) = (  -0.342081   0.000000   1.895896 )  

     reciprocal axes: (cart. coord. in units 2 pi/alat)
               b(1) = (  1.000000 -0.000000  0.180432 )  
               b(2) = (  0.000000  0.576267 -0.000000 )  
               b(3) = (  0.000000  0.000000  0.527455 )  


     PseudoPot. # 1 for Al read from file:
     ./../../pseudos/Al.pbe-n-kjpaw_psl.1.0.0.UPF
     MD5 check sum: 502b6b27b9c6270cab5dd1084b96fa6d
     Pseudo is Projector augmented-wave + core cor, Zval =  3.0
     Generated using &quot;atomic&quot; code by A. Dal Corso  v.6.3
     Shape of augmentation charge: PSQ
     Using radial grid of 1135 points,  6 beta functions with: 
                l(1) =   0
                l(2) =   0
                l(3) =   1
                l(4) =   1
                l(5) =   2
                l(6) =   2
     Q(r) pseudized with 0 coefficients 


     PseudoPot. # 2 for H  read from file:
     ./../../pseudos/H.pbe-kjpaw_psl.1.0.0.UPF
     MD5 check sum: d81a744832360e4a8af0b0b5b123bc2a
     Pseudo is Projector augmented-wave, Zval =  1.0
     Generated using &quot;atomic&quot; code by A. Dal Corso  v.6.3MaX
     Shape of augmentation charge: PSQ
     Using radial grid of  929 points,  2 beta functions with: 
                l(1) =   0
                l(2) =   0
     Q(r) pseudized with 0 coefficients 


     PseudoPot. # 3 for K  read from file:
     ./../../pseudos/K.pbe-spn-kjpaw_psl.1.0.0.UPF
     MD5 check sum: 34cc42130a09071ebe376fd42eb21491
     Pseudo is Projector augmented-wave + core cor, Zval =  9.0
     Generated using &quot;atomic&quot; code by A. Dal Corso  v.6.2.2
     Shape of augmentation charge: PSQ
     Using radial grid of 1165 points,  6 beta functions with: 
                l(1) =   0
                l(2) =   0
                l(3) =   1
                l(4) =   1
                l(5) =   2
                l(6) =   2
     Q(r) pseudized with 0 coefficients 


     PseudoPot. # 4 for Mg read from file:
     ./../../pseudos/Mg.pbe-spnl-kjpaw_psl.1.0.0.UPF
     MD5 check sum: fda14e0d92a6a9a5ebed782e5a4b3067
     Pseudo is Projector augmented-wave + core cor, Zval = 10.0
     Generated using &quot;atomic&quot; code by A. Dal Corso  v.6.3
     Shape of augmentation charge: PSQ
     Using radial grid of 1129 points,  4 beta functions with: 
                l(1) =   0
                l(2) =   0
                l(3) =   1
                l(4) =   1
     Q(r) pseudized with 0 coefficients 


     PseudoPot. # 5 for O  read from file:
     ./../../pseudos/O.pbe-n-kjpaw_psl.1.0.0.UPF
     MD5 check sum: e99d9cef9b487d1ca56f5b95ecd0fd7a
     Pseudo is Projector augmented-wave + core cor, Zval =  6.0
     Generated using &quot;atomic&quot; code by A. Dal Corso  v.6.3
     Shape of augmentation charge: PSQ
     Using radial grid of 1095 points,  4 beta functions with: 
                l(1) =   0
                l(2) =   0
                l(3) =   1
                l(4) =   1
     Q(r) pseudized with 0 coefficients 


     PseudoPot. # 6 for Si read from file:
     ./../../pseudos/Si.pbe-n-kjpaw_psl.1.0.0.UPF
     MD5 check sum: c39c59da582df4a0d9f10159256ea34e
     Pseudo is Projector augmented-wave + core cor, Zval =  4.0
     Generated using &quot;atomic&quot; code by A. Dal Corso  v.6.3
     Shape of augmentation charge: PSQ
     Using radial grid of 1141 points,  6 beta functions with: 
                l(1) =   0
                l(2) =   0
                l(3) =   1
                l(4) =   1
                l(5) =   2
                l(6) =   2
     Q(r) pseudized with 0 coefficients 


     atomic species   valence    mass     pseudopotential
     Al                3.00    26.98154     Al( 1.00)
     H                 1.00     1.00794     H ( 1.00)
     K                 9.00    39.09830     K ( 1.00)
     Mg               10.00    24.30500     Mg( 1.00)
     O                 6.00    15.99940     O ( 1.00)
     Si                4.00    28.08550     Si( 1.00)

      2 Sym. Ops. (no inversion) found


                                    s                        frac. trans.

      isym =  1     identity                                     

 cryst.   s( 1) = (     1          0          0      )
                  (     0          1          0      )
                  (     0          0          1      )

 cart.    s( 1) = (  1.0000000  0.0000000 -0.0000000 )
                  (  0.0000000  1.0000000  0.0000000 )
                  (  0.0000000  0.0000000  1.0000000 )


      isym =  2     180 deg rotation - cart. axis [0,1,0]        

 cryst.   s( 2) = (    -1          0          0      )
                  (     0          1          0      )
                  (     0          0         -1      )

 cart.    s( 2) = ( -1.0000000  0.0000000  0.0000000 )
                  (  0.0000000  1.0000000  0.0000000 )
                  (  0.0000000  0.0000000 -1.0000000 )


     point group C_2  (2)   
     there are  2 classes
     the character table:

       E     C2   
A      1.00  1.00
B      1.00 -1.00

     the symmetry operations in each class and the name of the first element:

     E        1
          identity                                               
     C2       2
          180 deg rotation - cart. axis [0,1,0]                  

   Cartesian axes

     site n.     atom                  positions (alat units)
         1        K      tau(   1) = (   0.0000000   0.8559224   0.0000000  )
         2        K      tau(   2) = (   0.5000000   0.0093568   0.0000000  )
         3        Mg     tau(   3) = (  -0.1710407   0.0067712   0.9479482  )
         4        Mg     tau(   4) = (  -0.1710407   0.5780843   0.9479482  )
         5        Mg     tau(   5) = (  -0.1710407   1.1543881   0.9479482  )
         6        Mg     tau(   6) = (   0.3289593   0.8562226   0.9479482  )
         7        Mg     tau(   7) = (   0.3289593   1.4480089   0.9479482  )
         8        Mg     tau(   8) = (   0.3289593   0.2986375   0.9479482  )
         9        Si     tau(   9) = (   0.0066674   0.2865251   0.4219393  )
        10        Si     tau(  10) = (   0.6512512   0.2865251   1.4739571  )
        11        Si     tau(  11) = (   0.6701371   1.4476688   1.4628623  )
        12        Si     tau(  12) = (  -0.0122184   1.4476688   0.4330341  )
        13        Si     tau(  13) = (   0.4872056   1.1568454   0.4292651  )
        14        Si     tau(  14) = (   0.1707131   1.1568454   1.4666313  )
        15        Al     tau(  15) = (   0.1506005   0.5746762   1.4713786  )
        16        Al     tau(  16) = (   0.5073182   0.5746762   0.4245178  )
        17        O      tau(  17) = (  -0.0043508   0.2833738   0.7297400  )
        18        O      tau(  18) = (   0.6622695   0.2833738   1.1661564  )
        19        O      tau(  19) = (   0.6658139   1.4451231   1.1576912  )
        20        O      tau(  20) = (  -0.0078952   1.4451231   0.7382052  )
        21        O      tau(  21) = (   0.4926234   1.1618863   0.7357690  )
        22        O      tau(  22) = (   0.1652953   1.1618863   1.1601274  )
        23        O      tau(  23) = (   0.1548298   0.5779784   1.1454267  )
        24        O      tau(  24) = (   0.5030889   0.5779784   0.7504697  )
        25        O      tau(  25) = (   0.2847398   0.3548857   0.3143567  )
        26        O      tau(  26) = (   0.3731789   0.3548857   1.5815397  )
        27        O      tau(  27) = (   0.9404978   1.7303189   0.3181314  )
        28        O      tau(  28) = (  -0.2825791   1.7303189   1.5777650  )
        29        O      tau(  29) = (   0.3988927   1.3439356   1.5754330  )
        30        O      tau(  30) = (   0.2590260   1.3439356   0.3204634  )
        31        O      tau(  31) = (   0.7582660   1.2710892   0.3185125  )
        32        O      tau(  32) = (  -0.1003473   1.2710892   1.5773839  )
        33        O      tau(  33) = (   0.4432368   0.8811364   0.3085875  )
        34        O      tau(  34) = (   0.2146819   0.8811364   1.5873090  )
        35        O      tau(  35) = (  -0.1423236   0.4782556   1.5925436  )
        36        O      tau(  36) = (   0.8002423   0.4782556   0.3033529  )
        37        O      tau(  37) = (  -0.0041068   0.8750247   0.7469263  )
        38        O      tau(  38) = (   0.6620255   0.8750247   1.1489701  )
        39        O      tau(  39) = (   0.4966158   1.7335917   0.7534577  )
        40        O      tau(  40) = (   0.1613029   1.7335917   1.1424387  )
        41        H      tau(  41) = (  -0.0032097   0.8603995   0.5673129  )
        42        H      tau(  42) = (   0.6611284   0.8603995   1.3285835  )
        43        H      tau(  43) = (   0.4926802   0.0219534   0.5746291  )
        44        H      tau(  44) = (   0.1652385   0.0219534   1.3212673  )

     -------------------------------------------------
     Parameters for Dispersion (Grimme-D2) Correction:
     -------------------------------------------------
       atom      VdW radius       C_6     

        Al         3.097        374.319
        H          1.892          4.857
        K          2.806        374.666
        Mg         2.578        198.087
        O          2.536         24.284
        Si         3.243        320.200

   Crystallographic axes

     site n.     atom                  positions (cryst. coord.)
         1        K      tau(   1) = (  0.0000000  0.4932400  0.0000000  )
         2        K      tau(   2) = (  0.5000000  0.0053920  0.0000000  )
         3        Mg     tau(   3) = (  0.0000000  0.0039020  0.5000000  )
         4        Mg     tau(   4) = (  0.0000000  0.3331310  0.5000000  )
         5        Mg     tau(   5) = (  0.0000000  0.6652360  0.5000000  )
         6        Mg     tau(   6) = (  0.5000000  0.4934130  0.5000000  )
         7        Mg     tau(   7) = (  0.5000000  0.8344400  0.5000000  )
         8        Mg     tau(   8) = (  0.5000000  0.1720950  0.5000000  )
         9        Si     tau(   9) = (  0.0827990  0.1651150  0.2225540  )
        10        Si     tau(  10) = (  0.9172010  0.1651150  0.7774460  )
        11        Si     tau(  11) = (  0.9340850  0.8342440  0.7715940  )
        12        Si     tau(  12) = (  0.0659150  0.8342440  0.2284060  )
        13        Si     tau(  13) = (  0.5646590  0.6666520  0.2264180  )
        14        Si     tau(  14) = (  0.4353410  0.6666520  0.7735820  )
        15        Al     tau(  15) = (  0.4160850  0.3311670  0.7760860  )
        16        Al     tau(  16) = (  0.5839150  0.3311670  0.2239140  )
        17        O      tau(  17) = (  0.1273180  0.1632990  0.3849050  )
        18        O      tau(  18) = (  0.8726820  0.1632990  0.6150950  )
        19        O      tau(  19) = (  0.8746990  0.8327770  0.6106300  )
        20        O      tau(  20) = (  0.1253010  0.8327770  0.3893700  )
        21        O      tau(  21) = (  0.6253800  0.6695570  0.3880850  )
        22        O      tau(  22) = (  0.3746200  0.6695570  0.6119150  )
        23        O      tau(  23) = (  0.3615020  0.3330700  0.6041610  )
        24        O      tau(  24) = (  0.6384980  0.3330700  0.3958390  )
        25        O      tau(  25) = (  0.3414600  0.2045090  0.1658090  )
        26        O      tau(  26) = (  0.6585400  0.2045090  0.8341910  )
        27        O      tau(  27) = (  0.9978990  0.9971260  0.1678000  )
        28        O      tau(  28) = (  0.0021010  0.9971260  0.8322000  )
        29        O      tau(  29) = (  0.6831520  0.7744660  0.8309700  )
        30        O      tau(  30) = (  0.3168480  0.7744660  0.1690300  )
        31        O      tau(  31) = (  0.8157360  0.7324870  0.1680010  )
        32        O      tau(  32) = (  0.1842640  0.7324870  0.8319990  )
        33        O      tau(  33) = (  0.4989160  0.5077700  0.1627660  )
        34        O      tau(  34) = (  0.5010840  0.5077700  0.8372340  )
        35        O      tau(  35) = (  0.1450230  0.2756030  0.8399950  )
        36        O      tau(  36) = (  0.8549770  0.2756030  0.1600050  )
        37        O      tau(  37) = (  0.1306630  0.5042480  0.3939700  )
        38        O      tau(  38) = (  0.8693370  0.5042480  0.6060300  )
        39        O      tau(  39) = (  0.6325640  0.9990120  0.3974150  )
        40        O      tau(  40) = (  0.3674360  0.9990120  0.6025850  )
        41        H      tau(  41) = (  0.0991520  0.4958200  0.2992320  )
        42        H      tau(  42) = (  0.9008480  0.4958200  0.7007680  )
        43        H      tau(  43) = (  0.5963620  0.0126510  0.3030910  )
        44        H      tau(  44) = (  0.4036380  0.0126510  0.6969090  )

     number of k points=    20
                       cart. coord. in units 2pi/alat
        k(    1) = (   0.0000000   0.0000000   0.0000000), wk =   0.0370370
        k(    2) = (   0.0000000   0.0000000   0.1758183), wk =   0.0740741
        k(    3) = (   0.0000000   0.1920891   0.0000000), wk =   0.0740741
        k(    4) = (   0.0000000   0.1920891   0.1758183), wk =   0.1481481
        k(    5) = (   0.1666667   0.0000000   0.0300721), wk =   0.0740741
        k(    6) = (   0.1666667   0.0000000   0.2058904), wk =   0.0740741
        k(    7) = (   0.1666667   0.0000000  -0.1457462), wk =   0.0740741
        k(    8) = (   0.1666667   0.1920891   0.0300721), wk =   0.1481481
        k(    9) = (   0.1666667   0.1920891   0.2058904), wk =   0.1481481
        k(   10) = (   0.1666667   0.1920891  -0.1457462), wk =   0.1481481
        k(   11) = (   0.3333333   0.0000000   0.0601442), wk =   0.0740741
        k(   12) = (   0.3333333   0.0000000   0.2359625), wk =   0.0740741
        k(   13) = (   0.3333333   0.0000000  -0.1156742), wk =   0.0740741
        k(   14) = (   0.3333333   0.1920891   0.0601442), wk =   0.1481481
        k(   15) = (   0.3333333   0.1920891   0.2359625), wk =   0.1481481
        k(   16) = (   0.3333333   0.1920891  -0.1156742), wk =   0.1481481
        k(   17) = (  -0.5000000   0.0000000  -0.0902162), wk =   0.0370370
        k(   18) = (  -0.5000000   0.0000000   0.0856021), wk =   0.0740741
        k(   19) = (  -0.5000000   0.1920891  -0.0902162), wk =   0.0740741
        k(   20) = (  -0.5000000   0.1920891   0.0856021), wk =   0.1481481

                       cryst. coord.
        k(    1) = (   0.0000000   0.0000000   0.0000000), wk =   0.0370370
        k(    2) = (   0.0000000   0.0000000   0.3333333), wk =   0.0740741
        k(    3) = (   0.0000000   0.3333333   0.0000000), wk =   0.0740741
        k(    4) = (   0.0000000   0.3333333   0.3333333), wk =   0.1481481
        k(    5) = (   0.1666667   0.0000000  -0.0000000), wk =   0.0740741
        k(    6) = (   0.1666667   0.0000000   0.3333333), wk =   0.0740741
        k(    7) = (   0.1666667   0.0000000  -0.3333333), wk =   0.0740741
        k(    8) = (   0.1666667   0.3333333  -0.0000000), wk =   0.1481481
        k(    9) = (   0.1666667   0.3333333   0.3333333), wk =   0.1481481
        k(   10) = (   0.1666667   0.3333333  -0.3333333), wk =   0.1481481
        k(   11) = (   0.3333333   0.0000000  -0.0000000), wk =   0.0740741
        k(   12) = (   0.3333333   0.0000000   0.3333333), wk =   0.0740741
        k(   13) = (   0.3333333   0.0000000  -0.3333333), wk =   0.0740741
        k(   14) = (   0.3333333   0.3333333  -0.0000000), wk =   0.1481481
        k(   15) = (   0.3333333   0.3333333   0.3333333), wk =   0.1481481
        k(   16) = (   0.3333333   0.3333333  -0.3333333), wk =   0.1481481
        k(   17) = (  -0.5000000   0.0000000   0.0000000), wk =   0.0370370
        k(   18) = (  -0.5000000   0.0000000   0.3333333), wk =   0.0740741
        k(   19) = (  -0.5000000   0.3333333   0.0000000), wk =   0.0740741
        k(   20) = (  -0.5000000   0.3333333   0.3333333), wk =   0.1481481

     Dense  grid:   586467 G-vectors     FFT dimensions: (  72, 125, 135)

     Smooth grid:   207475 G-vectors     FFT dimensions: (  50,  90,  96)

     Dynamical RAM for                 wfc:       6.33 MB

     Dynamical RAM for     wfc (w. buffer):     132.89 MB

     Dynamical RAM for           str. fact:       6.71 MB

     Dynamical RAM for           local pot:       0.00 MB

     Dynamical RAM for          nlocal pot:      21.16 MB

     Dynamical RAM for                qrad:      10.55 MB

     Dynamical RAM for          rho,v,vnew:       6.86 MB

     Dynamical RAM for               rhoin:       2.29 MB

     Dynamical RAM for            rho*nmix:      17.90 MB

     Dynamical RAM for           G-vectors:       4.39 MB

     Dynamical RAM for          h,s,v(r/c):       3.00 MB

     Dynamical RAM for          <psi|beta>:       0.84 MB

     Dynamical RAM for                 psi:      12.66 MB

     Dynamical RAM for                hpsi:      12.66 MB

     Dynamical RAM for                spsi:      12.66 MB

     Dynamical RAM for      wfcinit/wfcrot:      18.33 MB

     Dynamical RAM for           addusdens:     234.91 MB

     Dynamical RAM for          addusforce:     287.02 MB

     Dynamical RAM for         addusstress:     224.84 MB

     Estimated static dynamical RAM per process >     198.51 MB

     Estimated max dynamical RAM per process >     503.42 MB

     Estimated total dynamical RAM >       3.93 GB

     Check: negative core charge=   -0.000004

     Initial potential from superposition of free atoms

     starting charge     255.9488, renormalised to     256.0000
     Starting wfcs are  178 randomized atomic wfcs
     Checking if some PAW data can be deallocated... 
       PAW data deallocated on    7 nodes for type:  1
       PAW data deallocated on    7 nodes for type:  2
       PAW data deallocated on    7 nodes for type:  3
       PAW data deallocated on    6 nodes for type:  4
       PAW data deallocated on    2 nodes for type:  5
       PAW data deallocated on    6 nodes for type:  6

     total cpu time spent up to now is      117.4 secs

     Self-consistent Calculation

     iteration #  1     ecut=    60.00 Ry     beta= 0.70
     Davidson diagonalization with overlap

---- Real-time Memory Report at c_bands before calling an iterative solver
           298 MiB given to the printing process from OS
             0 MiB allocation reported by mallinfo(arena+hblkhd)
          3771 MiB available memory on the node where the printing process lives
------------------
     ethr =  1.00E-02,  avg # of iterations =  2.0

     total cpu time spent up to now is      352.9 secs

     total energy              =   -2435.39330077 Ry
     estimated scf accuracy    <      13.04238224 Ry

     iteration #  2     ecut=    60.00 Ry     beta= 0.70
     Davidson diagonalization with overlap

---- Real-time Memory Report at c_bands before calling an iterative solver
           480 MiB given to the printing process from OS
             0 MiB allocation reported by mallinfo(arena+hblkhd)
          3490 MiB available memory on the node where the printing process lives
------------------
     ethr =  5.09E-03,  avg # of iterations =  5.1

     total cpu time spent up to now is      818.6 secs

     total energy              =   -2442.02283580 Ry
     estimated scf accuracy    <      11.89995796 Ry

     iteration #  3     ecut=    60.00 Ry     beta= 0.70
     Davidson diagonalization with overlap

---- Real-time Memory Report at c_bands before calling an iterative solver
           481 MiB given to the printing process from OS
             0 MiB allocation reported by mallinfo(arena+hblkhd)
          3481 MiB available memory on the node where the printing process lives
------------------
     ethr =  4.65E-03,  avg # of iterations =  2.0

     total cpu time spent up to now is     1042.3 secs

     total energy              =   -2441.08782982 Ry
     estimated scf accuracy    <       2.65999909 Ry

     iteration #  4     ecut=    60.00 Ry     beta= 0.70
     Davidson diagonalization with overlap

---- Real-time Memory Report at c_bands before calling an iterative solver
           482 MiB given to the printing process from OS
             0 MiB allocation reported by mallinfo(arena+hblkhd)
          3471 MiB available memory on the node where the printing process lives
------------------
     ethr =  1.04E-03,  avg # of iterations =  6.9

     total cpu time spent up to now is     1598.4 secs

     total energy              =   -2444.11257059 Ry
     estimated scf accuracy    <       2.73326934 Ry

     iteration #  5     ecut=    60.00 Ry     beta= 0.70
     Davidson diagonalization with overlap

---- Real-time Memory Report at c_bands before calling an iterative solver
           483 MiB given to the printing process from OS
             0 MiB allocation reported by mallinfo(arena+hblkhd)
          3464 MiB available memory on the node where the printing process lives
------------------
     ethr =  1.04E-03,  avg # of iterations =  1.1

     total cpu time spent up to now is     1791.9 secs

     total energy              =   -2443.42792254 Ry
     estimated scf accuracy    <       1.75594398 Ry

     iteration #  6     ecut=    60.00 Ry     beta= 0.70
     Davidson diagonalization with overlap

---- Real-time Memory Report at c_bands before calling an iterative solver
           483 MiB given to the printing process from OS
             0 MiB allocation reported by mallinfo(arena+hblkhd)
          3453 MiB available memory on the node where the printing process lives
------------------
     ethr =  6.86E-04,  avg # of iterations =  2.0

     total cpu time spent up to now is     2053.0 secs

     total energy              =   -2443.59096316 Ry
     estimated scf accuracy    <       0.31297392 Ry

     iteration #  7     ecut=    60.00 Ry     beta= 0.70
     Davidson diagonalization with overlap

---- Real-time Memory Report at c_bands before calling an iterative solver
           484 MiB given to the printing process from OS
             0 MiB allocation reported by mallinfo(arena+hblkhd)
          3445 MiB available memory on the node where the printing process lives
------------------
     ethr =  1.22E-04,  avg # of iterations =  5.8

     total cpu time spent up to now is     2496.6 secs

     total energy              =   -2443.82069774 Ry
     estimated scf accuracy    <       0.00526893 Ry

     iteration #  8     ecut=    60.00 Ry     beta= 0.70
     Davidson diagonalization with overlap

---- Real-time Memory Report at c_bands before calling an iterative solver
           485 MiB given to the printing process from OS
             0 MiB allocation reported by mallinfo(arena+hblkhd)
          3450 MiB available memory on the node where the printing process lives
------------------
     ethr =  2.06E-06,  avg # of iterations = 13.3

     total cpu time spent up to now is     3306.2 secs

     total energy              =   -2443.83285207 Ry
     estimated scf accuracy    <       0.01217232 Ry

     iteration #  9     ecut=    60.00 Ry     beta= 0.70
     Davidson diagonalization with overlap

---- Real-time Memory Report at c_bands before calling an iterative solver
           486 MiB given to the printing process from OS
             0 MiB allocation reported by mallinfo(arena+hblkhd)
          3438 MiB available memory on the node where the printing process lives
------------------
     ethr =  2.06E-06,  avg # of iterations =  2.0

     total cpu time spent up to now is     3527.3 secs

     total energy              =   -2443.82871682 Ry
     estimated scf accuracy    <       0.00661276 Ry

     iteration # 10     ecut=    60.00 Ry     beta= 0.70
     Davidson diagonalization with overlap

---- Real-time Memory Report at c_bands before calling an iterative solver
           487 MiB given to the printing process from OS
             0 MiB allocation reported by mallinfo(arena+hblkhd)
          3433 MiB available memory on the node where the printing process lives
------------------
     ethr =  2.06E-06,  avg # of iterations =  7.1

     total cpu time spent up to now is     4105.9 secs

     total energy              =   -2443.83322883 Ry
     estimated scf accuracy    <       0.00341783 Ry

     iteration # 11     ecut=    60.00 Ry     beta= 0.70
     Davidson diagonalization with overlap

---- Real-time Memory Report at c_bands before calling an iterative solver
           487 MiB given to the printing process from OS
             0 MiB allocation reported by mallinfo(arena+hblkhd)
          3435 MiB available memory on the node where the printing process lives
------------------
     ethr =  1.34E-06,  avg # of iterations =  2.0

     total cpu time spent up to now is     4330.6 secs

     total energy              =   -2443.83336894 Ry
     estimated scf accuracy    <       0.00294640 Ry

     iteration # 12     ecut=    60.00 Ry     beta= 0.70
     Davidson diagonalization with overlap

---- Real-time Memory Report at c_bands before calling an iterative solver
           487 MiB given to the printing process from OS
             0 MiB allocation reported by mallinfo(arena+hblkhd)
          3432 MiB available memory on the node where the printing process lives
------------------
     ethr =  1.15E-06,  avg # of iterations =  1.9

     total cpu time spent up to now is     4552.2 secs

     total energy              =   -2443.83287949 Ry
     estimated scf accuracy    <       0.00298101 Ry

     iteration # 13     ecut=    60.00 Ry     beta= 0.70
     Davidson diagonalization with overlap

---- Real-time Memory Report at c_bands before calling an iterative solver
           487 MiB given to the printing process from OS
             0 MiB allocation reported by mallinfo(arena+hblkhd)
          3413 MiB available memory on the node where the printing process lives
------------------
     ethr =  1.15E-06,  avg # of iterations =  1.0

     total cpu time spent up to now is     4749.4 secs

     total energy              =   -2443.83211615 Ry
     estimated scf accuracy    <       0.00199389 Ry

     iteration # 14     ecut=    60.00 Ry     beta= 0.70
     Davidson diagonalization with overlap

---- Real-time Memory Report at c_bands before calling an iterative solver
           487 MiB given to the printing process from OS
             0 MiB allocation reported by mallinfo(arena+hblkhd)
          3410 MiB available memory on the node where the printing process lives
------------------
     ethr =  7.79E-07,  avg # of iterations =  2.5

     total cpu time spent up to now is     5011.6 secs

     total energy              =   -2443.83245662 Ry
     estimated scf accuracy    <       0.00034818 Ry

     iteration # 15     ecut=    60.00 Ry     beta= 0.70
     Davidson diagonalization with overlap

---- Real-time Memory Report at c_bands before calling an iterative solver
           487 MiB given to the printing process from OS
             0 MiB allocation reported by mallinfo(arena+hblkhd)
          3413 MiB available memory on the node where the printing process lives
------------------
     ethr =  1.36E-07,  avg # of iterations =  4.3

     total cpu time spent up to now is     5378.2 secs

     total energy              =   -2443.83259775 Ry
     estimated scf accuracy    <       0.00007585 Ry

     iteration # 16     ecut=    60.00 Ry     beta= 0.70
     Davidson diagonalization with overlap

---- Real-time Memory Report at c_bands before calling an iterative solver
           487 MiB given to the printing process from OS
             0 MiB allocation reported by mallinfo(arena+hblkhd)
          3417 MiB available memory on the node where the printing process lives
------------------
     ethr =  2.96E-08,  avg # of iterations =  6.5

     total cpu time spent up to now is     5719.7 secs

     total energy              =   -2443.83261962 Ry
     estimated scf accuracy    <       0.00001213 Ry

     iteration # 17     ecut=    60.00 Ry     beta= 0.70
     Davidson diagonalization with overlap

---- Real-time Memory Report at c_bands before calling an iterative solver
           487 MiB given to the printing process from OS
             0 MiB allocation reported by mallinfo(arena+hblkhd)
          3416 MiB available memory on the node where the printing process lives
------------------
     ethr =  4.74E-09,  avg # of iterations = 13.6

     total cpu time spent up to now is     6722.8 secs

     total energy              =   -2443.83265985 Ry
     estimated scf accuracy    <       0.00009844 Ry

     iteration # 18     ecut=    60.00 Ry     beta= 0.70
     Davidson diagonalization with overlap

---- Real-time Memory Report at c_bands before calling an iterative solver
           487 MiB given to the printing process from OS
             0 MiB allocation reported by mallinfo(arena+hblkhd)
          3420 MiB available memory on the node where the printing process lives
------------------
     ethr =  4.74E-09,  avg # of iterations =  2.0

     total cpu time spent up to now is     6942.5 secs

     total energy              =   -2443.83264145 Ry
     estimated scf accuracy    <       0.00008626 Ry

     iteration # 19     ecut=    60.00 Ry     beta= 0.70
     Davidson diagonalization with overlap

---- Real-time Memory Report at c_bands before calling an iterative solver
           487 MiB given to the printing process from OS
             0 MiB allocation reported by mallinfo(arena+hblkhd)
          3415 MiB available memory on the node where the printing process lives
------------------
     ethr =  4.74E-09,  avg # of iterations =  4.2

     total cpu time spent up to now is     7268.8 secs

     total energy              =   -2443.83263143 Ry
     estimated scf accuracy    <       0.00004132 Ry

     iteration # 20     ecut=    60.00 Ry     beta= 0.70
     Davidson diagonalization with overlap

---- Real-time Memory Report at c_bands before calling an iterative solver
           487 MiB given to the printing process from OS
             0 MiB allocation reported by mallinfo(arena+hblkhd)
          3416 MiB available memory on the node where the printing process lives
------------------
     ethr =  4.74E-09,  avg # of iterations =  6.2

     total cpu time spent up to now is     7677.7 secs

     total energy              =   -2443.83263616 Ry
     estimated scf accuracy    <       0.00000748 Ry

     iteration # 21     ecut=    60.00 Ry     beta= 0.70
     Davidson diagonalization with overlap

---- Real-time Memory Report at c_bands before calling an iterative solver
           487 MiB given to the printing process from OS
             0 MiB allocation reported by mallinfo(arena+hblkhd)
          3419 MiB available memory on the node where the printing process lives
------------------
     ethr =  2.92E-09,  avg # of iterations =  2.0

     total cpu time spent up to now is     7921.8 secs

     total energy              =   -2443.83263845 Ry
     estimated scf accuracy    <       0.00000353 Ry

     iteration # 22     ecut=    60.00 Ry     beta= 0.70
     Davidson diagonalization with overlap

---- Real-time Memory Report at c_bands before calling an iterative solver
           487 MiB given to the printing process from OS
             0 MiB allocation reported by mallinfo(arena+hblkhd)
          3410 MiB available memory on the node where the printing process lives
------------------
     ethr =  1.38E-09,  avg # of iterations =  2.0

     total cpu time spent up to now is     8177.8 secs

     total energy              =   -2443.83263919 Ry
     estimated scf accuracy    <       0.00000567 Ry

     iteration # 23     ecut=    60.00 Ry     beta= 0.70
     Davidson diagonalization with overlap

---- Real-time Memory Report at c_bands before calling an iterative solver
           487 MiB given to the printing process from OS
             0 MiB allocation reported by mallinfo(arena+hblkhd)
          3408 MiB available memory on the node where the printing process lives
------------------
     ethr =  1.38E-09,  avg # of iterations =  2.0

     total cpu time spent up to now is     8405.4 secs

     total energy              =   -2443.83263672 Ry
     estimated scf accuracy    <       0.00000710 Ry

     iteration # 24     ecut=    60.00 Ry     beta= 0.70
     Davidson diagonalization with overlap

---- Real-time Memory Report at c_bands before calling an iterative solver
           487 MiB given to the printing process from OS
             0 MiB allocation reported by mallinfo(arena+hblkhd)
          3409 MiB available memory on the node where the printing process lives
------------------
     ethr =  1.38E-09,  avg # of iterations =  5.0

     total cpu time spent up to now is     8676.9 secs

     total energy              =   -2443.83263637 Ry
     estimated scf accuracy    <       0.00000246 Ry

     iteration # 25     ecut=    60.00 Ry     beta= 0.70
     Davidson diagonalization with overlap

---- Real-time Memory Report at c_bands before calling an iterative solver
           487 MiB given to the printing process from OS
             0 MiB allocation reported by mallinfo(arena+hblkhd)
          3404 MiB available memory on the node where the printing process lives
------------------
     ethr =  9.61E-10,  avg # of iterations =  4.6

     total cpu time spent up to now is     9008.7 secs

     End of self-consistent calculation

          k = 0.0000 0.0000 0.0000 ( 25927 PWs)   bands (ev):

   -67.6768 -67.6744 -67.5621 -67.1938 -67.1013 -67.0940 -34.4535 -34.4347
   -34.4305 -34.4236 -34.4149 -34.4127 -34.3246 -34.3220 -34.2961 -33.9516
   -33.9456 -33.9434 -33.8745 -33.8736 -33.8596 -33.8413 -33.8334 -33.8145
   -23.2027 -23.1843 -15.2396 -15.1868 -14.2949 -14.2503 -13.7839 -13.7604
   -13.5416 -13.4338 -13.3951 -13.2192 -13.0227 -12.9787 -12.9735 -12.9627
   -12.8834 -12.7748 -12.6106 -12.5356 -12.4317 -12.4039 -12.3362 -12.1997
   -11.1764 -10.9318  -6.7742  -6.7484  -6.6959  -6.6886  -6.6612  -6.6571
    -4.4401  -4.3818  -2.5682  -2.4725  -1.9368  -1.4528  -1.2984  -1.2930
    -1.2446  -1.1601  -0.7792  -0.7049  -0.5884  -0.4982  -0.4973  -0.2901
    -0.0998  -0.0045   0.1202   0.3620   0.4424   0.4691   0.5684   0.7457
     0.7766   1.0190   1.2009   1.2171   1.2827   1.4054   1.4288   1.5301
     1.7500   1.7531   1.8694   1.9555   1.9590   2.1129   2.1382   2.2002
     2.3147   2.3644   2.5046   2.5172   2.5946   2.6331   2.7396   2.7797
     2.7953   2.8885   2.9082   2.9935   3.1162   3.1792   3.2181   3.2918
     3.3371   3.3852   3.4686   3.4835   3.5409   3.6523   3.7176   3.7249
     3.7846   3.8283   3.8323   4.0167   4.0460   4.2160   4.3814   4.4989

     occupation numbers 
     1.0000   1.0000   1.0000   1.0000   1.0000   1.0000   1.0000   1.0000
     1.0000   1.0000   1.0000   1.0000   1.0000   1.0000   1.0000   1.0000
     1.0000   1.0000   1.0000   1.0000   1.0000   1.0000   1.0000   1.0000
     1.0000   1.0000   1.0000   1.0000   1.0000   1.0000   1.0000   1.0000
     1.0000   1.0000   1.0000   1.0000   1.0000   1.0000   1.0000   1.0000
     1.0000   1.0000   1.0000   1.0000   1.0000   1.0000   1.0000   1.0000
     1.0000   1.0000   1.0000   1.0000   1.0000   1.0000   1.0000   1.0000
     1.0000   1.0000   1.0000   1.0000   1.0000   1.0000   1.0000   1.0000
     1.0000   1.0000   1.0000   1.0000   1.0000   1.0000   1.0000   1.0000
     1.0000   1.0000   1.0000   1.0000   1.0000   1.0000   1.0000   1.0000
     1.0000   1.0000   1.0000   1.0000   1.0000   1.0000   1.0000   1.0000
     1.0000   1.0000   1.0000   1.0000   1.0000   1.0000   1.0000   1.0000
     1.0000   1.0000   1.0000   1.0000   1.0000   1.0000   1.0000   1.0000
     1.0000   1.0000   1.0000   1.0000   1.0000   1.0000   1.0000   1.0000
     1.0000   1.0000   1.0000   1.0000   1.0000   1.0000   1.0000   1.0000
     1.0000   1.0000   1.0000   1.0000   1.0000   1.0000   1.0000   1.0000

          k = 0.0000 0.0000 0.1758 ( 25971 PWs)   bands (ev):

   -67.6768 -67.6744 -67.5621 -67.1938 -67.1013 -67.0940 -34.4535 -34.4348
   -34.4305 -34.4237 -34.4149 -34.4128 -34.3246 -34.3220 -34.2961 -33.9516
   -33.9456 -33.9435 -33.8745 -33.8736 -33.8596 -33.8413 -33.8334 -33.8145
   -23.2027 -23.1843 -15.2268 -15.2003 -14.2844 -14.2613 -13.7843 -13.7600
   -13.5296 -13.4542 -13.3877 -13.2151 -13.0241 -12.9834 -12.9726 -12.9617
   -12.8774 -12.7790 -12.6038 -12.5423 -12.4344 -12.4005 -12.3301 -12.2062
   -11.1761 -10.9325  -6.7743  -6.7485  -6.6959  -6.6885  -6.6611  -6.6571
    -4.4360  -4.3863  -2.5462  -2.4985  -1.9041  -1.4382  -1.3213  -1.2670
    -1.2368  -1.1837  -0.7536  -0.7175  -0.6197  -0.5069  -0.4737  -0.3896
    -0.0705   0.0239   0.0679   0.3123   0.4336   0.4378   0.5937   0.7744
     0.8160   1.0980   1.1289   1.2421   1.3104   1.3564   1.4641   1.5915
     1.7628   1.7798   1.9435   1.9549   2.0020   2.1172   2.1496   2.1946
     2.2748   2.3262   2.4859   2.5084   2.5663   2.6124   2.6873   2.7261
     2.7553   2.9556   2.9902   2.9986   3.0230   3.1915   3.2341   3.2833
     3.3146   3.3323   3.4610   3.5664   3.6055   3.6403   3.7039   3.7314
     3.7533   3.7874   3.8099   4.0403   4.0545   4.2189   4.3797   4.5018

     occupation numbers 
     1.0000   1.0000   1.0000   1.0000   1.0000   1.0000   1.0000   1.0000
     1.0000   1.0000   1.0000   1.0000   1.0000   1.0000   1.0000   1.0000
     1.0000   1.0000   1.0000   1.0000   1.0000   1.0000   1.0000   1.0000
     1.0000   1.0000   1.0000   1.0000   1.0000   1.0000   1.0000   1.0000
     1.0000   1.0000   1.0000   1.0000   1.0000   1.0000   1.0000   1.0000
     1.0000   1.0000   1.0000   1.0000   1.0000   1.0000   1.0000   1.0000
     1.0000   1.0000   1.0000   1.0000   1.0000   1.0000   1.0000   1.0000
     1.0000   1.0000   1.0000   1.0000   1.0000   1.0000   1.0000   1.0000
     1.0000   1.0000   1.0000   1.0000   1.0000   1.0000   1.0000   1.0000
     1.0000   1.0000   1.0000   1.0000   1.0000   1.0000   1.0000   1.0000
     1.0000   1.0000   1.0000   1.0000   1.0000   1.0000   1.0000   1.0000
     1.0000   1.0000   1.0000   1.0000   1.0000   1.0000   1.0000   1.0000
     1.0000   1.0000   1.0000   1.0000   1.0000   1.0000   1.0000   1.0000
     1.0000   1.0000   1.0000   1.0000   1.0000   1.0000   1.0000   1.0000
     1.0000   1.0000   1.0000   1.0000   1.0000   1.0000   1.0000   1.0000
     1.0000   1.0000   1.0000   1.0000   1.0000   1.0000   1.0000   1.0000

          k = 0.0000 0.1921 0.0000 ( 25933 PWs)   bands (ev):

   -67.6768 -67.6744 -67.5621 -67.1938 -67.1013 -67.0940 -34.4535 -34.4348
   -34.4305 -34.4237 -34.4149 -34.4128 -34.3245 -34.3220 -34.2961 -33.9516
   -33.9456 -33.9435 -33.8745 -33.8736 -33.8596 -33.8413 -33.8334 -33.8145
   -23.2026 -23.1843 -15.2346 -15.1818 -14.3283 -14.2805 -13.7840 -13.7605
   -13.4550 -13.3779 -13.3290 -13.2389 -13.0814 -13.0455 -13.0146 -12.9545
   -12.8899 -12.7717 -12.6010 -12.5317 -12.4314 -12.4037 -12.3307 -12.1965
   -11.1751 -10.9313  -6.7704  -6.7526  -6.6954  -6.6864  -6.6630  -6.6579
    -4.4004  -4.3413  -2.7156  -2.6121  -1.8870  -1.4946  -1.2380  -1.2349
    -1.1273  -1.0805  -0.8579  -0.7735  -0.6042  -0.4314  -0.4115  -0.2722
    -0.1934   0.0353   0.1039   0.3294   0.3991   0.4483   0.5766   0.7520
     0.7830   1.0293   1.0941   1.2025   1.2811   1.4159   1.4522   1.5825
     1.8035   1.8040   1.8350   1.9461   2.0284   2.1098   2.2103   2.2731
     2.2844   2.3627   2.4286   2.5444   2.5824   2.6775   2.7393   2.7733
     2.8304   2.8978   2.9463   3.0100   3.1411   3.1845   3.2622   3.2751
     3.3476   3.3639   3.3732   3.4769   3.5535   3.5831   3.6982   3.7139
     3.7972   3.8044   3.8320   3.9979   4.0551   4.1845   4.1994   4.4961

     occupation numbers 
     1.0000   1.0000   1.0000   1.0000   1.0000   1.0000   1.0000   1.0000
     1.0000   1.0000   1.0000   1.0000   1.0000   1.0000   1.0000   1.0000
     1.0000   1.0000   1.0000   1.0000   1.0000   1.0000   1.0000   1.0000
     1.0000   1.0000   1.0000   1.0000   1.0000   1.0000   1.0000   1.0000
     1.0000   1.0000   1.0000   1.0000   1.0000   1.0000   1.0000   1.0000
     1.0000   1.0000   1.0000   1.0000   1.0000   1.0000   1.0000   1.0000
     1.0000   1.0000   1.0000   1.0000   1.0000   1.0000   1.0000   1.0000
     1.0000   1.0000   1.0000   1.0000   1.0000   1.0000   1.0000   1.0000
     1.0000   1.0000   1.0000   1.0000   1.0000   1.0000   1.0000   1.0000
     1.0000   1.0000   1.0000   1.0000   1.0000   1.0000   1.0000   1.0000
     1.0000   1.0000   1.0000   1.0000   1.0000   1.0000   1.0000   1.0000
     1.0000   1.0000   1.0000   1.0000   1.0000   1.0000   1.0000   1.0000
     1.0000   1.0000   1.0000   1.0000   1.0000   1.0000   1.0000   1.0000
     1.0000   1.0000   1.0000   1.0000   1.0000   1.0000   1.0000   1.0000
     1.0000   1.0000   1.0000   1.0000   1.0000   1.0000   1.0000   1.0000
     1.0000   1.0000   1.0000   1.0000   1.0000   1.0000   1.0000   1.0000

          k = 0.0000 0.1921 0.1758 ( 25924 PWs)   bands (ev):

   -67.6768 -67.6744 -67.5621 -67.1938 -67.1013 -67.0940 -34.4535 -34.4348
   -34.4305 -34.4236 -34.4149 -34.4128 -34.3245 -34.3220 -34.2961 -33.9516
   -33.9456 -33.9435 -33.8745 -33.8736 -33.8596 -33.8413 -33.8334 -33.8145
   -23.2026 -23.1843 -15.2218 -15.1954 -14.3167 -14.2928 -13.7845 -13.7600
   -13.4478 -13.3710 -13.3472 -13.2295 -13.0963 -13.0298 -13.0160 -12.9571
   -12.8867 -12.7760 -12.5945 -12.5382 -12.4341 -12.4003 -12.3242 -12.2029
   -11.1748 -10.9319  -6.7704  -6.7526  -6.6954  -6.6863  -6.6629  -6.6579
    -4.3938  -4.3484  -2.6923  -2.6379  -1.8588  -1.4827  -1.2374  -1.2325
    -1.1267  -1.0862  -0.8383  -0.7943  -0.6200  -0.4585  -0.4000  -0.3475
    -0.1472   0.0292   0.0485   0.3150   0.3985   0.4060   0.6151   0.7509
     0.8415   0.9983   1.0754   1.2598   1.3304   1.4156   1.5481   1.6102
     1.7511   1.8324   1.8878   1.9300   2.0060   2.1424   2.2110   2.2514
     2.3063   2.3439   2.4004   2.5067   2.5850   2.6425   2.7028   2.7508
     2.8207   2.9289   2.9496   3.0636   3.0924   3.1324   3.2456   3.2859
     3.3043   3.3522   3.4293   3.5043   3.5420   3.6370   3.6796   3.7175
     3.7594   3.7959   3.8190   3.9913   4.0643   4.1980   4.2183   4.4995

     occupation numbers 
     1.0000   1.0000   1.0000   1.0000   1.0000   1.0000   1.0000   1.0000
     1.0000   1.0000   1.0000   1.0000   1.0000   1.0000   1.0000   1.0000
     1.0000   1.0000   1.0000   1.0000   1.0000   1.0000   1.0000   1.0000
     1.0000   1.0000   1.0000   1.0000   1.0000   1.0000   1.0000   1.0000
     1.0000   1.0000   1.0000   1.0000   1.0000   1.0000   1.0000   1.0000
     1.0000   1.0000   1.0000   1.0000   1.0000   1.0000   1.0000   1.0000
     1.0000   1.0000   1.0000   1.0000   1.0000   1.0000   1.0000   1.0000
     1.0000   1.0000   1.0000   1.0000   1.0000   1.0000   1.0000   1.0000
     1.0000   1.0000   1.0000   1.0000   1.0000   1.0000   1.0000   1.0000
     1.0000   1.0000   1.0000   1.0000   1.0000   1.0000   1.0000   1.0000
     1.0000   1.0000   1.0000   1.0000   1.0000   1.0000   1.0000   1.0000
     1.0000   1.0000   1.0000   1.0000   1.0000   1.0000   1.0000   1.0000
     1.0000   1.0000   1.0000   1.0000   1.0000   1.0000   1.0000   1.0000
     1.0000   1.0000   1.0000   1.0000   1.0000   1.0000   1.0000   1.0000
     1.0000   1.0000   1.0000   1.0000   1.0000   1.0000   1.0000   1.0000
     1.0000   1.0000   1.0000   1.0000   1.0000   1.0000   1.0000   1.0000

          k = 0.1667 0.0000 0.0301 ( 25941 PWs)   bands (ev):

   -67.6767 -67.6745 -67.5621 -67.1938 -67.1012 -67.0940 -34.4528 -34.4369
   -34.4292 -34.4234 -34.4150 -34.4128 -34.3245 -34.3220 -34.2962 -33.9514
   -33.9458 -33.9434 -33.8768 -33.8705 -33.8602 -33.8407 -33.8337 -33.8150
   -23.2025 -23.1842 -15.1811 -15.1295 -14.3142 -14.2722 -13.8952 -13.8648
   -13.4743 -13.3723 -13.3407 -13.2041 -13.0322 -13.0100 -12.9665 -12.9534
   -12.8758 -12.7822 -12.6278 -12.5533 -12.4921 -12.4427 -12.3166 -12.1887
   -11.1730 -10.9366  -6.7740  -6.7526  -6.6945  -6.6868  -6.6614  -6.6539
    -4.2829  -4.2213  -2.5361  -2.4394  -1.9414  -1.5862  -1.5370  -1.4177
    -1.0336  -0.9584  -0.7956  -0.7565  -0.5800  -0.4764  -0.4499  -0.2851
    -0.0958   0.0052   0.1015   0.3464   0.3817   0.5028   0.5165   0.6510
     0.9366   1.0568   1.1539   1.2216   1.2434   1.3453   1.4370   1.5063
     1.6360   1.7807   1.8110   1.9125   1.9566   2.1442   2.1775   2.2567
     2.3267   2.3832   2.4939   2.5526   2.5788   2.5981   2.7436   2.7502
     2.8256   2.8630   2.9509   3.0303   3.0790   3.1118   3.2183   3.2404
     3.3260   3.3870   3.4485   3.5265   3.5531   3.6355   3.6742   3.7250
     3.7434   3.7878   3.8363   3.9522   4.0150   4.2223   4.3712   4.4099

     occupation numbers 
     1.0000   1.0000   1.0000   1.0000   1.0000   1.0000   1.0000   1.0000
     1.0000   1.0000   1.0000   1.0000   1.0000   1.0000   1.0000   1.0000
     1.0000   1.0000   1.0000   1.0000   1.0000   1.0000   1.0000   1.0000
     1.0000   1.0000   1.0000   1.0000   1.0000   1.0000   1.0000   1.0000
     1.0000   1.0000   1.0000   1.0000   1.0000   1.0000   1.0000   1.0000
     1.0000   1.0000   1.0000   1.0000   1.0000   1.0000   1.0000   1.0000
     1.0000   1.0000   1.0000   1.0000   1.0000   1.0000   1.0000   1.0000
     1.0000   1.0000   1.0000   1.0000   1.0000   1.0000   1.0000   1.0000
     1.0000   1.0000   1.0000   1.0000   1.0000   1.0000   1.0000   1.0000
     1.0000   1.0000   1.0000   1.0000   1.0000   1.0000   1.0000   1.0000
     1.0000   1.0000   1.0000   1.0000   1.0000   1.0000   1.0000   1.0000
     1.0000   1.0000   1.0000   1.0000   1.0000   1.0000   1.0000   1.0000
     1.0000   1.0000   1.0000   1.0000   1.0000   1.0000   1.0000   1.0000
     1.0000   1.0000   1.0000   1.0000   1.0000   1.0000   1.0000   1.0000
     1.0000   1.0000   1.0000   1.0000   1.0000   1.0000   1.0000   1.0000
     1.0000   1.0000   1.0000   1.0000   1.0000   1.0000   1.0000   1.0000

          k = 0.1667 0.0000 0.2059 ( 25961 PWs)   bands (ev):

   -67.6767 -67.6745 -67.5621 -67.1938 -67.1012 -67.0940 -34.4528 -34.4369
   -34.4292 -34.4234 -34.4150 -34.4128 -34.3246 -34.3220 -34.2962 -33.9514
   -33.9458 -33.9434 -33.8768 -33.8705 -33.8602 -33.8407 -33.8337 -33.8150
   -23.2025 -23.1842 -15.1651 -15.1464 -14.3052 -14.2817 -13.8919 -13.8682
   -13.4628 -13.3890 -13.3371 -13.1991 -13.0322 -13.0059 -12.9827 -12.9450
   -12.8704 -12.7863 -12.6215 -12.5620 -12.4837 -12.4494 -12.3075 -12.1967
   -11.1726 -10.9375  -6.7740  -6.7526  -6.6945  -6.6868  -6.6613  -6.6539
    -4.2841  -4.2203  -2.5164  -2.4636  -1.9061  -1.6262  -1.5027  -1.4050
    -1.0316  -0.9625  -0.8006  -0.7493  -0.5840  -0.4742  -0.4443  -0.3981
    -0.0530   0.0404   0.0518   0.2791   0.3687   0.4848   0.5012   0.7116
     0.9967   1.0744   1.1263   1.2310   1.2606   1.3465   1.4636   1.5272
     1.6933   1.7641   1.8274   1.9131   2.0538   2.1586   2.1899   2.2510
     2.2952   2.3828   2.4452   2.4783   2.5563   2.6031   2.7082   2.7218
     2.7902   2.8902   2.9952   3.0495   3.0748   3.1165   3.1581   3.2145
     3.3319   3.3705   3.4461   3.5771   3.5976   3.6436   3.6728   3.7050
     3.7434   3.7546   3.7944   3.9640   4.0478   4.2117   4.3719   4.4292

     occupation numbers 
     1.0000   1.0000   1.0000   1.0000   1.0000   1.0000   1.0000   1.0000
     1.0000   1.0000   1.0000   1.0000   1.0000   1.0000   1.0000   1.0000
     1.0000   1.0000   1.0000   1.0000   1.0000   1.0000   1.0000   1.0000
     1.0000   1.0000   1.0000   1.0000   1.0000   1.0000   1.0000   1.0000
     1.0000   1.0000   1.0000   1.0000   1.0000   1.0000   1.0000   1.0000
     1.0000   1.0000   1.0000   1.0000   1.0000   1.0000   1.0000   1.0000
     1.0000   1.0000   1.0000   1.0000   1.0000   1.0000   1.0000   1.0000
     1.0000   1.0000   1.0000   1.0000   1.0000   1.0000   1.0000   1.0000
     1.0000   1.0000   1.0000   1.0000   1.0000   1.0000   1.0000   1.0000
     1.0000   1.0000   1.0000   1.0000   1.0000   1.0000   1.0000   1.0000
     1.0000   1.0000   1.0000   1.0000   1.0000   1.0000   1.0000   1.0000
     1.0000   1.0000   1.0000   1.0000   1.0000   1.0000   1.0000   1.0000
     1.0000   1.0000   1.0000   1.0000   1.0000   1.0000   1.0000   1.0000
     1.0000   1.0000   1.0000   1.0000   1.0000   1.0000   1.0000   1.0000
     1.0000   1.0000   1.0000   1.0000   1.0000   1.0000   1.0000   1.0000
     1.0000   1.0000   1.0000   1.0000   1.0000   1.0000   1.0000   1.0000

          k = 0.1667 0.0000-0.1457 ( 25956 PWs)   bands (ev):

   -67.6767 -67.6745 -67.5621 -67.1938 -67.1012 -67.0940 -34.4528 -34.4369
   -34.4292 -34.4234 -34.4150 -34.4128 -34.3246 -34.3220 -34.2962 -33.9514
   -33.9458 -33.9434 -33.8768 -33.8705 -33.8602 -33.8407 -33.8337 -33.8150
   -23.2025 -23.1842 -15.1721 -15.1391 -14.3061 -14.2808 -13.8907 -13.8694
   -13.4676 -13.3745 -13.3475 -13.2001 -13.0322 -13.0042 -12.9820 -12.9444
   -12.8730 -12.7866 -12.6180 -12.5646 -12.4738 -12.4596 -12.3078 -12.1956
   -11.1724 -10.9374  -6.7741  -6.7527  -6.6945  -6.6868  -6.6613  -6.6539
    -4.2672  -4.2376  -2.5128  -2.4655  -1.9200  -1.6197  -1.5062  -1.4084
    -1.0165  -0.9820  -0.7708  -0.7455  -0.6023  -0.4743  -0.4598  -0.3679
    -0.0913   0.0412   0.0659   0.2931   0.3983   0.4832   0.5540   0.6931
     0.9457   1.0627   1.1029   1.2257   1.2878   1.3770   1.4641   1.4935
     1.6891   1.7485   1.8639   1.8746   2.0042   2.1238   2.1992   2.2303
     2.3107   2.3857   2.4603   2.5294   2.5443   2.6282   2.6860   2.7734
     2.8023   2.8804   2.9919   3.0445   3.0949   3.1132   3.1695   3.2841
     3.3440   3.3566   3.4660   3.5150   3.5908   3.5973   3.6351   3.7158
     3.7436   3.7633   3.8051   3.9484   4.0726   4.2109   4.3759   4.4213

     occupation numbers 
     1.0000   1.0000   1.0000   1.0000   1.0000   1.0000   1.0000   1.0000
     1.0000   1.0000   1.0000   1.0000   1.0000   1.0000   1.0000   1.0000
     1.0000   1.0000   1.0000   1.0000   1.0000   1.0000   1.0000   1.0000
     1.0000   1.0000   1.0000   1.0000   1.0000   1.0000   1.0000   1.0000
     1.0000   1.0000   1.0000   1.0000   1.0000   1.0000   1.0000   1.0000
     1.0000   1.0000   1.0000   1.0000   1.0000   1.0000   1.0000   1.0000
     1.0000   1.0000   1.0000   1.0000   1.0000   1.0000   1.0000   1.0000
     1.0000   1.0000   1.0000   1.0000   1.0000   1.0000   1.0000   1.0000
     1.0000   1.0000   1.0000   1.0000   1.0000   1.0000   1.0000   1.0000
     1.0000   1.0000   1.0000   1.0000   1.0000   1.0000   1.0000   1.0000
     1.0000   1.0000   1.0000   1.0000   1.0000   1.0000   1.0000   1.0000
     1.0000   1.0000   1.0000   1.0000   1.0000   1.0000   1.0000   1.0000
     1.0000   1.0000   1.0000   1.0000   1.0000   1.0000   1.0000   1.0000
     1.0000   1.0000   1.0000   1.0000   1.0000   1.0000   1.0000   1.0000
     1.0000   1.0000   1.0000   1.0000   1.0000   1.0000   1.0000   1.0000
     1.0000   1.0000   1.0000   1.0000   1.0000   1.0000   1.0000   1.0000

          k = 0.1667 0.1921 0.0301 ( 25937 PWs)   bands (ev):

   -67.6767 -67.6745 -67.5621 -67.1938 -67.1012 -67.0940 -34.4528 -34.4369
   -34.4292 -34.4234 -34.4150 -34.4128 -34.3245 -34.3220 -34.2962 -33.9514
   -33.9458 -33.9434 -33.8768 -33.8705 -33.8602 -33.8407 -33.8337 -33.8150
   -23.2025 -23.1842 -15.1765 -15.1248 -14.3434 -14.2982 -13.8832 -13.8559
   -13.4184 -13.3498 -13.2771 -13.2049 -13.0659 -13.0461 -13.0257 -12.9548
   -12.8912 -12.7789 -12.6213 -12.5416 -12.4877 -12.4463 -12.3136 -12.1868
   -11.1720 -10.9363  -6.7710  -6.7561  -6.6943  -6.6851  -6.6626  -6.6544
    -4.2463  -4.1841  -2.6963  -2.5935  -1.8663  -1.4704  -1.4461  -1.4114
    -1.0244  -0.9626  -0.8872  -0.7228  -0.5842  -0.4089  -0.3872  -0.2534
    -0.1431   0.0027   0.0752   0.3061   0.3648   0.4728   0.5335   0.6229
     0.9531   0.9896   1.1495   1.2013   1.2582   1.3399   1.4177   1.5421
     1.6586   1.7625   1.7853   1.9470   2.0325   2.1563   2.2012   2.2561
     2.3326   2.3831   2.4430   2.5898   2.5941   2.7060   2.7258   2.7960
     2.8426   2.8987   2.9899   3.0355   3.0865   3.1451   3.2073   3.2534
     3.3077   3.3459   3.4143   3.4949   3.5533   3.5686   3.6360   3.6987
     3.7239   3.7534   3.8554   3.9655   3.9992   4.1796   4.2559   4.4425

     occupation numbers 
     1.0000   1.0000   1.0000   1.0000   1.0000   1.0000   1.0000   1.0000
     1.0000   1.0000   1.0000   1.0000   1.0000   1.0000   1.0000   1.0000
     1.0000   1.0000   1.0000   1.0000   1.0000   1.0000   1.0000   1.0000
     1.0000   1.0000   1.0000   1.0000   1.0000   1.0000   1.0000   1.0000
     1.0000   1.0000   1.0000   1.0000   1.0000   1.0000   1.0000   1.0000
     1.0000   1.0000   1.0000   1.0000   1.0000   1.0000   1.0000   1.0000
     1.0000   1.0000   1.0000   1.0000   1.0000   1.0000   1.0000   1.0000
     1.0000   1.0000   1.0000   1.0000   1.0000   1.0000   1.0000   1.0000
     1.0000   1.0000   1.0000   1.0000   1.0000   1.0000   1.0000   1.0000
     1.0000   1.0000   1.0000   1.0000   1.0000   1.0000   1.0000   1.0000
     1.0000   1.0000   1.0000   1.0000   1.0000   1.0000   1.0000   1.0000
     1.0000   1.0000   1.0000   1.0000   1.0000   1.0000   1.0000   1.0000
     1.0000   1.0000   1.0000   1.0000   1.0000   1.0000   1.0000   1.0000
     1.0000   1.0000   1.0000   1.0000   1.0000   1.0000   1.0000   1.0000
     1.0000   1.0000   1.0000   1.0000   1.0000   1.0000   1.0000   1.0000
     1.0000   1.0000   1.0000   1.0000   1.0000   1.0000   1.0000   1.0000

          k = 0.1667 0.1921 0.2059 ( 25944 PWs)   bands (ev):

   -67.6767 -67.6745 -67.5621 -67.1938 -67.1012 -67.0940 -34.4528 -34.4370
   -34.4292 -34.4234 -34.4150 -34.4128 -34.3245 -34.3220 -34.2962 -33.9514
   -33.9457 -33.9434 -33.8768 -33.8705 -33.8602 -33.8407 -33.8337 -33.8150
   -23.2025 -23.1842 -15.1604 -15.1417 -14.3319 -14.3105 -13.8817 -13.8575
   -13.4117 -13.3429 -13.2971 -13.1926 -13.0814 -13.0318 -13.0278 -12.9540
   -12.8887 -12.7835 -12.6160 -12.5496 -12.4823 -12.4499 -12.3045 -12.1947
   -11.1716 -10.9370  -6.7711  -6.7561  -6.6943  -6.6850  -6.6625  -6.6544
    -4.2445  -4.1860  -2.6720  -2.6206  -1.8391  -1.4716  -1.4553  -1.3893
    -1.0298  -0.9571  -0.8877  -0.7177  -0.5883  -0.4700  -0.3651  -0.3120
    -0.1010  -0.0124   0.0567   0.2739   0.3413   0.4556   0.5160   0.6745
     0.9583   0.9964   1.1261   1.2710   1.2833   1.3598   1.4657   1.6038
     1.6794   1.7283   1.7898   1.9279   2.0615   2.1497   2.2315   2.2780
     2.3404   2.3770   2.4030   2.5074   2.5938   2.6767   2.7158   2.7561
     2.8444   2.9100   3.0112   3.0319   3.0926   3.1222   3.1800   3.2385
     3.2797   3.3648   3.4524   3.4862   3.5399   3.6040   3.6312   3.6830
     3.7097   3.7828   3.8185   3.9759   4.0186   4.1803   4.2654   4.4546

     occupation numbers 
     1.0000   1.0000   1.0000   1.0000   1.0000   1.0000   1.0000   1.0000
     1.0000   1.0000   1.0000   1.0000   1.0000   1.0000   1.0000   1.0000
     1.0000   1.0000   1.0000   1.0000   1.0000   1.0000   1.0000   1.0000
     1.0000   1.0000   1.0000   1.0000   1.0000   1.0000   1.0000   1.0000
     1.0000   1.0000   1.0000   1.0000   1.0000   1.0000   1.0000   1.0000
     1.0000   1.0000   1.0000   1.0000   1.0000   1.0000   1.0000   1.0000
     1.0000   1.0000   1.0000   1.0000   1.0000   1.0000   1.0000   1.0000
     1.0000   1.0000   1.0000   1.0000   1.0000   1.0000   1.0000   1.0000
     1.0000   1.0000   1.0000   1.0000   1.0000   1.0000   1.0000   1.0000
     1.0000   1.0000   1.0000   1.0000   1.0000   1.0000   1.0000   1.0000
     1.0000   1.0000   1.0000   1.0000   1.0000   1.0000   1.0000   1.0000
     1.0000   1.0000   1.0000   1.0000   1.0000   1.0000   1.0000   1.0000
     1.0000   1.0000   1.0000   1.0000   1.0000   1.0000   1.0000   1.0000
     1.0000   1.0000   1.0000   1.0000   1.0000   1.0000   1.0000   1.0000
     1.0000   1.0000   1.0000   1.0000   1.0000   1.0000   1.0000   1.0000
     1.0000   1.0000   1.0000   1.0000   1.0000   1.0000   1.0000   1.0000

          k = 0.1667 0.1921-0.1457 ( 25923 PWs)   bands (ev):

   -67.6767 -67.6745 -67.5621 -67.1938 -67.1012 -67.0940 -34.4528 -34.4369
   -34.4292 -34.4234 -34.4150 -34.4128 -34.3245 -34.3220 -34.2962 -33.9514
   -33.9457 -33.9434 -33.8768 -33.8705 -33.8602 -33.8407 -33.8337 -33.8150
   -23.2025 -23.1842 -15.1674 -15.1345 -14.3343 -14.3079 -13.8792 -13.8601
   -13.4146 -13.3423 -13.2920 -13.1976 -13.0779 -13.0366 -13.0249 -12.9561
   -12.8880 -12.7832 -12.6120 -12.5518 -12.4744 -12.4591 -12.3048 -12.1938
   -11.1714 -10.9370  -6.7711  -6.7562  -6.6943  -6.6850  -6.6625  -6.6544
    -4.2289  -4.2021  -2.6723  -2.6198  -1.8492  -1.4768  -1.4546  -1.3880
    -1.0072  -0.9833  -0.8548  -0.7297  -0.6132  -0.4316  -0.3727  -0.3070
    -0.1320  -0.0006   0.0415   0.3048   0.3642   0.4488   0.5705   0.6608
     0.9397   0.9647   1.1133   1.2396   1.2887   1.3837   1.4623   1.5684
     1.6875   1.7291   1.7867   1.9495   2.0432   2.1120   2.2194   2.2714
     2.3184   2.3835   2.4164   2.5352   2.6402   2.6653   2.6856   2.7840
     2.8676   2.9288   2.9934   3.0585   3.0850   3.1184   3.1984   3.2704
     3.3095   3.3550   3.4330   3.4908   3.5362   3.5958   3.6250   3.6684
     3.7183   3.7586   3.7883   3.9734   4.0417   4.1729   4.2644   4.4480

     occupation numbers 
     1.0000   1.0000   1.0000   1.0000   1.0000   1.0000   1.0000   1.0000
     1.0000   1.0000   1.0000   1.0000   1.0000   1.0000   1.0000   1.0000
     1.0000   1.0000   1.0000   1.0000   1.0000   1.0000   1.0000   1.0000
     1.0000   1.0000   1.0000   1.0000   1.0000   1.0000   1.0000   1.0000
     1.0000   1.0000   1.0000   1.0000   1.0000   1.0000   1.0000   1.0000
     1.0000   1.0000   1.0000   1.0000   1.0000   1.0000   1.0000   1.0000
     1.0000   1.0000   1.0000   1.0000   1.0000   1.0000   1.0000   1.0000
     1.0000   1.0000   1.0000   1.0000   1.0000   1.0000   1.0000   1.0000
     1.0000   1.0000   1.0000   1.0000   1.0000   1.0000   1.0000   1.0000
     1.0000   1.0000   1.0000   1.0000   1.0000   1.0000   1.0000   1.0000
     1.0000   1.0000   1.0000   1.0000   1.0000   1.0000   1.0000   1.0000
     1.0000   1.0000   1.0000   1.0000   1.0000   1.0000   1.0000   1.0000
     1.0000   1.0000   1.0000   1.0000   1.0000   1.0000   1.0000   1.0000
     1.0000   1.0000   1.0000   1.0000   1.0000   1.0000   1.0000   1.0000
     1.0000   1.0000   1.0000   1.0000   1.0000   1.0000   1.0000   1.0000
     1.0000   1.0000   1.0000   1.0000   1.0000   1.0000   1.0000   1.0000

          k = 0.3333 0.0000 0.0601 ( 25907 PWs)   bands (ev):

   -67.6764 -67.6747 -67.5621 -67.1938 -67.1012 -67.0941 -34.4509 -34.4404
   -34.4277 -34.4228 -34.4149 -34.4132 -34.3244 -34.3221 -34.2962 -33.9510
   -33.9462 -33.9434 -33.8780 -33.8674 -33.8616 -33.8392 -33.8349 -33.8159
   -23.2022 -23.1839 -15.0206 -14.9726 -14.4384 -14.4009 -14.0129 -13.9776
   -13.3727 -13.2754 -13.2113 -13.1785 -13.0669 -13.0569 -12.9854 -12.9556
   -12.8816 -12.7889 -12.6851 -12.6247 -12.5647 -12.4810 -12.2965 -12.1799
   -11.1671 -10.9468  -6.7737  -6.7613  -6.6914  -6.6834  -6.6619  -6.6472
    -3.8725  -3.8004  -2.6748  -2.5648  -1.9480  -1.8029  -1.5242  -1.3625
    -0.9873  -0.8701  -0.8455  -0.8142  -0.5019  -0.4282  -0.3399  -0.2534
    -0.1930   0.0153   0.1245   0.3059   0.3660   0.4946   0.5276   0.5974
     0.8938   0.9995   1.1187   1.1769   1.2896   1.3322   1.4513   1.4876
     1.5189   1.5708   1.6709   1.8714   1.9607   2.1867   2.2170   2.2728
     2.3249   2.4270   2.5414   2.5734   2.6348   2.6569   2.7256   2.7965
     2.8458   2.8690   2.9832   3.0456   3.0538   3.1017   3.1056   3.1523
     3.3338   3.3665   3.4398   3.4698   3.5058   3.5601   3.6201   3.6453
     3.6783   3.7318   3.8875   3.9114   3.9579   4.2365   4.3163   4.3449

     occupation numbers 
     1.0000   1.0000   1.0000   1.0000   1.0000   1.0000   1.0000   1.0000
     1.0000   1.0000   1.0000   1.0000   1.0000   1.0000   1.0000   1.0000
     1.0000   1.0000   1.0000   1.0000   1.0000   1.0000   1.0000   1.0000
     1.0000   1.0000   1.0000   1.0000   1.0000   1.0000   1.0000   1.0000
     1.0000   1.0000   1.0000   1.0000   1.0000   1.0000   1.0000   1.0000
     1.0000   1.0000   1.0000   1.0000   1.0000   1.0000   1.0000   1.0000
     1.0000   1.0000   1.0000   1.0000   1.0000   1.0000   1.0000   1.0000
     1.0000   1.0000   1.0000   1.0000   1.0000   1.0000   1.0000   1.0000
     1.0000   1.0000   1.0000   1.0000   1.0000   1.0000   1.0000   1.0000
     1.0000   1.0000   1.0000   1.0000   1.0000   1.0000   1.0000   1.0000
     1.0000   1.0000   1.0000   1.0000   1.0000   1.0000   1.0000   1.0000
     1.0000   1.0000   1.0000   1.0000   1.0000   1.0000   1.0000   1.0000
     1.0000   1.0000   1.0000   1.0000   1.0000   1.0000   1.0000   1.0000
     1.0000   1.0000   1.0000   1.0000   1.0000   1.0000   1.0000   1.0000
     1.0000   1.0000   1.0000   1.0000   1.0000   1.0000   1.0000   1.0000
     1.0000   1.0000   1.0000   1.0000   1.0000   1.0000   1.0000   1.0000

          k = 0.3333 0.0000 0.2360 ( 25948 PWs)   bands (ev):

   -67.6764 -67.6747 -67.5621 -67.1938 -67.1012 -67.0941 -34.4509 -34.4404
   -34.4277 -34.4228 -34.4149 -34.4132 -34.3244 -34.3222 -34.2962 -33.9510
   -33.9462 -33.9434 -33.8780 -33.8674 -33.8616 -33.8392 -33.8349 -33.8159
   -23.2022 -23.1839 -15.0031 -14.9910 -14.4364 -14.4029 -14.0068 -13.9841
   -13.3657 -13.2767 -13.2243 -13.1720 -13.0607 -13.0532 -13.0011 -12.9484
   -12.8800 -12.7919 -12.6776 -12.6359 -12.5496 -12.4916 -12.2868 -12.1887
   -11.1663 -10.9478  -6.7739  -6.7613  -6.6913  -6.6834  -6.6618  -6.6472
    -3.8737  -3.7992  -2.6483  -2.5948  -1.9192  -1.8399  -1.4955  -1.3530
    -0.9893  -0.8786  -0.8373  -0.8024  -0.4719  -0.4291  -0.3739  -0.3419
    -0.1373  -0.0339   0.1391   0.2663   0.3752   0.4714   0.5044   0.6563
     0.9425   1.0187   1.0835   1.1796   1.2205   1.3827   1.4694   1.5142
     1.5744   1.6004   1.6156   1.9248   2.0020   2.1467   2.2223   2.2678
     2.3034   2.3703   2.5258   2.6036   2.6411   2.6590   2.7184   2.7598
     2.8016   2.9071   2.9339   3.0343   3.0442   3.0873   3.1602   3.1981
     3.3431   3.3884   3.4342   3.4633   3.4982   3.5530   3.5754   3.6442
     3.7041   3.7475   3.8033   3.8970   4.0367   4.2157   4.3382   4.3587

     occupation numbers 
     1.0000   1.0000   1.0000   1.0000   1.0000   1.0000   1.0000   1.0000
     1.0000   1.0000   1.0000   1.0000   1.0000   1.0000   1.0000   1.0000
     1.0000   1.0000   1.0000   1.0000   1.0000   1.0000   1.0000   1.0000
     1.0000   1.0000   1.0000   1.0000   1.0000   1.0000   1.0000   1.0000
     1.0000   1.0000   1.0000   1.0000   1.0000   1.0000   1.0000   1.0000
     1.0000   1.0000   1.0000   1.0000   1.0000   1.0000   1.0000   1.0000
     1.0000   1.0000   1.0000   1.0000   1.0000   1.0000   1.0000   1.0000
     1.0000   1.0000   1.0000   1.0000   1.0000   1.0000   1.0000   1.0000
     1.0000   1.0000   1.0000   1.0000   1.0000   1.0000   1.0000   1.0000
     1.0000   1.0000   1.0000   1.0000   1.0000   1.0000   1.0000   1.0000
     1.0000   1.0000   1.0000   1.0000   1.0000   1.0000   1.0000   1.0000
     1.0000   1.0000   1.0000   1.0000   1.0000   1.0000   1.0000   1.0000
     1.0000   1.0000   1.0000   1.0000   1.0000   1.0000   1.0000   1.0000
     1.0000   1.0000   1.0000   1.0000   1.0000   1.0000   1.0000   1.0000
     1.0000   1.0000   1.0000   1.0000   1.0000   1.0000   1.0000   1.0000
     1.0000   1.0000   1.0000   1.0000   1.0000   1.0000   1.0000   1.0000

          k = 0.3333 0.0000-0.1157 ( 25913 PWs)   bands (ev):

   -67.6764 -67.6747 -67.5621 -67.1938 -67.1012 -67.0941 -34.4509 -34.4404
   -34.4277 -34.4228 -34.4149 -34.4132 -34.3244 -34.3221 -34.2962 -33.9510
   -33.9462 -33.9434 -33.8780 -33.8674 -33.8616 -33.8392 -33.8349 -33.8159
   -23.2022 -23.1839 -15.0153 -14.9782 -14.4308 -14.4089 -14.0079 -13.9829
   -13.3715 -13.2625 -13.2317 -13.1754 -13.0581 -13.0526 -13.0054 -12.9440
   -12.8801 -12.7934 -12.6737 -12.6408 -12.5449 -12.4950 -12.2880 -12.1872
   -11.1662 -10.9477  -6.7739  -6.7615  -6.6913  -6.6834  -6.6618  -6.6472
    -3.8398  -3.8341  -2.6632  -2.5786  -1.9330  -1.8205  -1.5180  -1.3565
    -0.9786  -0.8626  -0.8247  -0.8147  -0.5092  -0.4128  -0.3711  -0.3017
    -0.1952  -0.0148   0.1607   0.2688   0.3931   0.4656   0.5625   0.6113
     0.9387   0.9923   1.1016   1.1800   1.2598   1.3380   1.4622   1.5100
     1.5186   1.5771   1.6763   1.8864   1.9685   2.1439   2.2083   2.2520
     2.3036   2.4368   2.5774   2.5909   2.6039   2.6838   2.7015   2.7862
     2.8267   2.8691   2.9603   3.0138   3.0542   3.1342   3.1861   3.2312
     3.3415   3.3628   3.4373   3.4662   3.4945   3.5333   3.5499   3.6250
     3.6901   3.7374   3.8346   3.8777   4.0362   4.2266   4.3270   4.3606

     occupation numbers 
     1.0000   1.0000   1.0000   1.0000   1.0000   1.0000   1.0000   1.0000
     1.0000   1.0000   1.0000   1.0000   1.0000   1.0000   1.0000   1.0000
     1.0000   1.0000   1.0000   1.0000   1.0000   1.0000   1.0000   1.0000
     1.0000   1.0000   1.0000   1.0000   1.0000   1.0000   1.0000   1.0000
     1.0000   1.0000   1.0000   1.0000   1.0000   1.0000   1.0000   1.0000
     1.0000   1.0000   1.0000   1.0000   1.0000   1.0000   1.0000   1.0000
     1.0000   1.0000   1.0000   1.0000   1.0000   1.0000   1.0000   1.0000
     1.0000   1.0000   1.0000   1.0000   1.0000   1.0000   1.0000   1.0000
     1.0000   1.0000   1.0000   1.0000   1.0000   1.0000   1.0000   1.0000
     1.0000   1.0000   1.0000   1.0000   1.0000   1.0000   1.0000   1.0000
     1.0000   1.0000   1.0000   1.0000   1.0000   1.0000   1.0000   1.0000
     1.0000   1.0000   1.0000   1.0000   1.0000   1.0000   1.0000   1.0000
     1.0000   1.0000   1.0000   1.0000   1.0000   1.0000   1.0000   1.0000
     1.0000   1.0000   1.0000   1.0000   1.0000   1.0000   1.0000   1.0000
     1.0000   1.0000   1.0000   1.0000   1.0000   1.0000   1.0000   1.0000
     1.0000   1.0000   1.0000   1.0000   1.0000   1.0000   1.0000   1.0000

          k = 0.3333 0.1921 0.0601 ( 25923 PWs)   bands (ev):

   -67.6764 -67.6747 -67.5621 -67.1938 -67.1012 -67.0941 -34.4510 -34.4404
   -34.4277 -34.4228 -34.4149 -34.4132 -34.3244 -34.3221 -34.2962 -33.9510
   -33.9462 -33.9434 -33.8780 -33.8674 -33.8616 -33.8392 -33.8349 -33.8159
   -23.2022 -23.1839 -15.0170 -14.9689 -14.4497 -14.4108 -14.0095 -13.9766
   -13.3449 -13.2829 -13.1885 -13.1409 -13.0863 -13.0654 -13.0301 -12.9594
   -12.8913 -12.7905 -12.6780 -12.6103 -12.5651 -12.4875 -12.2952 -12.1796
   -11.1666 -10.9468  -6.7727  -6.7635  -6.6916  -6.6826  -6.6617  -6.6473
    -3.8499  -3.7780  -2.7782  -2.6771  -1.8639  -1.6952  -1.4733  -1.3857
    -1.0002  -0.8993  -0.8535  -0.7661  -0.5028  -0.3793  -0.3264  -0.2273
    -0.1666  -0.0289   0.1052   0.2916   0.3716   0.4699   0.5048   0.5488
     0.8592   0.9277   1.1712   1.2200   1.2761   1.3463   1.4041   1.4852
     1.5202   1.5831   1.6817   1.8142   2.0188   2.1664   2.2232   2.2722
     2.3211   2.4252   2.5094   2.5793   2.6440   2.7039   2.7662   2.8233
     2.8535   2.9391   2.9861   3.0208   3.1000   3.1198   3.1875   3.2123
     3.2771   3.3334   3.3668   3.4566   3.4750   3.5169   3.5823   3.6209
     3.7185   3.7614   3.8580   3.9268   3.9597   4.2043   4.2754   4.3388

     occupation numbers 
     1.0000   1.0000   1.0000   1.0000   1.0000   1.0000   1.0000   1.0000
     1.0000   1.0000   1.0000   1.0000   1.0000   1.0000   1.0000   1.0000
     1.0000   1.0000   1.0000   1.0000   1.0000   1.0000   1.0000   1.0000
     1.0000   1.0000   1.0000   1.0000   1.0000   1.0000   1.0000   1.0000
     1.0000   1.0000   1.0000   1.0000   1.0000   1.0000   1.0000   1.0000
     1.0000   1.0000   1.0000   1.0000   1.0000   1.0000   1.0000   1.0000
     1.0000   1.0000   1.0000   1.0000   1.0000   1.0000   1.0000   1.0000
     1.0000   1.0000   1.0000   1.0000   1.0000   1.0000   1.0000   1.0000
     1.0000   1.0000   1.0000   1.0000   1.0000   1.0000   1.0000   1.0000
     1.0000   1.0000   1.0000   1.0000   1.0000   1.0000   1.0000   1.0000
     1.0000   1.0000   1.0000   1.0000   1.0000   1.0000   1.0000   1.0000
     1.0000   1.0000   1.0000   1.0000   1.0000   1.0000   1.0000   1.0000
     1.0000   1.0000   1.0000   1.0000   1.0000   1.0000   1.0000   1.0000
     1.0000   1.0000   1.0000   1.0000   1.0000   1.0000   1.0000   1.0000
     1.0000   1.0000   1.0000   1.0000   1.0000   1.0000   1.0000   1.0000
     1.0000   1.0000   1.0000   1.0000   1.0000   1.0000   1.0000   1.0000

          k = 0.3333 0.1921 0.2360 ( 25909 PWs)   bands (ev):

   -67.6764 -67.6747 -67.5621 -67.1938 -67.1012 -67.0941 -34.4509 -34.4404
   -34.4277 -34.4228 -34.4149 -34.4132 -34.3244 -34.3221 -34.2962 -33.9510
   -33.9462 -33.9434 -33.8780 -33.8674 -33.8616 -33.8392 -33.8349 -33.8159
   -23.2022 -23.1839 -14.9998 -14.9870 -14.4460 -14.4146 -14.0038 -13.9827
   -13.3407 -13.2751 -13.2077 -13.1326 -13.0870 -13.0616 -13.0354 -12.9553
   -12.8898 -12.7944 -12.6695 -12.6258 -12.5499 -12.4960 -12.2856 -12.1881
   -11.1659 -10.9477  -6.7728  -6.7636  -6.6915  -6.6826  -6.6616  -6.6473
    -3.8484  -3.7793  -2.7448  -2.7141  -1.8442  -1.7223  -1.4480  -1.3747
    -0.9942  -0.9255  -0.8040  -0.7847  -0.4741  -0.4311  -0.3376  -0.2561
    -0.1428  -0.0713   0.1412   0.2441   0.3564   0.4449   0.4960   0.5971
     0.8556   0.9576   1.1529   1.2077   1.2949   1.3380   1.4576   1.4983
     1.5589   1.6348   1.6614   1.8145   2.0514   2.1167   2.2359   2.2640
     2.2941   2.4313   2.4833   2.5952   2.6482   2.6699   2.7387   2.7944
     2.8547   2.9171   2.9885   3.0373   3.0722   3.1224   3.1901   3.2460
     3.2847   3.3699   3.4027   3.4477   3.4664   3.5149   3.5469   3.6028
     3.7384   3.7830   3.8131   3.8797   4.0307   4.1769   4.2886   4.3612

     occupation numbers 
     1.0000   1.0000   1.0000   1.0000   1.0000   1.0000   1.0000   1.0000
     1.0000   1.0000   1.0000   1.0000   1.0000   1.0000   1.0000   1.0000
     1.0000   1.0000   1.0000   1.0000   1.0000   1.0000   1.0000   1.0000
     1.0000   1.0000   1.0000   1.0000   1.0000   1.0000   1.0000   1.0000
     1.0000   1.0000   1.0000   1.0000   1.0000   1.0000   1.0000   1.0000
     1.0000   1.0000   1.0000   1.0000   1.0000   1.0000   1.0000   1.0000
     1.0000   1.0000   1.0000   1.0000   1.0000   1.0000   1.0000   1.0000
     1.0000   1.0000   1.0000   1.0000   1.0000   1.0000   1.0000   1.0000
     1.0000   1.0000   1.0000   1.0000   1.0000   1.0000   1.0000   1.0000
     1.0000   1.0000   1.0000   1.0000   1.0000   1.0000   1.0000   1.0000
     1.0000   1.0000   1.0000   1.0000   1.0000   1.0000   1.0000   1.0000
     1.0000   1.0000   1.0000   1.0000   1.0000   1.0000   1.0000   1.0000
     1.0000   1.0000   1.0000   1.0000   1.0000   1.0000   1.0000   1.0000
     1.0000   1.0000   1.0000   1.0000   1.0000   1.0000   1.0000   1.0000
     1.0000   1.0000   1.0000   1.0000   1.0000   1.0000   1.0000   1.0000
     1.0000   1.0000   1.0000   1.0000   1.0000   1.0000   1.0000   1.0000

          k = 0.3333 0.1921-0.1157 ( 25902 PWs)   bands (ev):

   -67.6764 -67.6747 -67.5621 -67.1938 -67.1012 -67.0941 -34.4509 -34.4404
   -34.4277 -34.4228 -34.4149 -34.4132 -34.3244 -34.3221 -34.2962 -33.9510
   -33.9462 -33.9434 -33.8780 -33.8674 -33.8616 -33.8392 -33.8349 -33.8159
   -23.2022 -23.1839 -15.0117 -14.9746 -14.4423 -14.4186 -14.0036 -13.9828
   -13.3446 -13.2766 -13.1968 -13.1405 -13.0754 -13.0612 -13.0486 -12.9546
   -12.8894 -12.7936 -12.6667 -12.6274 -12.5442 -12.5018 -12.2867 -12.1868
   -11.1657 -10.9476  -6.7728  -6.7636  -6.6915  -6.6826  -6.6616  -6.6473
    -3.8186  -3.8104  -2.7647  -2.6925  -1.8555  -1.7044  -1.4695  -1.3808
    -0.9813  -0.9023  -0.8337  -0.7651  -0.5130  -0.3700  -0.3537  -0.2355
    -0.1972  -0.0563   0.1100   0.2985   0.3856   0.4501   0.5291   0.5532
     0.8861   0.9191   1.1504   1.2058   1.2981   1.3451   1.4498   1.4559
     1.5369   1.5954   1.6992   1.8387   1.9897   2.1403   2.2238   2.2415
     2.3009   2.4650   2.4884   2.5788   2.6358   2.6786   2.7368   2.8370
     2.8903   2.9074   2.9935   3.0377   3.1114   3.1294   3.1805   3.2808
     3.2975   3.3283   3.3907   3.4387   3.4830   3.5270   3.5458   3.6051
     3.7101   3.7629   3.8226   3.8406   4.0438   4.1849   4.2846   4.3551

     occupation numbers 
     1.0000   1.0000   1.0000   1.0000   1.0000   1.0000   1.0000   1.0000
     1.0000   1.0000   1.0000   1.0000   1.0000   1.0000   1.0000   1.0000
     1.0000   1.0000   1.0000   1.0000   1.0000   1.0000   1.0000   1.0000
     1.0000   1.0000   1.0000   1.0000   1.0000   1.0000   1.0000   1.0000
     1.0000   1.0000   1.0000   1.0000   1.0000   1.0000   1.0000   1.0000
     1.0000   1.0000   1.0000   1.0000   1.0000   1.0000   1.0000   1.0000
     1.0000   1.0000   1.0000   1.0000   1.0000   1.0000   1.0000   1.0000
     1.0000   1.0000   1.0000   1.0000   1.0000   1.0000   1.0000   1.0000
     1.0000   1.0000   1.0000   1.0000   1.0000   1.0000   1.0000   1.0000
     1.0000   1.0000   1.0000   1.0000   1.0000   1.0000   1.0000   1.0000
     1.0000   1.0000   1.0000   1.0000   1.0000   1.0000   1.0000   1.0000
     1.0000   1.0000   1.0000   1.0000   1.0000   1.0000   1.0000   1.0000
     1.0000   1.0000   1.0000   1.0000   1.0000   1.0000   1.0000   1.0000
     1.0000   1.0000   1.0000   1.0000   1.0000   1.0000   1.0000   1.0000
     1.0000   1.0000   1.0000   1.0000   1.0000   1.0000   1.0000   1.0000
     1.0000   1.0000   1.0000   1.0000   1.0000   1.0000   1.0000   1.0000

          k =-0.5000 0.0000-0.0902 ( 25894 PWs)   bands (ev):

   -67.6763 -67.6749 -67.5621 -67.1938 -67.1011 -67.0942 -34.4497 -34.4422
   -34.4271 -34.4225 -34.4147 -34.4137 -34.3243 -34.3222 -34.2963 -33.9508
   -33.9465 -33.9434 -33.8782 -33.8660 -33.8625 -33.8374 -33.8364 -33.8163
   -23.2020 -23.1838 -14.8683 -14.8260 -14.5966 -14.5578 -14.0349 -13.9991
   -13.2910 -13.2245 -13.1669 -13.1426 -13.0807 -13.0668 -13.0337 -12.9877
   -12.9008 -12.7870 -12.7184 -12.6718 -12.5847 -12.4883 -12.2892 -12.1791
   -11.1645 -10.9521  -6.7731  -6.7664  -6.6896  -6.6818  -6.6622  -6.6437
    -3.4980  -3.4271  -2.9676  -2.8935  -1.8806  -1.7859  -1.3926  -1.3705
    -1.0594  -0.9259  -0.8642  -0.7850  -0.4589  -0.3597  -0.3381  -0.2646
    -0.1042  -0.1022   0.2629   0.2807   0.3343   0.4697   0.5349   0.5361
     0.8669   0.9635   1.0796   1.1121   1.3129   1.3413   1.3550   1.3928
     1.5723   1.5995   1.7062   1.7591   1.9938   2.1292   2.2403   2.2638
     2.2808   2.4628   2.4867   2.5818   2.6581   2.6718   2.8112   2.8408
     2.9132   2.9132   2.9856   2.9959   3.0400   3.0518   3.1631   3.2113
     3.2524   3.2766   3.3996   3.4010   3.4628   3.5226   3.5722   3.6685
     3.6736   3.7332   3.8804   3.9311   3.9380   4.2515   4.2794   4.3262

     occupation numbers 
     1.0000   1.0000   1.0000   1.0000   1.0000   1.0000   1.0000   1.0000
     1.0000   1.0000   1.0000   1.0000   1.0000   1.0000   1.0000   1.0000
     1.0000   1.0000   1.0000   1.0000   1.0000   1.0000   1.0000   1.0000
     1.0000   1.0000   1.0000   1.0000   1.0000   1.0000   1.0000   1.0000
     1.0000   1.0000   1.0000   1.0000   1.0000   1.0000   1.0000   1.0000
     1.0000   1.0000   1.0000   1.0000   1.0000   1.0000   1.0000   1.0000
     1.0000   1.0000   1.0000   1.0000   1.0000   1.0000   1.0000   1.0000
     1.0000   1.0000   1.0000   1.0000   1.0000   1.0000   1.0000   1.0000
     1.0000   1.0000   1.0000   1.0000   1.0000   1.0000   1.0000   1.0000
     1.0000   1.0000   1.0000   1.0000   1.0000   1.0000   1.0000   1.0000
     1.0000   1.0000   1.0000   1.0000   1.0000   1.0000   1.0000   1.0000
     1.0000   1.0000   1.0000   1.0000   1.0000   1.0000   1.0000   1.0000
     1.0000   1.0000   1.0000   1.0000   1.0000   1.0000   1.0000   1.0000
     1.0000   1.0000   1.0000   1.0000   1.0000   1.0000   1.0000   1.0000
     1.0000   1.0000   1.0000   1.0000   1.0000   1.0000   1.0000   1.0000
     1.0000   1.0000   1.0000   1.0000   1.0000   1.0000   1.0000   1.0000

          k =-0.5000 0.0000 0.0856 ( 25921 PWs)   bands (ev):

   -67.6763 -67.6749 -67.5621 -67.1938 -67.1011 -67.0942 -34.4497 -34.4422
   -34.4271 -34.4225 -34.4147 -34.4137 -34.3243 -34.3222 -34.2963 -33.9508
   -33.9465 -33.9434 -33.8782 -33.8660 -33.8625 -33.8374 -33.8365 -33.8163
   -23.2020 -23.1838 -14.8605 -14.8344 -14.5897 -14.5649 -14.0305 -14.0037
   -13.2916 -13.2230 -13.1615 -13.1286 -13.0934 -13.0883 -13.0273 -12.9800
   -12.8981 -12.7901 -12.7110 -12.6846 -12.5670 -12.5006 -12.2801 -12.1872
   -11.1635 -10.9531  -6.7733  -6.7666  -6.6895  -6.6818  -6.6621  -6.6437
    -3.4811  -3.4446  -2.9506  -2.9129  -1.8656  -1.8027  -1.3956  -1.3604
    -1.0538  -0.9071  -0.8491  -0.7897  -0.4497  -0.3668  -0.3300  -0.2813
    -0.1633  -0.1265   0.2627   0.3197   0.3387   0.4187   0.5246   0.5858
     0.9129   0.9812   1.0408   1.1670   1.2004   1.2848   1.4205   1.4491
     1.5170   1.6141   1.7691   1.8139   1.9682   2.1083   2.1885   2.2585
     2.3047   2.4492   2.4608   2.5645   2.6603   2.6811   2.7751   2.8459
     2.9085   2.9409   2.9702   2.9878   3.0397   3.0717   3.2447   3.2517
     3.2688   3.2871   3.3574   3.4005   3.4898   3.5341   3.5459   3.6055
[...]
     atom    9 type  6   force =     0.00000000    0.00000000    0.00000000
     atom   10 type  6   force =     0.00000000    0.00000000    0.00000000
     atom   11 type  6   force =     0.00000000    0.00000000    0.00000000
     atom   12 type  6   force =     0.00000000    0.00000000    0.00000000
     atom   13 type  6   force =     0.00000000    0.00000000    0.00000000
     atom   14 type  6   force =     0.00000000    0.00000000    0.00000000
     atom   15 type  1   force =     0.00000000    0.00000000    0.00000000
     atom   16 type  1   force =     0.00000000    0.00000000    0.00000000
     atom   17 type  5   force =     0.00000000    0.00000000    0.00000000
     atom   18 type  5   force =     0.00000000    0.00000000    0.00000000
     atom   19 type  5   force =     0.00000000    0.00000000    0.00000000
     atom   20 type  5   force =     0.00000000    0.00000000    0.00000000
     atom   21 type  5   force =     0.00000000    0.00000000    0.00000000
     atom   22 type  5   force =     0.00000000    0.00000000    0.00000000
     atom   23 type  5   force =     0.00000000    0.00000000    0.00000000
     atom   24 type  5   force =     0.00000000    0.00000000    0.00000000
     atom   25 type  5   force =     0.00000000    0.00000000    0.00000000
     atom   26 type  5   force =     0.00000000    0.00000000    0.00000000
     atom   27 type  5   force =     0.00000000    0.00000000    0.00000000
     atom   28 type  5   force =     0.00000000    0.00000000    0.00000000
     atom   29 type  5   force =     0.00000000    0.00000000    0.00000000
     atom   30 type  5   force =     0.00000000    0.00000000    0.00000000
     atom   31 type  5   force =     0.00000000    0.00000000    0.00000000
     atom   32 type  5   force =     0.00000000    0.00000000    0.00000000
     atom   33 type  5   force =     0.00000000    0.00000000    0.00000000
     atom   34 type  5   force =     0.00000000    0.00000000    0.00000000
     atom   35 type  5   force =     0.00000000    0.00000000    0.00000000
     atom   36 type  5   force =     0.00000000    0.00000000    0.00000000
     atom   37 type  5   force =     0.00000000    0.00000000    0.00000000
     atom   38 type  5   force =     0.00000000    0.00000000    0.00000000
     atom   39 type  5   force =     0.00000000    0.00000000    0.00000000
     atom   40 type  5   force =     0.00000000    0.00000000    0.00000000
     atom   41 type  2   force =     0.00000000    0.00000000    0.00000000
     atom   42 type  2   force =     0.00000000    0.00000000    0.00000000
     atom   43 type  2   force =     0.00000000    0.00000000    0.00000000
     atom   44 type  2   force =     0.00000000    0.00000000    0.00000000
     The SCF correction term to forces
     atom    1 type  3   force =    -0.00000000    0.00000186    0.00000000
     atom    2 type  3   force =    -0.00000000   -0.00000171    0.00000000
     atom    3 type  4   force =     0.00000000   -0.00002955   -0.00000000
     atom    4 type  4   force =     0.00000000    0.00001383    0.00000000
     atom    5 type  4   force =     0.00000000    0.00002110   -0.00000000
     atom    6 type  4   force =    -0.00000000    0.00000218   -0.00000000
     atom    7 type  4   force =     0.00000000    0.00004817   -0.00000000
     atom    8 type  4   force =    -0.00000000   -0.00001822    0.00000000
     atom    9 type  6   force =     0.00000102   -0.00000302   -0.00001007
     atom   10 type  6   force =    -0.00000102   -0.00000302    0.00001007
     atom   11 type  6   force =    -0.00000591    0.00000121    0.00000882
     atom   12 type  6   force =     0.00000591    0.00000121   -0.00000882
     atom   13 type  6   force =    -0.00000483    0.00000708   -0.00001508
     atom   14 type  6   force =     0.00000483    0.00000708    0.00001508
     atom   15 type  1   force =     0.00000070   -0.00000333    0.00000755
     atom   16 type  1   force =    -0.00000070   -0.00000333   -0.00000755
     atom   17 type  5   force =     0.00000028   -0.00000672   -0.00001748
     atom   18 type  5   force =    -0.00000028   -0.00000672    0.00001748
     atom   19 type  5   force =     0.00000105    0.00000561    0.00001564
     atom   20 type  5   force =    -0.00000105    0.00000561   -0.00001564
     atom   21 type  5   force =     0.00000224    0.00000758   -0.00001153
     atom   22 type  5   force =    -0.00000224    0.00000758    0.00001153
     atom   23 type  5   force =     0.00000032   -0.00000393    0.00002005
     atom   24 type  5   force =    -0.00000032   -0.00000393   -0.00002005
     atom   25 type  5   force =     0.00000978   -0.00000334   -0.00000591
     atom   26 type  5   force =    -0.00000978   -0.00000334    0.00000591
     atom   27 type  5   force =    -0.00000497    0.00000085    0.00000026
     atom   28 type  5   force =     0.00000497    0.00000085   -0.00000026
     atom   29 type  5   force =    -0.00000169    0.00001257    0.00000757
     atom   30 type  5   force =     0.00000169    0.00001257   -0.00000757
     atom   31 type  5   force =     0.00000332    0.00000351   -0.00000242
     atom   32 type  5   force =    -0.00000332    0.00000351    0.00000242
     atom   33 type  5   force =    -0.00000148   -0.00000278   -0.00000410
     atom   34 type  5   force =     0.00000148   -0.00000278    0.00000410
     atom   35 type  5   force =     0.00000971   -0.00001096    0.00000407
     atom   36 type  5   force =    -0.00000971   -0.00001096   -0.00000407
     atom   37 type  5   force =    -0.00000089    0.00000193   -0.00000911
     atom   38 type  5   force =     0.00000089    0.00000193    0.00000911
     atom   39 type  5   force =     0.00000006    0.00000152   -0.00001928
     atom   40 type  5   force =    -0.00000006    0.00000152    0.00001928
     atom   41 type  2   force =     0.00000006    0.00000071    0.00000038
     atom   42 type  2   force =    -0.00000006    0.00000071   -0.00000038
     atom   43 type  2   force =     0.00000019   -0.00000071   -0.00000206
     atom   44 type  2   force =    -0.00000019   -0.00000071    0.00000206

     Dispersion contribution to forces:
     atom    1 type  3   force =    -0.00000000    0.00245281   -0.00000000
     atom    2 type  3   force =    -0.00000000   -0.00184710   -0.00000000
     atom    3 type  4   force =    -0.00000000    0.00053651    0.00000000
     atom    4 type  4   force =    -0.00000000    0.00061294    0.00000000
     atom    5 type  4   force =    -0.00000000   -0.00138459   -0.00000000
     atom    6 type  4   force =     0.00000000   -0.00009529   -0.00000000
     atom    7 type  4   force =     0.00000000    0.00133002   -0.00000000
     atom    8 type  4   force =     0.00000000   -0.00085706    0.00000000
     atom    9 type  6   force =    -0.00018031   -0.00046496    0.00129768
     atom   10 type  6   force =     0.00018031   -0.00046496   -0.00129769
     atom   11 type  6   force =    -0.00005275    0.00026089   -0.00076544
     atom   12 type  6   force =     0.00005275    0.00026089    0.00076544
     atom   13 type  6   force =    -0.00005645    0.00048460    0.00118955
     atom   14 type  6   force =     0.00005645    0.00048460   -0.00118955
     atom   15 type  1   force =    -0.00005181   -0.00028596   -0.00331640
     atom   16 type  1   force =     0.00005181   -0.00028596    0.00331640
     atom   17 type  5   force =    -0.00017743    0.00009791    0.00039315
     atom   18 type  5   force =     0.00017743    0.00009791   -0.00039316
     atom   19 type  5   force =     0.00010426   -0.00012785   -0.00025877
     atom   20 type  5   force =    -0.00010426   -0.00012785    0.00025877
     atom   21 type  5   force =    -0.00007694    0.00000594    0.00031467
     atom   22 type  5   force =     0.00007694    0.00000594   -0.00031467
     atom   23 type  5   force =    -0.00016460   -0.00020699    0.00106849
     atom   24 type  5   force =     0.00016460   -0.00020699   -0.00106849
     atom   25 type  5   force =     0.00034764    0.00191097    0.00143134
     atom   26 type  5   force =    -0.00034764    0.00191097   -0.00143134
     atom   27 type  5   force =     0.00027869    0.00014799    0.00064536
     atom   28 type  5   force =    -0.00027869    0.00014799   -0.00064536
     atom   29 type  5   force =    -0.00008337    0.00022321   -0.00001918
     atom   30 type  5   force =     0.00008337    0.00022321    0.00001918
     atom   31 type  5   force =     0.00025746   -0.00040240   -0.00026973
     atom   32 type  5   force =    -0.00025746   -0.00040240    0.00026973
     atom   33 type  5   force =     0.00087230   -0.00149429    0.00101116
     atom   34 type  5   force =    -0.00087230   -0.00149429   -0.00101116
     atom   35 type  5   force =     0.00156751   -0.00037529   -0.00123160
     atom   36 type  5   force =    -0.00156751   -0.00037529    0.00123160
     atom   37 type  5   force =     0.00000795    0.00011531   -0.00234912
     atom   38 type  5   force =    -0.00000795    0.00011531    0.00234912
     atom   39 type  5   force =     0.00017310    0.00006959   -0.00249900
     atom   40 type  5   force =    -0.00017310    0.00006959    0.00249900
     atom   41 type  2   force =    -0.00000370   -0.00014541    0.00075444
     atom   42 type  2   force =     0.00000370   -0.00014541   -0.00075444
     atom   43 type  2   force =     0.00036912   -0.00018738    0.00093706
     atom   44 type  2   force =    -0.00036912   -0.00018738   -0.00093706

     Total force =     0.003572     Total SCF correction =     0.000101

     Total Dispersion Force =     0.010244


     Computing stress (Cartesian axis) and pressure

          total   stress  (Ry/bohr**3)                   (kbar)     P=       -1.85
  -0.00001786   0.00000000  -0.00000107           -2.63        0.00       -0.16
   0.00000000  -0.00001374   0.00000000            0.00       -2.02        0.00
  -0.00000107   0.00000000  -0.00000606           -0.16        0.00       -0.89

     kinetic stress (kbar)  19365.90      0.00     -5.52
                                0.00  19361.10      0.00
                               -5.52      0.00  19051.35

     local   stress (kbar) -34741.90      0.00    -41.67
                                0.00 -34504.35      0.00
                              -41.67      0.00  12089.81

     nonloc. stress (kbar)   5140.70      0.00     -0.45
                                0.00   5140.75      0.00
                               -0.45      0.00   5132.80

     hartree stress (kbar)  19308.26     -0.00     14.41
                               -0.00  19201.30      0.00
                               14.41      0.00  -3626.62

     exc-cor stress (kbar)  -2820.15     -0.00      0.07
                               -0.00  -2820.13      0.00
                                0.07      0.00  -2816.82

     corecor stress (kbar)  -1878.63      0.00      0.10
                                0.00  -1878.70     -0.00
                                0.10     -0.00  -1880.40

     ewald   stress (kbar)  -4345.00     -0.00     32.67
                               -0.00  -4470.23     -0.00
                               32.67     -0.00 -27920.32

     hubbard stress (kbar)      0.00      0.00      0.00
                                0.00      0.00      0.00
                                0.00      0.00      0.00

     DFT-D   stress (kbar)    -31.80      0.00      0.23
                                0.00    -31.76     -0.00
                                0.23     -0.00    -30.69

     XDM     stress (kbar)      0.00      0.00      0.00
                                0.00      0.00      0.00
                                0.00      0.00      0.00

     dft-nl  stress (kbar)      0.00      0.00      0.00
                                0.00      0.00      0.00
                                0.00      0.00      0.00

     TS-vdW  stress (kbar)      0.00      0.00      0.00
                                0.00      0.00      0.00
                                0.00      0.00      0.00

     MDB     stress (kbar)      0.00      0.00      0.00
                                0.00      0.00      0.00
                                0.00      0.00      0.00

     3D-RISM stress (kbar)      0.00      0.00      0.00
                                0.00      0.00      0.00
                                0.00      0.00      0.00

     Energy error            =      2.5E-05 Ry
     Gradient error          =      8.8E-04 Ry/Bohr

     bfgs converged in  13 scf cycles and  12 bfgs steps
     (criteria: energy <  1.0E-04 Ry, force <  1.0E-03 Ry/Bohr)

     End of BFGS Geometry Optimization

     Final energy             =   -2443.8348163291 Ry

     File ./temp/phl-fe0.bfgs deleted, as requested
Begin final coordinates

ATOMIC_POSITIONS (crystal)
K                0.0000000000        0.4963209490        0.0000000000
K                0.5000000000        0.0017788972        0.0000000000
Mg              -0.0000000000        0.0043581135        0.5000000000
Mg              -0.0000000000        0.3333789226        0.5000000000
Mg              -0.0000000000        0.6649076142        0.5000000000
Mg               0.5000000000        0.4931719212        0.5000000000
Mg               0.5000000000        0.8348603274        0.5000000000
Mg               0.5000000000        0.1721816740        0.5000000000
Si               0.0831850264        0.1649068176        0.2228627607
Si               0.9168149596        0.1649068176        0.7771372693
Si               0.9342240620        0.8342851120        0.7710696390
Si               0.0657759380        0.8342851120        0.2289303610
Si               0.5644509408        0.6665278428        0.2269310119
Si               0.4355490592        0.6665278428        0.7730689731
Al               0.4153860284        0.3309276860        0.7756520046
Al               0.5846139716        0.3309276860        0.2243479954
O                0.1272688911        0.1634583158        0.3851872477
O                0.8727310789        0.1634583158        0.6148127813
O                0.8745092647        0.8330551103        0.6100791972
O                0.1254907353        0.8330551103        0.3899208028
O                0.6253769645        0.6691941789        0.3886153562
O                0.3746230355        0.6691941789        0.6113846438
O                0.3611277099        0.3330351575        0.6036938895
O                0.6388722901        0.3330351575        0.3963061105
O                0.3440829092        0.2015202859        0.1660228709
O                0.6559170908        0.2015202859        0.8339770991
O                0.9932658875        0.9971415326        0.1677020058
O                0.0067341125        0.9971415326        0.8322979792
O                0.6814264574        0.7764526453        0.8309355329
O                0.3185735426        0.7764526453        0.1690644671
O                0.8175094321        0.7303761370        0.1679666872
O                0.1824905679        0.7303761370        0.8320333128
O                0.4944411412        0.5077808036        0.1624313441
O                0.5055588288        0.5077808036        0.8375686709
O                0.1419428703        0.2776159237        0.8405805040
O                0.8580571447        0.2776159237        0.1594194960
O                0.1301909907        0.5042418023        0.3933473964
O                0.8698090243        0.5042418023        0.6066526036
O                0.6324137881        0.9992264479        0.3968843596
O                0.3675862119        0.9992264479        0.6031156104
H                0.0986898864        0.4938103638        0.2978082946
H                0.9013101436        0.4938103638        0.7021917054
H                0.5951989047        0.0159621540        0.3020106350
H                0.4048010953        0.0159621540        0.6979893650
End final coordinates



     Writing all to output data dir ./temp/phl-fe0.save/ :
     XML data file, charge density, pseudopotentials, collected wavefunctions

     init_run     :    110.17s CPU    116.46s WALL (       1 calls)
     electrons    :  51881.13s CPU  52487.67s WALL (      13 calls)
     update_pot   :     11.43s CPU     13.04s WALL (      12 calls)
     forces       :    916.33s CPU    927.42s WALL (      13 calls)
     force_london :      5.12s CPU      5.18s WALL (      13 calls)
     stress       :   2404.18s CPU   2442.55s WALL (      13 calls)
     stres_london :      6.57s CPU      6.63s WALL (      13 calls)

     Called by init_run:
     wfcinit      :    105.78s CPU    111.24s WALL (       1 calls)
     wfcinit:atom :      0.13s CPU      0.13s WALL (      20 calls)
     wfcinit:wfcr :    104.54s CPU    109.95s WALL (      20 calls)
     potinit      :      1.04s CPU      1.31s WALL (       1 calls)
     hinit0       :      0.56s CPU      0.69s WALL (       1 calls)

     Called by electrons:
     c_bands      :  48328.35s CPU  48789.33s WALL (     122 calls)
     sum_band     :   3169.68s CPU   3262.14s WALL (     122 calls)
     v_of_rho     :     24.68s CPU     25.60s WALL (     125 calls)
     v_h          :      2.37s CPU      2.51s WALL (     125 calls)
     v_xc         :     26.94s CPU     27.90s WALL (     151 calls)
     newd         :    311.52s CPU    354.16s WALL (     125 calls)
     PAW_pot      :     84.83s CPU    101.04s WALL (     137 calls)
     mix_rho      :      4.72s CPU      4.97s WALL (     122 calls)
     energy_londo :      4.53s CPU      4.57s WALL (      13 calls)

     Called by c_bands:
     init_us_2    :    126.67s CPU    127.59s WALL (    5660 calls)
     cegterg      :  48138.77s CPU  48593.92s WALL (    2440 calls)

     Called by sum_band:
     sum_band:wei :      0.01s CPU      0.01s WALL (     122 calls)
     sum_band:loo :   2689.39s CPU   2736.28s WALL (     122 calls)
     sum_band:buf :     14.04s CPU     14.11s WALL (    2440 calls)
     sum_band:ini :     56.23s CPU     56.60s WALL (    2440 calls)
     sum_band:cal :   2077.41s CPU   2089.73s WALL (    2680 calls)
     sum_band:bec :      4.42s CPU      4.45s WALL (    2680 calls)
     addusdens    :    474.58s CPU    517.81s WALL (     122 calls)
                                        0.00s GPU  (     122 calls)
     addusd:skk   :      3.23s CPU      3.24s WALL (     732 calls)
                                        0.00s GPU  (     732 calls)

     Called by *egterg:
     cdiaghg      :   1670.96s CPU   1677.60s WALL (   18506 calls)
     cegterg:over :   5531.62s CPU   5610.54s WALL (   16506 calls)
     cegterg:upda :   3442.70s CPU   3449.15s WALL (   16506 calls)
     cegterg:last :   9641.35s CPU   9659.59s WALL (    9227 calls)
     h_psi        :  19169.06s CPU  19431.95s WALL (   18966 calls)
     s_psi        :   7500.16s CPU   7512.33s WALL (   18966 calls)
     g_psi        :     19.64s CPU     19.77s WALL (   16506 calls)

     Called by h_psi:
     h_psi:calbec :   7486.73s CPU   7530.40s WALL (   18966 calls)
     vloc_psi     :   4134.52s CPU   4340.36s WALL (   18966 calls)
     add_vuspsi   :   7492.35s CPU   7505.19s WALL (   18966 calls)

     General routines
     calbec       :  10571.70s CPU  10638.23s WALL (   22946 calls)
     fft          :     21.55s CPU     23.49s WALL (    1946 calls)
     ffts         :      0.75s CPU      0.79s WALL (     247 calls)
     fftw         :   2974.70s CPU   3121.49s WALL ( 2784164 calls)
     interpolate  :      2.23s CPU      2.40s WALL (     125 calls)

     Parallel routines

     PAW routines
     PAW_pot      :     84.83s CPU    101.04s WALL (     137 calls)
     PAW_symme    :      0.08s CPU      0.09s WALL (     259 calls)

     PWSCF        :     15h25m CPU     15h37m WALL


   This run was terminated on:   6:51:37  16Dec2024            

=------------------------------------------------------------------------------=
   JOB DONE.
=------------------------------------------------------------------------------=
