
     Program PWSCF v.7.3.1 starts on 29Jan2025 at 12:31:21 

     This program is part of the open-source Quantum ESPRESSO suite
     for quantum simulation of materials; please cite
         "P. Giannozzi et al., J. Phys.:Condens. Matter 21 395502 (2009);
         "P. Giannozzi et al., J. Phys.:Condens. Matter 29 465901 (2017);
         "P. Giannozzi et al., J. Chem. Phys. 152 154105 (2020);
          URL http://www.quantum-espresso.org", 
     in publications or presentations arising from this work. More details at
     http://www.quantum-espresso.org/quote

     Parallel version (MPI), running on     6 processors

     MPI processes distributed on     1 nodes
     7363 MiB available memory on the printing compute node when the environment starts

     Reading input from vc_relax.in

     Current dimensions of program PWSCF are:
     Max number of different atomic species (ntypx) = 10
     Max number of k-points (npk) =  40000
     Max angular momentum in pseudopotentials (lmaxx) =  4
     file Al.pbe-n-kjpaw_psl.1.0.0.UPF: wavefunction(s)  3S 3P renormalized
     file Fe.pbe-spn-kjpaw_psl.1.0.0.UPF: wavefunction(s)  3P 3D renormalized
     file Fe.pbe-spn-kjpaw_psl.1.0.0.UPF: wavefunction(s)  3P 3D renormalized
     file H.pbe-kjpaw_psl.1.0.0.UPF: wavefunction(s)  1S renormalized
     file K.pbe-spn-kjpaw_psl.1.0.0.UPF: wavefunction(s)  3S renormalized
     file Mg.pbe-spnl-kjpaw_psl.1.0.0.UPF: wavefunction(s)  2P renormalized
     file O.pbe-n-kjpaw_psl.1.0.0.UPF: wavefunction(s)  2S 2P renormalized
     file Si.pbe-n-kjpaw_psl.1.0.0.UPF: wavefunction(s)  3S 3P renormalized

     R & G space division:  proc/nbgrp/npool/nimage =       6
     Subspace diagonalization in iterative solution of the eigenvalue problem:
     one sub-group per band group will be used
     custom distributed-memory algorithm (size of sub-group:  2*  2 procs)


     Parallelization info
     --------------------
     sticks:   dense  smooth     PW     G-vecs:    dense   smooth      PW
     Min        2245    1122    295               202075    71450    9650
     Max        2246    1123    296               202076    71451    9652
     Sum       13475    6737   1775              1212455   428701   57909

     Using Slab Decomposition



     bravais-lattice index     =          -12
     lattice parameter (alat)  =      20.1351  a.u.
     unit-cell volume          =    6828.4878 (a.u.)^3
     number of atoms/cell      =           88
     number of atomic types    =            8
     number of electrons       =       524.00
     number of Kohn-Sham states=          314
     kinetic-energy cutoff     =      60.0000  Ry
     charge density cutoff     =     480.0000  Ry
     scf convergence threshold =      1.0E-06
     mixing beta               =       0.7000
     number of iterations used =            8  plain     mixing
     energy convergence thresh.=      1.0E-04
     force convergence thresh. =      1.0E-03
     press convergence thresh. =      5.0E-01
     Exchange-correlation= SLA  PW   PBX  PBC
                           (   1   4   3   4   0   0   0)
     nstep                     =           50


     celldm(1)=  20.135087  celldm(2)=   0.869801  celldm(3)=   0.977339
     celldm(4)=   0.000000  celldm(5)=  -0.178119  celldm(6)=   0.000000

     crystal axes: (cart. coord. in units of alat)
               a(1) = (   1.000000   0.000000   0.000000 )  
               a(2) = (   0.000000   0.869801   0.000000 )  
               a(3) = (  -0.174083   0.000000   0.961710 )  

     reciprocal axes: (cart. coord. in units 2 pi/alat)
               b(1) = (  1.000000 -0.000000  0.181014 )  
               b(2) = (  0.000000  1.149688 -0.000000 )  
               b(3) = (  0.000000  0.000000  1.039814 )  


     PseudoPot. # 1 for Al read from file:
     ./../../../pseudos/Al.pbe-n-kjpaw_psl.1.0.0.UPF
     MD5 check sum: 502b6b27b9c6270cab5dd1084b96fa6d
     Pseudo is Projector augmented-wave + core cor, Zval =  3.0
     Generated using &quot;atomic&quot; code by A. Dal Corso  v.6.3
     Shape of augmentation charge: PSQ
     Using radial grid of 1135 points,  6 beta functions with: 
                l(1) =   0
                l(2) =   0
                l(3) =   1
                l(4) =   1
                l(5) =   2
                l(6) =   2
     Q(r) pseudized with 0 coefficients 


     PseudoPot. # 2 for Fe read from file:
     ./../../../pseudos/Fe.pbe-spn-kjpaw_psl.1.0.0.UPF
     MD5 check sum: fc81f059e5c5069939230b1155715ae8
     Pseudo is Projector augmented-wave + core cor, Zval = 16.0
     Generated using &quot;atomic&quot; code by A. Dal Corso  v.6.3
     Shape of augmentation charge: PSQ
     Using radial grid of 1191 points,  6 beta functions with: 
                l(1) =   0
                l(2) =   0
                l(3) =   1
                l(4) =   1
                l(5) =   2
                l(6) =   2
     Q(r) pseudized with 0 coefficients 


     PseudoPot. # 3 for Fe read from file:
     ./../../../pseudos/Fe.pbe-spn-kjpaw_psl.1.0.0.UPF
     MD5 check sum: fc81f059e5c5069939230b1155715ae8
     Pseudo is Projector augmented-wave + core cor, Zval = 16.0
     Generated using &quot;atomic&quot; code by A. Dal Corso  v.6.3
     Shape of augmentation charge: PSQ
     Using radial grid of 1191 points,  6 beta functions with: 
                l(1) =   0
                l(2) =   0
                l(3) =   1
                l(4) =   1
                l(5) =   2
                l(6) =   2
     Q(r) pseudized with 0 coefficients 


     PseudoPot. # 4 for H  read from file:
     ./../../../pseudos/H.pbe-kjpaw_psl.1.0.0.UPF
     MD5 check sum: d81a744832360e4a8af0b0b5b123bc2a
     Pseudo is Projector augmented-wave, Zval =  1.0
     Generated using &quot;atomic&quot; code by A. Dal Corso  v.6.3MaX
     Shape of augmentation charge: PSQ
     Using radial grid of  929 points,  2 beta functions with: 
                l(1) =   0
                l(2) =   0
     Q(r) pseudized with 0 coefficients 


     PseudoPot. # 5 for K  read from file:
     ./../../../pseudos/K.pbe-spn-kjpaw_psl.1.0.0.UPF
     MD5 check sum: 34cc42130a09071ebe376fd42eb21491
     Pseudo is Projector augmented-wave + core cor, Zval =  9.0
     Generated using &quot;atomic&quot; code by A. Dal Corso  v.6.2.2
     Shape of augmentation charge: PSQ
     Using radial grid of 1165 points,  6 beta functions with: 
                l(1) =   0
                l(2) =   0
                l(3) =   1
                l(4) =   1
                l(5) =   2
                l(6) =   2
     Q(r) pseudized with 0 coefficients 


     PseudoPot. # 6 for Mg read from file:
     ./../../../pseudos/Mg.pbe-spnl-kjpaw_psl.1.0.0.UPF
     MD5 check sum: fda14e0d92a6a9a5ebed782e5a4b3067
     Pseudo is Projector augmented-wave + core cor, Zval = 10.0
     Generated using &quot;atomic&quot; code by A. Dal Corso  v.6.3
     Shape of augmentation charge: PSQ
     Using radial grid of 1129 points,  4 beta functions with: 
                l(1) =   0
                l(2) =   0
                l(3) =   1
                l(4) =   1
     Q(r) pseudized with 0 coefficients 


     PseudoPot. # 7 for O  read from file:
     ./../../../pseudos/O.pbe-n-kjpaw_psl.1.0.0.UPF
     MD5 check sum: e99d9cef9b487d1ca56f5b95ecd0fd7a
     Pseudo is Projector augmented-wave + core cor, Zval =  6.0
     Generated using &quot;atomic&quot; code by A. Dal Corso  v.6.3
     Shape of augmentation charge: PSQ
     Using radial grid of 1095 points,  4 beta functions with: 
                l(1) =   0
                l(2) =   0
                l(3) =   1
                l(4) =   1
     Q(r) pseudized with 0 coefficients 


     PseudoPot. # 8 for Si read from file:
     ./../../../pseudos/Si.pbe-n-kjpaw_psl.1.0.0.UPF
     MD5 check sum: c39c59da582df4a0d9f10159256ea34e
     Pseudo is Projector augmented-wave + core cor, Zval =  4.0
     Generated using &quot;atomic&quot; code by A. Dal Corso  v.6.3
     Shape of augmentation charge: PSQ
     Using radial grid of 1141 points,  6 beta functions with: 
                l(1) =   0
                l(2) =   0
                l(3) =   1
                l(4) =   1
                l(5) =   2
                l(6) =   2
     Q(r) pseudized with 0 coefficients 


     atomic species   valence    mass     pseudopotential
     Al                3.00    26.98154     Al( 1.00)
     Fe1              16.00    55.84500     Fe( 1.00)
     Fe2              16.00    55.84500     Fe( 1.00)
     H                 1.00     1.00794     H ( 1.00)
     K                 9.00    39.09830     K ( 1.00)
     Mg               10.00    24.30500     Mg( 1.00)
     O                 6.00    15.99940     O ( 1.00)
     Si                4.00    28.08550     Si( 1.00)

     Starting magnetic structure 
     atomic species   magnetization
     Al              0.000
     Fe1             0.300
     Fe2            -0.300
     H               0.000
     K               0.000
     Mg              0.000
     O               0.000
     Si              0.000

      2 Sym. Ops. (no inversion) found


                                    s                        frac. trans.

      isym =  1     identity                                     

 cryst.   s( 1) = (     1          0          0      )
                  (     0          1          0      )
                  (     0          0          1      )

 cart.    s( 1) = (  1.0000000  0.0000000  0.0000000 )
                  (  0.0000000  1.0000000  0.0000000 )
                  (  0.0000000  0.0000000  1.0000000 )


      isym =  2     180 deg rotation - cart. axis [0,1,0]        

 cryst.   s( 2) = (    -1          0          0      )
                  (     0          1          0      )
                  (     0          0         -1      )

 cart.    s( 2) = ( -1.0000000  0.0000000  0.0000000 )
                  (  0.0000000  1.0000000  0.0000000 )
                  (  0.0000000  0.0000000 -1.0000000 )


     point group C_2  (2)   
     there are  2 classes
     the character table:

       E     C2   
A      1.00  1.00
B      1.00 -1.00

     the symmetry operations in each class and the name of the first element:

     E        1
          identity                                               
     C2       2
          180 deg rotation - cart. axis [0,1,0]                  

   Cartesian axes

     site n.     atom                  positions (alat units)
         1        K      tau(   1) = (   0.0000000   0.4296389   0.0000000  )
         2        K      tau(   2) = (   0.5000000   0.4296389   0.0000000  )
         3        K      tau(   3) = (   0.2500001   0.0024501   0.0000000  )
         4        K      tau(   4) = (   0.7500001   0.0024501   0.0000000  )
         5        Mg     tau(   5) = (  -0.0870414   0.0055279   0.4808550  )
         6        Mg     tau(   6) = (   0.4129586   0.0055279   0.4808550  )
         7        Mg     tau(   7) = (  -0.0870414   0.5801280   0.4808550  )
         8        Mg     tau(   8) = (   0.4129586   0.5801280   0.4808550  )
         9        Mg     tau(   9) = (   0.1629587   0.4310949   0.4808550  )
        10        Mg     tau(  10) = (   0.6629587   0.4310949   0.4808550  )
        11        Mg     tau(  11) = (   0.1629587   0.7269300   0.4808550  )
        12        Mg     tau(  12) = (   0.6629587   0.7269300   0.4808550  )
        13        Mg     tau(  13) = (   0.1629587   0.1482588   0.4808550  )
        14        Mg     tau(  14) = (   0.6629587   0.1482588   0.4808550  )
        15        Si     tau(  15) = (   0.0074326   0.1420119   0.2164892  )
        16        Si     tau(  16) = (   0.5074326   0.1420119   0.2164892  )
        17        Si     tau(  17) = (   0.3184849   0.1420119   0.7452208  )
        18        Si     tau(  18) = (   0.8184849   0.1420119   0.7452208  )
        19        Si     tau(  19) = (   0.3331608   0.7257911   0.7377580  )
        20        Si     tau(  20) = (   0.8331608   0.7257911   0.7377580  )
        21        Si     tau(  21) = (  -0.0072433   0.7257911   0.2239520  )
        22        Si     tau(  22) = (   0.4927567   0.7257911   0.2239520  )
        23        Si     tau(  23) = (   0.2427667   0.5796705   0.2225784  )
        24        Si     tau(  24) = (   0.7427667   0.5796705   0.2225784  )
        25        Si     tau(  25) = (   0.0831508   0.5796705   0.7391315  )
        26        Si     tau(  26) = (   0.5831508   0.5796705   0.7391315  )
        27        Al     tau(  27) = (   0.0682443   0.2875617   0.7425041  )
        28        Al     tau(  28) = (   0.5682443   0.2875617   0.7425041  )
        29        Al     tau(  29) = (   0.2576732   0.2875617   0.2192058  )
        30        Al     tau(  30) = (   0.7576731   0.2875617   0.2192058  )
        31        O      tau(  31) = (   0.0017352   0.1371008   0.3693886  )
        32        O      tau(  32) = (   0.5017352   0.1371008   0.3693886  )
        33        O      tau(  33) = (   0.3241823   0.1371008   0.5923214  )
        34        O      tau(  34) = (   0.8241823   0.1371008   0.5923214  )
        35        O      tau(  35) = (   0.3309875   0.7260882   0.5856762  )
        36        O      tau(  36) = (   0.8309875   0.7260882   0.5856762  )
        37        O      tau(  37) = (  -0.0050700   0.7260882   0.3760337  )
        38        O      tau(  38) = (   0.4949300   0.7260882   0.3760337  )
        39        O      tau(  39) = (   0.2456591   0.5824087   0.3753945  )
        40        O      tau(  40) = (   0.7456591   0.5824087   0.3753945  )
        41        O      tau(  41) = (   0.0802583   0.5824087   0.5863155  )
        42        O      tau(  42) = (   0.5802583   0.5824087   0.5863155  )
        43        O      tau(  43) = (   0.0748950   0.2898192   0.5784747  )
        44        O      tau(  44) = (   0.5748950   0.2898192   0.5784747  )
        45        O      tau(  45) = (   0.2510225   0.2898192   0.3832352  )
        46        O      tau(  46) = (   0.7510224   0.2898192   0.3832352  )
        47        O      tau(  47) = (   0.1463863   0.1775489   0.1626707  )
        48        O      tau(  48) = (   0.6463863   0.1775489   0.1626707  )
        49        O      tau(  49) = (   0.1795312   0.1775489   0.7990392  )
        50        O      tau(  50) = (   0.6795312   0.1775489   0.7990392  )
        51        O      tau(  51) = (  -0.0250455   0.8667889   0.1630411  )
        52        O      tau(  52) = (   0.4749545   0.8667889   0.1630411  )
        53        O      tau(  53) = (   0.3509630   0.8667889   0.7986688  )
        54        O      tau(  54) = (   0.8509630   0.8667889   0.7986688  )
        55        O      tau(  55) = (   0.2001651   0.6682872   0.7942782  )
        56        O      tau(  56) = (   0.7001651   0.6682872   0.7942782  )
        57        O      tau(  57) = (   0.1257524   0.6682872   0.1674318  )
        58        O      tau(  58) = (   0.6257524   0.6682872   0.1674318  )
        59        O      tau(  59) = (   0.3751016   0.6421235   0.1665090  )
        60        O      tau(  60) = (   0.8751016   0.6421235   0.1665090  )
        61        O      tau(  61) = (  -0.0491842   0.6421235   0.7952009  )
        62        O      tau(  62) = (   0.4508158   0.6421235   0.7952009  )
        63        O      tau(  63) = (   0.2267361   0.4412388   0.1614261  )
        64        O      tau(  64) = (   0.7267362   0.4412388   0.1614261  )
        65        O      tau(  65) = (   0.0991813   0.4412388   0.8002838  )
        66        O      tau(  66) = (   0.5991813   0.4412388   0.8002838  )
        67        O      tau(  67) = (  -0.0785908   0.2392057   0.8031981  )
        68        O      tau(  68) = (   0.4214092   0.2392057   0.8031981  )
        69        O      tau(  69) = (   0.4045083   0.2392057   0.1585119  )
        70        O      tau(  70) = (   0.9045082   0.2392057   0.1585119  )
        71        O      tau(  71) = (  -0.0000042   0.4450115   0.3781135  )
        72        O      tau(  72) = (   0.4999958   0.4450115   0.3781135  )
        73        O      tau(  73) = (   0.3259217   0.4450115   0.5835965  )
        74        O      tau(  74) = (   0.8259217   0.4450115   0.5835965  )
        75        O      tau(  75) = (   0.2478596   0.8693925   0.3836472  )
        76        O      tau(  76) = (   0.7478596   0.8693925   0.3836472  )
        77        O      tau(  77) = (   0.0780579   0.8693925   0.5780627  )
        78        O      tau(  78) = (   0.5780579   0.8693925   0.5780627  )
        79        H      tau(  79) = (   0.0004471   0.4269259   0.2892434  )
        80        H      tau(  80) = (   0.5004471   0.4269259   0.2892434  )
        81        H      tau(  81) = (   0.3254704   0.4269259   0.6724666  )
        82        H      tau(  82) = (   0.8254704   0.4269259   0.6724666  )
        83        H      tau(  83) = (   0.2447352   0.0128545   0.2939423  )
        84        H      tau(  84) = (   0.7447351   0.0128545   0.2939423  )
        85        H      tau(  85) = (   0.0811823   0.0128545   0.6677677  )
        86        H      tau(  86) = (   0.5811823   0.0128545   0.6677677  )
        87        Fe1    tau(  87) = (  -0.0870414   0.2919251   0.4808550  )
        88        Fe2    tau(  88) = (   0.4129586   0.2919251   0.4808550  )

     --------------------------------------------
     DFT-D3 Dispersion Correction (3-body terms):
     --------------------------------------------
       Reference C6 values for interpolation: 

         atom   Coordination number   C6
         H          0.912             6.05
         H          0.000            15.18
         O          0.000            31.01
         O          0.993            25.63
         O          1.989            20.74
         Mg         0.000          1366.75
         Mg         0.963           902.54
         Mg         1.950           351.12
         Al         0.000          1081.08
         Al         0.965           875.51
         Al         1.931           513.50
         Al         2.915           307.19
         Si         0.000           635.71
         Si         0.951           540.53
         Si         1.944           466.25
         Si         2.941           443.01
         Si         3.868           299.55
         K          0.000          9967.00
         K          0.977           676.04
         Fe1        0.000           982.67
         Fe1        1.648           409.99
         Fe1        9.138           219.01
         Fe2        0.000           982.67
         Fe2        1.648           409.99
         Fe2        9.138           219.01

       Values used:

         atom   Coordination number  R0_AB[au]  C6      C8
         K         11.877            4.007    676.04 129074.98
         K         11.877            4.007    676.04 129074.98
         K         12.270            4.007    676.04 129074.98
         K         12.270            4.007    676.04 129074.98
         Mg        11.314            3.292    351.12  31436.69
         Mg        11.314            3.292    351.12  31436.69
         Mg        11.299            3.292    351.12  31436.69
         Mg        11.299            3.292    351.12  31436.69
         Mg        11.204            3.292    351.12  31436.69
         Mg        11.204            3.292    351.12  31436.69
         Mg        11.573            3.292    351.12  31436.69
         Mg        11.573            3.292    351.12  31436.69
         Mg        11.383            3.292    351.12  31436.69
         Mg        11.383            3.292    351.12  31436.69
         Si         6.519            3.583    299.55  21425.58
         Si         6.519            3.583    299.55  21425.58
         Si         6.519            3.583    299.55  21425.58
         Si         6.519            3.583    299.55  21425.58
         Si         6.299            3.583    299.55  21425.58
         Si         6.299            3.583    299.55  21425.58
         Si         6.299            3.583    299.55  21425.58
         Si         6.299            3.583    299.55  21425.58
         Si         6.332            3.583    299.55  21425.58
         Si         6.332            3.583    299.55  21425.58
         Si         6.332            3.583    299.55  21425.58
         Si         6.332            3.583    299.55  21425.58
         Al         7.195            3.789    307.19  29441.29
         Al         7.195            3.789    307.19  29441.29
         Al         7.195            3.789    307.19  29441.29
         Al         7.195            3.789    307.19  29441.29
         O          3.463            2.345     20.74    418.58
         O          3.463            2.345     20.74    418.58
         O          3.463            2.345     20.74    418.58
         O          3.463            2.345     20.74    418.58
         O          3.908            2.345     20.74    418.58
         O          3.908            2.345     20.74    418.58
         O          3.908            2.345     20.74    418.58
         O          3.908            2.345     20.74    418.58
         O          3.897            2.345     20.74    418.58
         O          3.897            2.345     20.74    418.58
         O          3.897            2.345     20.74    418.58
         O          3.897            2.345     20.74    418.58
         O          3.833            2.345     20.74    418.58
         O          3.833            2.345     20.74    418.58
         O          3.833            2.345     20.74    418.58
         O          3.833            2.345     20.74    418.58
         O          3.114            2.345     20.74    418.58
         O          3.114            2.345     20.74    418.58
         O          3.114            2.345     20.74    418.58
         O          3.114            2.345     20.74    418.58
         O          3.077            2.345     20.74    418.58
         O          3.077            2.345     20.74    418.58
         O          3.077            2.345     20.74    418.58
         O          3.077            2.345     20.74    418.58
         O          2.927            2.345     20.74    418.58
         O          2.927            2.345     20.74    418.58
         O          2.927            2.345     20.74    418.58
         O          2.927            2.345     20.74    418.58
         O          2.924            2.345     20.74    418.58
         O          2.924            2.345     20.74    418.58
         O          2.924            2.345     20.74    418.58
         O          2.924            2.345     20.74    418.58
         O          3.084            2.345     20.74    418.58
         O          3.084            2.345     20.74    418.58
         O          3.084            2.345     20.74    418.58
         O          3.084            2.345     20.74    418.58
         O          3.139            2.345     20.74    418.58
         O          3.139            2.345     20.74    418.58
         O          3.139            2.345     20.74    418.58
         O          3.139            2.345     20.74    418.58
         O          3.632            2.345     20.74    418.58
         O          3.632            2.345     20.74    418.58
         O          3.632            2.345     20.74    418.58
         O          3.632            2.345     20.74    418.58
         O          3.981            2.345     20.74    418.58
         O          3.981            2.345     20.74    418.58
         O          3.981            2.345     20.74    418.58
         O          3.981            2.345     20.74    418.58
         H          1.231            2.062      6.08     73.47
         H          1.231            2.062      6.08     73.47
         H          1.231            2.062      6.08     73.47
         H          1.231            2.062      6.08     73.47
         H          1.237            2.062      6.08     73.45
         H          1.237            2.062      6.08     73.45
         H          1.237            2.062      6.08     73.45
         H          1.237            2.062      6.08     73.45
         Fe1        7.261            3.252    219.01  20487.87
         Fe2        7.261            3.252    219.01  20487.87

         Molecular C6 ( Ry / a.u.^6 ) =    661236.15


   Crystallographic axes

     site n.     atom                  positions (cryst. coord.)
         1        K      tau(   1) = (  0.0000000  0.4939509  0.0000000  )
         2        K      tau(   2) = (  0.5000000  0.4939509  0.0000000  )
         3        K      tau(   3) = (  0.2500001  0.0028168  0.0000000  )
         4        K      tau(   4) = (  0.7500001  0.0028168  0.0000000  )
         5        Mg     tau(   5) = (  0.0000000  0.0063553  0.4999999  )
         6        Mg     tau(   6) = (  0.5000000  0.0063553  0.4999999  )
         7        Mg     tau(   7) = (  0.0000000  0.6669664  0.4999999  )
         8        Mg     tau(   8) = (  0.5000000  0.6669664  0.4999999  )
         9        Mg     tau(   9) = (  0.2500001  0.4956248  0.4999999  )
        10        Mg     tau(  10) = (  0.7500001  0.4956248  0.4999999  )
        11        Mg     tau(  11) = (  0.2500001  0.8357430  0.4999999  )
        12        Mg     tau(  12) = (  0.7500001  0.8357430  0.4999999  )
        13        Mg     tau(  13) = (  0.2500001  0.1704514  0.4999999  )
        14        Mg     tau(  14) = (  0.7500001  0.1704514  0.4999999  )
        15        Si     tau(  15) = (  0.0466201  0.1632694  0.2251086  )
        16        Si     tau(  16) = (  0.5466201  0.1632694  0.2251086  )
        17        Si     tau(  17) = (  0.4533802  0.1632694  0.7748913  )
        18        Si     tau(  18) = (  0.9533802  0.1632694  0.7748913  )
        19        Si     tau(  19) = (  0.4667052  0.8344337  0.7671314  )
        20        Si     tau(  20) = (  0.9667052  0.8344337  0.7671314  )
        21        Si     tau(  21) = (  0.0332951  0.8344337  0.2328685  )
        22        Si     tau(  22) = (  0.5332951  0.8344337  0.2328685  )
        23        Si     tau(  23) = (  0.2830564  0.6664404  0.2314402  )
        24        Si     tau(  24) = (  0.7830564  0.6664404  0.2314402  )
        25        Si     tau(  25) = (  0.2169439  0.6664404  0.7685596  )
        26        Si     tau(  26) = (  0.7169439  0.6664404  0.7685596  )
        27        Al     tau(  27) = (  0.2026479  0.3306063  0.7720665  )
        28        Al     tau(  28) = (  0.7026479  0.3306063  0.7720665  )
        29        Al     tau(  29) = (  0.2973525  0.3306063  0.2279334  )
        30        Al     tau(  30) = (  0.7973524  0.3306063  0.2279334  )
        31        O      tau(  31) = (  0.0685997  0.1576232  0.3840956  )
        32        O      tau(  32) = (  0.5685996  0.1576232  0.3840956  )
        33        O      tau(  33) = (  0.4314007  0.1576232  0.6159044  )
        34        O      tau(  34) = (  0.9314007  0.1576232  0.6159044  )
        35        O      tau(  35) = (  0.4370030  0.8347753  0.6089946  )
        36        O      tau(  36) = (  0.9370030  0.8347753  0.6089946  )
        37        O      tau(  37) = (  0.0629973  0.8347753  0.3910053  )
        38        O      tau(  38) = (  0.5629973  0.8347753  0.3910053  )
        39        O      tau(  39) = (  0.3136107  0.6695885  0.3903406  )
        40        O      tau(  40) = (  0.8136107  0.6695885  0.3903406  )
        41        O      tau(  41) = (  0.1863896  0.6695885  0.6096593  )
        42        O      tau(  42) = (  0.6863896  0.6695885  0.6096593  )
        43        O      tau(  43) = (  0.1796070  0.3332018  0.6015063  )
        44        O      tau(  44) = (  0.6796070  0.3332018  0.6015063  )
        45        O      tau(  45) = (  0.3203934  0.3332018  0.3984935  )
        46        O      tau(  46) = (  0.8203933  0.3332018  0.3984935  )
        47        O      tau(  47) = (  0.1758320  0.2041259  0.1691474  )
        48        O      tau(  48) = (  0.6758320  0.2041259  0.1691474  )
        49        O      tau(  49) = (  0.3241684  0.2041259  0.8308524  )
        50        O      tau(  50) = (  0.8241683  0.2041259  0.8308524  )
        51        O      tau(  51) = (  0.0044672  0.9965371  0.1695325  )
        52        O      tau(  52) = (  0.5044672  0.9965371  0.1695325  )
        53        O      tau(  53) = (  0.4955331  0.9965371  0.8304673  )
        54        O      tau(  54) = (  0.9955331  0.9965371  0.8304673  )
        55        O      tau(  55) = (  0.3439404  0.7683221  0.8259019  )
        56        O      tau(  56) = (  0.8439404  0.7683221  0.8259019  )
        57        O      tau(  57) = (  0.1560599  0.7683221  0.1740980  )
        58        O      tau(  58) = (  0.6560599  0.7683221  0.1740980  )
        59        O      tau(  59) = (  0.4052421  0.7382420  0.1731385  )
        60        O      tau(  60) = (  0.9052421  0.7382420  0.1731385  )
        61        O      tau(  61) = (  0.0947582  0.7382420  0.8268614  )
        62        O      tau(  62) = (  0.5947582  0.7382420  0.8268614  )
        63        O      tau(  63) = (  0.2559565  0.5072872  0.1678532  )
        64        O      tau(  64) = (  0.7559565  0.5072872  0.1678532  )
        65        O      tau(  65) = (  0.2440438  0.5072872  0.8321466  )
        66        O      tau(  66) = (  0.7440438  0.5072872  0.8321466  )
        67        O      tau(  67) = (  0.0667992  0.2750120  0.8351769  )
        68        O      tau(  68) = (  0.5667992  0.2750120  0.8351769  )
        69        O      tau(  69) = (  0.4332011  0.2750120  0.1648230  )
        70        O      tau(  70) = (  0.9332011  0.2750120  0.1648230  )
        71        O      tau(  71) = (  0.0684395  0.5116246  0.3931678  )
        72        O      tau(  72) = (  0.5684395  0.5116246  0.3931678  )
        73        O      tau(  73) = (  0.4315608  0.5116246  0.6068321  )
        74        O      tau(  74) = (  0.9315608  0.5116246  0.6068321  )
        75        O      tau(  75) = (  0.3173051  0.9995306  0.3989219  )
        76        O      tau(  76) = (  0.8173051  0.9995306  0.3989219  )
        77        O      tau(  77) = (  0.1826953  0.9995306  0.6010780  )
        78        O      tau(  78) = (  0.6826953  0.9995306  0.6010780  )
        79        H      tau(  79) = (  0.0528041  0.4908318  0.3007595  )
        80        H      tau(  80) = (  0.5528042  0.4908318  0.3007595  )
        81        H      tau(  81) = (  0.4471962  0.4908318  0.6992404  )
        82        H      tau(  82) = (  0.9471962  0.4908318  0.6992404  )
        83        H      tau(  83) = (  0.2979428  0.0147786  0.3056454  )
        84        H      tau(  84) = (  0.7979428  0.0147786  0.3056454  )
        85        H      tau(  85) = (  0.2020575  0.0147786  0.6943545  )
        86        H      tau(  86) = (  0.7020575  0.0147786  0.6943545  )
        87        Fe1    tau(  87) = (  0.0000000  0.3356230  0.4999999  )
        88        Fe2    tau(  88) = (  0.5000000  0.3356230  0.4999999  )

     number of k points=    10  Gaussian smearing, width (Ry)=  0.0010
                       cart. coord. in units 2pi/alat
        k(    1) = (   0.0000000   0.0000000   0.0000000), wk =   0.0370370
        k(    2) = (   0.0000000   0.0000000   0.3466048), wk =   0.0740741
        k(    3) = (   0.0000000   0.3832295   0.0000000), wk =   0.0740741
        k(    4) = (   0.0000000   0.3832295   0.3466048), wk =   0.1481481
        k(    5) = (   0.3333333   0.0000000   0.0603380), wk =   0.0740741
        k(    6) = (   0.3333333   0.0000000   0.4069428), wk =   0.0740741
        k(    7) = (   0.3333333   0.0000000  -0.2862669), wk =   0.0740741
        k(    8) = (   0.3333333   0.3832295   0.0603380), wk =   0.1481481
        k(    9) = (   0.3333333   0.3832295   0.4069428), wk =   0.1481481
        k(   10) = (   0.3333333   0.3832295  -0.2862669), wk =   0.1481481

                       cryst. coord.
        k(    1) = (   0.0000000   0.0000000   0.0000000), wk =   0.0370370
        k(    2) = (   0.0000000   0.0000000   0.3333333), wk =   0.0740741
        k(    3) = (   0.0000000   0.3333333   0.0000000), wk =   0.0740741
        k(    4) = (   0.0000000   0.3333333   0.3333333), wk =   0.1481481
        k(    5) = (   0.3333333   0.0000000   0.0000000), wk =   0.0740741
        k(    6) = (   0.3333333   0.0000000   0.3333333), wk =   0.0740741
        k(    7) = (   0.3333333   0.0000000  -0.3333333), wk =   0.0740741
        k(    8) = (   0.3333333   0.3333333   0.0000000), wk =   0.1481481
        k(    9) = (   0.3333333   0.3333333   0.3333333), wk =   0.1481481
        k(   10) = (   0.3333333   0.3333333  -0.3333333), wk =   0.1481481

     Dense  grid:  1212455 G-vectors     FFT dimensions: ( 144, 125, 144)

     Smooth grid:   428701 G-vectors     FFT dimensions: ( 100,  90, 100)

     Dynamical RAM for                 wfc:      42.80 MB

     Dynamical RAM for     wfc (w. buffer):     898.71 MB

     Dynamical RAM for           str. fact:      24.67 MB

     Dynamical RAM for           local pot:       0.00 MB

     Dynamical RAM for          nlocal pot:     119.39 MB

     Dynamical RAM for                qrad:      28.13 MB

     Dynamical RAM for          rho,v,vnew:      38.28 MB

     Dynamical RAM for               rhoin:      12.76 MB

     Dynamical RAM for            rho*nmix:      98.67 MB

     Dynamical RAM for           G-vectors:      12.11 MB

     Dynamical RAM for          h,s,v(r/c):       4.51 MB

     Dynamical RAM for          <psi|beta>:       4.20 MB

     Dynamical RAM for                 psi:      85.59 MB

     Dynamical RAM for                hpsi:      85.59 MB

     Dynamical RAM for                spsi:      85.59 MB

     Dynamical RAM for      wfcinit/wfcrot:     102.83 MB

     Dynamical RAM for           addusdens:     724.61 MB

     Dynamical RAM for          addusforce:    1014.83 MB

     Dynamical RAM for         addusstress:     624.40 MB

     Estimated static dynamical RAM per process >       1.15 GB

     Estimated max dynamical RAM per process >       2.24 GB

     Estimated total dynamical RAM >      13.45 GB

     Check: negative core charge=   -0.000004
     Generating pointlists ...
     new r_m :   0.0677 (alat units)  1.3636 (a.u.) for type    1
     new r_m :   0.0780 (alat units)  1.5706 (a.u.) for type    2
     new r_m :   0.0780 (alat units)  1.5706 (a.u.) for type    3
     new r_m :   0.0374 (alat units)  0.7533 (a.u.) for type    4
     new r_m :   0.1075 (alat units)  2.1636 (a.u.) for type    5
     new r_m :   0.0787 (alat units)  1.5844 (a.u.) for type    6
     new r_m :   0.0374 (alat units)  0.7533 (a.u.) for type    7
     new r_m :   0.0627 (alat units)  1.2633 (a.u.) for type    8

     Initial potential from superposition of free atoms

     starting charge     523.8985, renormalised to     524.0000
     Starting wfcs are  366 randomized atomic wfcs
     Checking if some PAW data can be deallocated... 
       PAW data deallocated on    5 nodes for type:  1
       PAW data deallocated on    5 nodes for type:  2
       PAW data deallocated on    5 nodes for type:  3
       PAW data deallocated on    5 nodes for type:  4
       PAW data deallocated on    5 nodes for type:  5
       PAW data deallocated on    5 nodes for type:  6
       PAW data deallocated on    2 nodes for type:  7
       PAW data deallocated on    4 nodes for type:  8

     total cpu time spent up to now is      623.3 secs

     Self-consistent Calculation

     iteration #  1     ecut=    60.00 Ry     beta= 0.70
     Davidson diagonalization with overlap

---- Real-time Memory Report at c_bands before calling an iterative solver
          1301 MiB given to the printing process from OS
             0 MiB allocation reported by mallinfo(arena+hblkhd)
           564 MiB available memory on the node where the printing process lives
------------------
     ethr =  1.00E-02,  avg # of iterations =  5.8

     negative rho (up, down):  1.390E-04 1.605E-04

     total cpu time spent up to now is     2646.1 secs

     total energy              =   -5247.34620897 Ry
     estimated scf accuracy    <      24.94982728 Ry

     total magnetization       =     0.10 Bohr mag/cell
     absolute magnetization    =     8.07 Bohr mag/cell

     iteration #  2     ecut=    60.00 Ry     beta= 0.70
     Davidson diagonalization with overlap

---- Real-time Memory Report at c_bands before calling an iterative solver
          1908 MiB given to the printing process from OS
             0 MiB allocation reported by mallinfo(arena+hblkhd)
          3151 MiB available memory on the node where the printing process lives
------------------
     ethr =  4.76E-03,  avg # of iterations =  5.0

     negative rho (up, down):  2.645E-04 0.000E+00

     total cpu time spent up to now is     5798.1 secs

     total energy              =   -5256.39186292 Ry
     estimated scf accuracy    <      28.11499429 Ry

     total magnetization       =    -1.73 Bohr mag/cell
     absolute magnetization    =     6.56 Bohr mag/cell

     iteration #  3     ecut=    60.00 Ry     beta= 0.70
     Davidson diagonalization with overlap

---- Real-time Memory Report at c_bands before calling an iterative solver
          1914 MiB given to the printing process from OS
             0 MiB allocation reported by mallinfo(arena+hblkhd)
          3198 MiB available memory on the node where the printing process lives
------------------
     ethr =  4.76E-03,  avg # of iterations =  4.1

     negative rho (up, down):  1.248E-04 0.000E+00

     total cpu time spent up to now is     7433.9 secs

     total energy              =   -5259.34582408 Ry
     estimated scf accuracy    <      53.57094872 Ry

     total magnetization       =    -0.00 Bohr mag/cell
     absolute magnetization    =     1.14 Bohr mag/cell

     iteration #  4     ecut=    60.00 Ry     beta= 0.70
     Davidson diagonalization with overlap

---- Real-time Memory Report at c_bands before calling an iterative solver
          1918 MiB given to the printing process from OS
             0 MiB allocation reported by mallinfo(arena+hblkhd)
          3511 MiB available memory on the node where the printing process lives
------------------
     ethr =  4.76E-03,  avg # of iterations =  3.5

     negative rho (up, down):  2.557E-04 1.117E-04

     total cpu time spent up to now is     9059.4 secs

     total energy              =   -5260.96514815 Ry
     estimated scf accuracy    <       4.48476821 Ry

     total magnetization       =    -0.05 Bohr mag/cell
     absolute magnetization    =    10.15 Bohr mag/cell

     iteration #  5     ecut=    60.00 Ry     beta= 0.70
     Davidson diagonalization with overlap

---- Real-time Memory Report at c_bands before calling an iterative solver
          1923 MiB given to the printing process from OS
             0 MiB allocation reported by mallinfo(arena+hblkhd)
          3287 MiB available memory on the node where the printing process lives
------------------
     ethr =  8.56E-04,  avg # of iterations =  8.4

     negative rho (up, down):  2.714E-04 3.367E-04

     total cpu time spent up to now is    11084.6 secs

     total energy              =   -5261.87903458 Ry
     estimated scf accuracy    <       3.51350707 Ry

     total magnetization       =     2.00 Bohr mag/cell
     absolute magnetization    =     7.75 Bohr mag/cell

     iteration #  6     ecut=    60.00 Ry     beta= 0.70
     Davidson diagonalization with overlap

---- Real-time Memory Report at c_bands before calling an iterative solver
          1928 MiB given to the printing process from OS
             0 MiB allocation reported by mallinfo(arena+hblkhd)
          3337 MiB available memory on the node where the printing process lives
------------------
     ethr =  6.71E-04,  avg # of iterations =  2.8

     negative rho (up, down):  3.539E-04 2.536E-04

     total cpu time spent up to now is    12797.8 secs

     total energy              =   -5262.17152949 Ry
     estimated scf accuracy    <       1.56243242 Ry

     total magnetization       =    -2.00 Bohr mag/cell
     absolute magnetization    =     8.22 Bohr mag/cell

     iteration #  7     ecut=    60.00 Ry     beta= 0.70
     Davidson diagonalization with overlap

---- Real-time Memory Report at c_bands before calling an iterative solver
          1933 MiB given to the printing process from OS
             0 MiB allocation reported by mallinfo(arena+hblkhd)
          3461 MiB available memory on the node where the printing process lives
------------------
     c_bands:  2 eigenvalues not converged
     ethr =  2.98E-04,  avg # of iterations = 12.0

     negative rho (up, down):  3.998E-04 3.220E-04

     total cpu time spent up to now is    15065.0 secs

     total energy              =   -5262.46651794 Ry
     estimated scf accuracy    <       0.17676712 Ry

     total magnetization       =     0.00 Bohr mag/cell
     absolute magnetization    =     8.60 Bohr mag/cell

     iteration #  8     ecut=    60.00 Ry     beta= 0.70
     Davidson diagonalization with overlap

---- Real-time Memory Report at c_bands before calling an iterative solver
          1938 MiB given to the printing process from OS
             0 MiB allocation reported by mallinfo(arena+hblkhd)
          3349 MiB available memory on the node where the printing process lives
------------------
     c_bands:  2 eigenvalues not converged
     c_bands:  4 eigenvalues not converged
     c_bands:  2 eigenvalues not converged
     c_bands:  1 eigenvalues not converged
     c_bands:  2 eigenvalues not converged
     c_bands:  2 eigenvalues not converged
     c_bands:  1 eigenvalues not converged
     c_bands:  1 eigenvalues not converged
     c_bands:  2 eigenvalues not converged
     c_bands:  1 eigenvalues not converged
     c_bands:  1 eigenvalues not converged
     c_bands:  4 eigenvalues not converged
     c_bands:  1 eigenvalues not converged
     ethr =  3.37E-05,  avg # of iterations = 19.3

     negative rho (up, down):  3.925E-04 3.222E-04

     total cpu time spent up to now is    18589.3 secs

     total energy              =   -5262.50204703 Ry
     estimated scf accuracy    <       0.19483473 Ry

     total magnetization       =    -0.00 Bohr mag/cell
     absolute magnetization    =     8.11 Bohr mag/cell

     iteration #  9     ecut=    60.00 Ry     beta= 0.70
     Davidson diagonalization with overlap

---- Real-time Memory Report at c_bands before calling an iterative solver
          1942 MiB given to the printing process from OS
             0 MiB allocation reported by mallinfo(arena+hblkhd)
          3187 MiB available memory on the node where the printing process lives
------------------
     c_bands:  1 eigenvalues not converged
     ethr =  3.37E-05,  avg # of iterations =  4.0

     negative rho (up, down):  3.938E-04 3.323E-04

     total cpu time spent up to now is    20210.6 secs

     total energy              =   -5262.49889263 Ry
     estimated scf accuracy    <       0.04985944 Ry

     total magnetization       =    -0.00 Bohr mag/cell
     absolute magnetization    =     8.09 Bohr mag/cell

     iteration # 10     ecut=    60.00 Ry     beta= 0.70
     Davidson diagonalization with overlap

---- Real-time Memory Report at c_bands before calling an iterative solver
          1947 MiB given to the printing process from OS
             0 MiB allocation reported by mallinfo(arena+hblkhd)
          3239 MiB available memory on the node where the printing process lives
------------------
     c_bands:  1 eigenvalues not converged
     c_bands:  2 eigenvalues not converged
     c_bands:  1 eigenvalues not converged
     c_bands:  3 eigenvalues not converged
     c_bands:  3 eigenvalues not converged
     c_bands:  1 eigenvalues not converged
     c_bands:  1 eigenvalues not converged
     c_bands:  1 eigenvalues not converged
     c_bands:  1 eigenvalues not converged
     c_bands:  2 eigenvalues not converged
     c_bands:  2 eigenvalues not converged
     ethr =  9.52E-06,  avg # of iterations = 19.3

     negative rho (up, down):  3.979E-04 3.387E-04

     total cpu time spent up to now is    23239.9 secs

     total energy              =   -5262.52613622 Ry
     estimated scf accuracy    <       0.02521836 Ry

     total magnetization       =     0.00 Bohr mag/cell
     absolute magnetization    =     8.09 Bohr mag/cell

     iteration # 11     ecut=    60.00 Ry     beta= 0.70
     Davidson diagonalization with overlap

---- Real-time Memory Report at c_bands before calling an iterative solver
          1952 MiB given to the printing process from OS
             0 MiB allocation reported by mallinfo(arena+hblkhd)
          3287 MiB available memory on the node where the printing process lives
------------------
     c_bands:  3 eigenvalues not converged
     c_bands:  1 eigenvalues not converged
     c_bands:  4 eigenvalues not converged
     c_bands:  1 eigenvalues not converged
     c_bands:  1 eigenvalues not converged
     c_bands:  1 eigenvalues not converged
     c_bands:  1 eigenvalues not converged
     ethr =  4.81E-06,  avg # of iterations = 14.3

     negative rho (up, down):  3.997E-04 3.530E-04

     total cpu time spent up to now is    25267.8 secs

     total energy              =   -5262.52662168 Ry
     estimated scf accuracy    <       0.01376195 Ry

     total magnetization       =     0.00 Bohr mag/cell
     absolute magnetization    =     8.09 Bohr mag/cell

     iteration # 12     ecut=    60.00 Ry     beta= 0.70
     Davidson diagonalization with overlap

---- Real-time Memory Report at c_bands before calling an iterative solver
          1952 MiB given to the printing process from OS
             0 MiB allocation reported by mallinfo(arena+hblkhd)
          3477 MiB available memory on the node where the printing process lives
------------------
     c_bands:  1 eigenvalues not converged
     c_bands:  3 eigenvalues not converged
     c_bands:  1 eigenvalues not converged
     c_bands:  1 eigenvalues not converged
     c_bands:  2 eigenvalues not converged
     c_bands:  1 eigenvalues not converged
     c_bands:  1 eigenvalues not converged
     ethr =  2.63E-06,  avg # of iterations = 16.0

     negative rho (up, down):  3.974E-04 3.639E-04

     total cpu time spent up to now is    27343.0 secs

     total energy              =   -5262.52821234 Ry
     estimated scf accuracy    <       0.00661454 Ry

     total magnetization       =    -0.00 Bohr mag/cell
     absolute magnetization    =     8.08 Bohr mag/cell

     iteration # 13     ecut=    60.00 Ry     beta= 0.70
     Davidson diagonalization with overlap

---- Real-time Memory Report at c_bands before calling an iterative solver
          1952 MiB given to the printing process from OS
             0 MiB allocation reported by mallinfo(arena+hblkhd)
          3500 MiB available memory on the node where the printing process lives
------------------
     c_bands:  1 eigenvalues not converged
     c_bands:  1 eigenvalues not converged
     c_bands:  1 eigenvalues not converged
     c_bands:  1 eigenvalues not converged
     c_bands:  2 eigenvalues not converged
     ethr =  1.26E-06,  avg # of iterations = 11.4

     negative rho (up, down):  3.961E-04 3.676E-04

     total cpu time spent up to now is    29395.5 secs

     total energy              =   -5262.52908449 Ry
     estimated scf accuracy    <       0.00531358 Ry

     total magnetization       =    -0.00 Bohr mag/cell
     absolute magnetization    =     8.08 Bohr mag/cell

     iteration # 14     ecut=    60.00 Ry     beta= 0.70
     Davidson diagonalization with overlap

---- Real-time Memory Report at c_bands before calling an iterative solver
          1952 MiB given to the printing process from OS
             0 MiB allocation reported by mallinfo(arena+hblkhd)
          3337 MiB available memory on the node where the printing process lives
------------------
     ethr =  1.01E-06,  avg # of iterations =  2.4

     negative rho (up, down):  3.953E-04 3.643E-04

     total cpu time spent up to now is    31089.6 secs

     total energy              =   -5262.52996943 Ry
     estimated scf accuracy    <       0.00440249 Ry

     total magnetization       =     0.00 Bohr mag/cell
     absolute magnetization    =     8.08 Bohr mag/cell

     iteration # 15     ecut=    60.00 Ry     beta= 0.70
     Davidson diagonalization with overlap

---- Real-time Memory Report at c_bands before calling an iterative solver
          1952 MiB given to the printing process from OS
             0 MiB allocation reported by mallinfo(arena+hblkhd)
          3391 MiB available memory on the node where the printing process lives
------------------
     ethr =  8.40E-07,  avg # of iterations =  2.0

     negative rho (up, down):  3.788E-04 3.821E-04

     total cpu time spent up to now is    32856.1 secs

     total energy              =   -5262.52651040 Ry
     estimated scf accuracy    <       0.00678300 Ry

     total magnetization       =     0.00 Bohr mag/cell
     absolute magnetization    =     8.08 Bohr mag/cell

     iteration # 16     ecut=    60.00 Ry     beta= 0.70
     Davidson diagonalization with overlap

---- Real-time Memory Report at c_bands before calling an iterative solver
          1952 MiB given to the printing process from OS
             0 MiB allocation reported by mallinfo(arena+hblkhd)
          3378 MiB available memory on the node where the printing process lives
------------------
     ethr =  8.40E-07,  avg # of iterations =  5.8

     negative rho (up, down):  3.816E-04 3.822E-04

     total cpu time spent up to now is    36328.6 secs

     total energy              =   -5262.52818871 Ry
     estimated scf accuracy    <       0.01321933 Ry

     total magnetization       =     0.00 Bohr mag/cell
     absolute magnetization    =     8.07 Bohr mag/cell

     iteration # 17     ecut=    60.00 Ry     beta= 0.70
     Davidson diagonalization with overlap

---- Real-time Memory Report at c_bands before calling an iterative solver
          1952 MiB given to the printing process from OS
             0 MiB allocation reported by mallinfo(arena+hblkhd)
          3318 MiB available memory on the node where the printing process lives
------------------
     ethr =  8.40E-07,  avg # of iterations =  2.0

     negative rho (up, down):  3.814E-04 3.832E-04

     total cpu time spent up to now is    38011.4 secs

     total energy              =   -5262.52713694 Ry
     estimated scf accuracy    <       0.00424898 Ry

     total magnetization       =    -0.00 Bohr mag/cell
     absolute magnetization    =     8.08 Bohr mag/cell

     iteration # 18     ecut=    60.00 Ry     beta= 0.70
     Davidson diagonalization with overlap

---- Real-time Memory Report at c_bands before calling an iterative solver
          1952 MiB given to the printing process from OS
             0 MiB allocation reported by mallinfo(arena+hblkhd)
          3516 MiB available memory on the node where the printing process lives
------------------
     ethr =  8.11E-07,  avg # of iterations =  5.2

     negative rho (up, down):  3.819E-04 3.820E-04

     total cpu time spent up to now is    40080.3 secs

     total energy              =   -5262.52848440 Ry
     estimated scf accuracy    <       0.00009176 Ry

     total magnetization       =    -0.00 Bohr mag/cell
     absolute magnetization    =     8.08 Bohr mag/cell

     iteration # 19     ecut=    60.00 Ry     beta= 0.70
     Davidson diagonalization with overlap

---- Real-time Memory Report at c_bands before calling an iterative solver
          1952 MiB given to the printing process from OS
             0 MiB allocation reported by mallinfo(arena+hblkhd)
          3602 MiB available memory on the node where the printing process lives
------------------
     ethr =  1.75E-08,  avg # of iterations =  7.8

     negative rho (up, down):  3.812E-04 3.813E-04

     total cpu time spent up to now is    44278.6 secs

     total energy              =   -5262.52874212 Ry
     estimated scf accuracy    <       0.00031850 Ry

     total magnetization       =     0.00 Bohr mag/cell
     absolute magnetization    =     8.07 Bohr mag/cell

     iteration # 20     ecut=    60.00 Ry     beta= 0.70
     Davidson diagonalization with overlap

---- Real-time Memory Report at c_bands before calling an iterative solver
          1952 MiB given to the printing process from OS
             0 MiB allocation reported by mallinfo(arena+hblkhd)
          3469 MiB available memory on the node where the printing process lives
------------------
     ethr =  1.75E-08,  avg # of iterations =  4.0

     negative rho (up, down):  3.810E-04 3.809E-04

     total cpu time spent up to now is    46810.6 secs

     total energy              =   -5262.52876582 Ry
     estimated scf accuracy    <       0.00002771 Ry

     total magnetization       =    -0.00 Bohr mag/cell
     absolute magnetization    =     8.08 Bohr mag/cell

     iteration # 21     ecut=    60.00 Ry     beta= 0.70
     Davidson diagonalization with overlap

---- Real-time Memory Report at c_bands before calling an iterative solver
          1952 MiB given to the printing process from OS
             0 MiB allocation reported by mallinfo(arena+hblkhd)
          3596 MiB available memory on the node where the printing process lives
------------------
     ethr =  5.29E-09,  avg # of iterations =  5.9

     negative rho (up, down):  3.809E-04 3.809E-04

     total cpu time spent up to now is    49903.5 secs

     total energy              =   -5262.52878138 Ry
     estimated scf accuracy    <       0.00001366 Ry

     total magnetization       =    -0.00 Bohr mag/cell
     absolute magnetization    =     8.07 Bohr mag/cell

     iteration # 22     ecut=    60.00 Ry     beta= 0.70
     Davidson diagonalization with overlap

---- Real-time Memory Report at c_bands before calling an iterative solver
          1952 MiB given to the printing process from OS
             0 MiB allocation reported by mallinfo(arena+hblkhd)
          3385 MiB available memory on the node where the printing process lives
------------------
     ethr =  2.61E-09,  avg # of iterations =  2.0

     negative rho (up, down):  3.808E-04 3.808E-04

     Magnetic moment per site  (integrated on atomic sphere of radius R)
     atom   1 (R=0.107)  charge=  7.5394  magn=  0.0000
     atom   2 (R=0.107)  charge=  7.5394  magn= -0.0000
     atom   3 (R=0.107)  charge=  7.5438  magn= -0.0000
     atom   4 (R=0.107)  charge=  7.5438  magn= -0.0000
     atom   5 (R=0.079)  charge=  8.1110  magn= -0.0003
     atom   6 (R=0.079)  charge=  8.1110  magn=  0.0003
     atom   7 (R=0.079)  charge=  8.1072  magn= -0.0001
     atom   8 (R=0.079)  charge=  8.1072  magn=  0.0001
     atom   9 (R=0.079)  charge=  8.1104  magn=  0.0000
     atom  10 (R=0.079)  charge=  8.1104  magn=  0.0000
     atom  11 (R=0.079)  charge=  8.1062  magn= -0.0000
     atom  12 (R=0.079)  charge=  8.1062  magn= -0.0000
     atom  13 (R=0.079)  charge=  8.1136  magn=  0.0000
     atom  14 (R=0.079)  charge=  8.1136  magn=  0.0000
     atom  15 (R=0.063)  charge=  0.5512  magn=  0.0008
     atom  16 (R=0.063)  charge=  0.5512  magn= -0.0008
     atom  17 (R=0.063)  charge=  0.5512  magn= -0.0008
     atom  18 (R=0.063)  charge=  0.5512  magn=  0.0008
     atom  19 (R=0.063)  charge=  0.5436  magn=  0.0000
     atom  20 (R=0.063)  charge=  0.5436  magn= -0.0000
     atom  21 (R=0.063)  charge=  0.5436  magn= -0.0000
     atom  22 (R=0.063)  charge=  0.5436  magn=  0.0000
     atom  23 (R=0.063)  charge=  0.5433  magn= -0.0000
     atom  24 (R=0.063)  charge=  0.5433  magn=  0.0000
     atom  25 (R=0.063)  charge=  0.5433  magn=  0.0000
     atom  26 (R=0.063)  charge=  0.5433  magn= -0.0000
     atom  27 (R=0.068)  charge=  0.3433  magn=  0.0013
     atom  28 (R=0.068)  charge=  0.3433  magn= -0.0013
     atom  29 (R=0.068)  charge=  0.3433  magn= -0.0013
     atom  30 (R=0.068)  charge=  0.3433  magn=  0.0013
     atom  31 (R=0.037)  charge=  1.9379  magn=  0.0151
     atom  32 (R=0.037)  charge=  1.9379  magn= -0.0151
     atom  33 (R=0.037)  charge=  1.9379  magn= -0.0151
     atom  34 (R=0.037)  charge=  1.9379  magn=  0.0151
     atom  35 (R=0.037)  charge=  1.9414  magn= -0.0004
     atom  36 (R=0.037)  charge=  1.9414  magn=  0.0004
     atom  37 (R=0.037)  charge=  1.9414  magn=  0.0004
     atom  38 (R=0.037)  charge=  1.9414  magn= -0.0004
     atom  39 (R=0.037)  charge=  1.9405  magn=  0.0003
     atom  40 (R=0.037)  charge=  1.9405  magn= -0.0003
     atom  41 (R=0.037)  charge=  1.9405  magn= -0.0003
     atom  42 (R=0.037)  charge=  1.9405  magn=  0.0003
     atom  43 (R=0.037)  charge=  1.9328  magn=  0.0274
     atom  44 (R=0.037)  charge=  1.9328  magn= -0.0274
     atom  45 (R=0.037)  charge=  1.9328  magn= -0.0274
     atom  46 (R=0.037)  charge=  1.9328  magn=  0.0274
     atom  47 (R=0.037)  charge=  1.9398  magn= -0.0003
     atom  48 (R=0.037)  charge=  1.9398  magn=  0.0003
     atom  49 (R=0.037)  charge=  1.9398  magn=  0.0003
     atom  50 (R=0.037)  charge=  1.9398  magn= -0.0003
     atom  51 (R=0.037)  charge=  1.9448  magn=  0.0008
     atom  52 (R=0.037)  charge=  1.9448  magn= -0.0008
     atom  53 (R=0.037)  charge=  1.9448  magn= -0.0008
     atom  54 (R=0.037)  charge=  1.9448  magn=  0.0008
     atom  55 (R=0.037)  charge=  1.9473  magn= -0.0001
     atom  56 (R=0.037)  charge=  1.9473  magn=  0.0001
     atom  57 (R=0.037)  charge=  1.9473  magn=  0.0001
     atom  58 (R=0.037)  charge=  1.9473  magn= -0.0001
     atom  59 (R=0.037)  charge=  1.9470  magn= -0.0001
     atom  60 (R=0.037)  charge=  1.9471  magn=  0.0001
     atom  61 (R=0.037)  charge=  1.9471  magn=  0.0001
     atom  62 (R=0.037)  charge=  1.9471  magn= -0.0001
     atom  63 (R=0.037)  charge=  1.9417  magn= -0.0003
     atom  64 (R=0.037)  charge=  1.9417  magn=  0.0003
     atom  65 (R=0.037)  charge=  1.9417  magn=  0.0003
     atom  66 (R=0.037)  charge=  1.9417  magn= -0.0003
     atom  67 (R=0.037)  charge=  1.9403  magn= -0.0001
     atom  68 (R=0.037)  charge=  1.9403  magn=  0.0001
     atom  69 (R=0.037)  charge=  1.9403  magn=  0.0001
     atom  70 (R=0.037)  charge=  1.9403  magn= -0.0001
     atom  71 (R=0.037)  charge=  1.9385  magn=  0.0206
     atom  72 (R=0.037)  charge=  1.9385  magn= -0.0206
     atom  73 (R=0.037)  charge=  1.9385  magn= -0.0206
     atom  74 (R=0.037)  charge=  1.9385  magn=  0.0206
     atom  75 (R=0.037)  charge=  1.9428  magn=  0.0002
     atom  76 (R=0.037)  charge=  1.9428  magn= -0.0002
     atom  77 (R=0.037)  charge=  1.9428  magn= -0.0002
     atom  78 (R=0.037)  charge=  1.9428  magn=  0.0002
     atom  79 (R=0.037)  charge=  0.3999  magn=  0.0001
     atom  80 (R=0.037)  charge=  0.3999  magn= -0.0001
     atom  81 (R=0.037)  charge=  0.3999  magn= -0.0001
     atom  82 (R=0.037)  charge=  0.3999  magn=  0.0001
     atom  83 (R=0.037)  charge=  0.3999  magn= -0.0000
     atom  84 (R=0.037)  charge=  0.3999  magn=  0.0000
     atom  85 (R=0.037)  charge=  0.3999  magn=  0.0000
     atom  86 (R=0.037)  charge=  0.3999  magn= -0.0000
     atom  87 (R=0.078)  charge= 13.2585  magn=  3.2750
     atom  88 (R=0.078)  charge= 13.2584  magn= -3.2750

     total cpu time spent up to now is    51792.7 secs

     End of self-consistent calculation

 ------ SPIN UP ------------


          k = 0.0000 0.0000 0.0000 ( 53617 PWs)   bands (ev):

   -81.5452 -77.4199 -67.8989 -67.8988 -67.8776 -67.8772 -67.6836 -67.6829
   -67.5457 -67.5457 -67.3810 -67.3810 -48.5435 -47.2284 -47.0317 -43.8351
   -43.4908 -43.4068 -34.6677 -34.6660 -34.6517 -34.6471 -34.6441 -34.6404
   -34.6351 -34.6339 -34.6324 -34.6315 -34.6128 -34.6124 -34.4487 -34.4478
   -34.4388 -34.4382 -34.4186 -34.4180 -34.3055 -34.3053 -34.2969 -34.2968
   -34.2895 -34.2894 -34.1438 -34.1436 -34.1311 -34.1309 -34.1237 -34.1235
   -23.4934 -23.4929 -23.4659 -23.4655 -15.2364 -15.1921 -14.8641 -14.8313
   -14.6098 -14.5800 -14.3196 -14.2812 -14.0544 -14.0292 -13.7886 -13.7733
   -13.6170 -13.5107 -13.4428 -13.3476 -13.3217 -13.2828 -13.2222 -13.2220
   -13.1624 -13.1440 -13.1073 -13.1009 -13.0774 -13.0667 -13.0449 -13.0389
   -12.9584 -12.9364 -12.8712 -12.8359 -12.8010 -12.7780 -12.7125 -12.6850
   -12.6516 -12.6038 -12.5382 -12.5203 -12.4412 -12.3797 -12.3484 -12.3013
   -11.7669 -11.6902 -11.5280 -11.4528  -7.0477  -7.0402  -7.0130  -7.0063
    -6.9628  -6.9603  -6.9602  -6.9509  -6.9470  -6.9446  -6.9374  -6.9350
    -4.5017  -4.4608  -3.5335  -3.4761  -3.0303  -2.9693  -2.6213  -2.5397
    -2.0140  -1.9395  -1.8641  -1.5441  -1.4873  -1.4391  -1.3795  -1.3573
    -1.2695  -1.2140  -1.1270  -1.1124  -0.9674  -0.9043  -0.8480  -0.8371
    -0.7785  -0.5815  -0.5527  -0.5171  -0.4429  -0.4081  -0.3712  -0.3138
    -0.2029  -0.2009  -0.1709  -0.1124  -0.0037   0.1762   0.1853   0.2090
     0.2562   0.3056   0.3235   0.3515   0.4581   0.4805   0.4941   0.6271
     0.6925   0.6958   0.7892   0.8334   0.8690   0.9052   0.9241   1.0237
     1.1639   1.2027   1.2581   1.2617   1.2630   1.2902   1.3077   1.4224
     1.4270   1.4885   1.4902   1.5710   1.5828   1.6287   1.6795   1.8541
     1.8690   1.9000   1.9022   1.9456   1.9861   2.0189   2.0409   2.1586
     2.1637   2.1888   2.2561   2.2776   2.3505   2.3819   2.3867   2.3952
     2.4244   2.4821   2.4918   2.5218   2.5541   2.5806   2.5822   2.6226
     2.6303   2.6441   2.7065   2.7708   2.7767   2.8082   2.8152   2.8333
     2.8588   2.8924   2.9104   2.9504   2.9972   3.0108   3.0659   3.0871
     3.0909   3.1338   3.1350   3.1643   3.1674   3.1770   3.2152   3.2248
     3.2296   3.2833   3.3159   3.3233   3.3355   3.3595   3.3771   3.4202
     3.4571   3.5081   3.5234   3.5422   3.5455   3.6055   3.6332   3.6343
     3.6655   3.6679   3.6944   3.8323   3.8796   3.9431   4.0616   4.1136
     4.9845   5.1059   6.0127   6.4642   6.7116   7.8467   8.6123   8.6319
     8.7234   9.6358  10.0932  10.2373  10.7356  10.7654  10.8623  11.1682
    11.2703  11.3884  11.5613  11.5834  11.6043  11.6635  11.8110  12.0946
    12.1408  12.1765  12.2391  12.3352  12.4344  12.6171  12.6235  12.7201
    12.7740  12.8154  12.8264  12.8705  12.9439  12.9835  13.1011  13.1122
    13.1676  13.2184  13.2728  13.3860  13.4314  13.4349  13.5022  13.5194
    13.5439  13.5585  13.5713  13.6415  13.6681  13.6874  13.7200  13.8570
    13.9500  13.9552

     occupation numbers 
     1.0000   1.0000   1.0000   1.0000   1.0000   1.0000   1.0000   1.0000
     1.0000   1.0000   1.0000   1.0000   1.0000   1.0000   1.0000   1.0000
     1.0000   1.0000   1.0000   1.0000   1.0000   1.0000   1.0000   1.0000
     1.0000   1.0000   1.0000   1.0000   1.0000   1.0000   1.0000   1.0000
     1.0000   1.0000   1.0000   1.0000   1.0000   1.0000   1.0000   1.0000
     1.0000   1.0000   1.0000   1.0000   1.0000   1.0000   1.0000   1.0000
     1.0000   1.0000   1.0000   1.0000   1.0000   1.0000   1.0000   1.0000
     1.0000   1.0000   1.0000   1.0000   1.0000   1.0000   1.0000   1.0000
     1.0000   1.0000   1.0000   1.0000   1.0000   1.0000   1.0000   1.0000
     1.0000   1.0000   1.0000   1.0000   1.0000   1.0000   1.0000   1.0000
     1.0000   1.0000   1.0000   1.0000   1.0000   1.0000   1.0000   1.0000
     1.0000   1.0000   1.0000   1.0000   1.0000   1.0000   1.0000   1.0000
     1.0000   1.0000   1.0000   1.0000   1.0000   1.0000   1.0000   1.0000
     1.0000   1.0000   1.0000   1.0000   1.0000   1.0000   1.0000   1.0000
     1.0000   1.0000   1.0000   1.0000   1.0000   1.0000   1.0000   1.0000
     1.0000   1.0000   1.0000   1.0000   1.0000   1.0000   1.0000   1.0000
     1.0000   1.0000   1.0000   1.0000   1.0000   1.0000   1.0000   1.0000
     1.0000   1.0000   1.0000   1.0000   1.0000   1.0000   1.0000   1.0000
     1.0000   1.0000   1.0000   1.0000   1.0000   1.0000   1.0000   1.0000
     1.0000   1.0000   1.0000   1.0000   1.0000   1.0000   1.0000   1.0000
     1.0000   1.0000   1.0000   1.0000   1.0000   1.0000   1.0000   1.0000
     1.0000   1.0000   1.0000   1.0000   1.0000   1.0000   1.0000   1.0000
     1.0000   1.0000   1.0000   1.0000   1.0000   1.0000   1.0000   1.0000
     1.0000   1.0000   1.0000   1.0000   1.0000   1.0000   1.0000   1.0000
     1.0000   1.0000   1.0000   1.0000   1.0000   1.0000   1.0000   1.0000
     1.0000   1.0000   1.0000   1.0000   1.0000   1.0000   1.0000   1.0000
     1.0000   1.0000   1.0000   1.0000   1.0000   1.0000   1.0000   1.0000
     1.0000   1.0000   1.0000   1.0000   1.0000   1.0000   1.0000   1.0000
     1.0000   1.0000   1.0000   1.0000   1.0000   1.0000   1.0000   1.0000
     1.0000   1.0000   1.0000   1.0000   1.0000   1.0000   1.0000   1.0000
     1.0000   1.0000   1.0000   1.0000   1.0000   1.0000   1.0000   1.0000
     1.0000   1.0000   1.0000   1.0000   1.0000   1.0000   1.0000   1.0000
     1.0000   1.0000   1.0000   1.0000   1.0000   1.0000   0.0000   0.0000
     0.0000   0.0000   0.0000   0.0000   0.0000   0.0000   0.0000   0.0000
     0.0000   0.0000   0.0000   0.0000   0.0000   0.0000   0.0000   0.0000
     0.0000   0.0000   0.0000   0.0000   0.0000   0.0000   0.0000   0.0000
     0.0000   0.0000   0.0000   0.0000   0.0000   0.0000   0.0000   0.0000
     0.0000   0.0000   0.0000   0.0000   0.0000   0.0000   0.0000   0.0000
     0.0000   0.0000   0.0000   0.0000   0.0000   0.0000   0.0000   0.0000
     0.0000   0.0000

          k = 0.0000 0.0000 0.3466 ( 53576 PWs)   bands (ev):

   -81.5452 -77.4199 -67.8989 -67.8988 -67.8776 -67.8772 -67.6836 -67.6829
   -67.5457 -67.5457 -67.3810 -67.3810 -48.5435 -47.2284 -47.0317 -43.8351
   -43.4908 -43.4068 -34.6676 -34.6660 -34.6517 -34.6471 -34.6441 -34.6404
   -34.6351 -34.6339 -34.6323 -34.6315 -34.6128 -34.6124 -34.4487 -34.4478
   -34.4388 -34.4382 -34.4186 -34.4180 -34.3055 -34.3053 -34.2969 -34.2968
   -34.2895 -34.2894 -34.1437 -34.1436 -34.1311 -34.1309 -34.1237 -34.1235
   -23.4934 -23.4929 -23.4659 -23.4655 -15.2266 -15.2025 -14.8571 -14.8387
   -14.6030 -14.5868 -14.3103 -14.2910 -14.0514 -14.0323 -13.7889 -13.7730
   -13.6086 -13.5247 -13.4378 -13.3480 -13.3196 -13.2808 -13.2202 -13.2147
   -13.1669 -13.1581 -13.1058 -13.0974 -13.0779 -13.0646 -13.0499 -13.0340
   -12.9573 -12.9323 -12.8705 -12.8387 -12.7992 -12.7852 -12.7077 -12.6731
   -12.6565 -12.6128 -12.5404 -12.5178 -12.4365 -12.3739 -12.3534 -12.3064
   -11.7668 -11.6894 -11.5287 -11.4533  -7.0477  -7.0402  -7.0130  -7.0063
    -6.9628  -6.9603  -6.9602  -6.9509  -6.9470  -6.9446  -6.9373  -6.9350
    -4.4983  -4.4645  -3.5193  -3.4905  -3.0163  -2.9851  -2.6024  -2.5615
    -1.9899  -1.9284  -1.8760  -1.5350  -1.4806  -1.4413  -1.3844  -1.3530
    -1.2669  -1.2258  -1.1264  -1.1021  -0.9505  -0.9094  -0.8547  -0.8198
    -0.7927  -0.5917  -0.5328  -0.5079  -0.4561  -0.4505  -0.3806  -0.3388
    -0.2423  -0.2255  -0.1429  -0.0955  -0.0449   0.1613   0.1757   0.2164
     0.2508   0.2791   0.3195   0.3363   0.4562   0.5101   0.5200   0.6098
     0.7061   0.7364   0.8054   0.8453   0.9099   0.9230   0.9553   0.9862
     1.1481   1.1671   1.1983   1.2661   1.2848   1.3360   1.3649   1.3833
     1.4277   1.4485   1.5621   1.6062   1.6357   1.6424   1.7774   1.8428
     1.8797   1.8954   1.9150   1.9419   1.9745   2.0027   2.0695   2.1250
     2.1470   2.1863   2.2158   2.2689   2.2956   2.3492   2.3719   2.3874
     2.3946   2.4336   2.5027   2.5283   2.5444   2.5471   2.5680   2.5977
     2.6215   2.6807   2.7369   2.7619   2.7961   2.8082   2.8335   2.8577
     2.8622   2.8845   2.9223   2.9550   2.9807   3.0485   3.0554   3.0812
     3.1001   3.1312   3.1411   3.1577   3.1752   3.1766   3.2156   3.2286
     3.2687   3.2873   3.3078   3.3403   3.3498   3.3574   3.3622   3.4085
     3.4248   3.4410   3.4792   3.5287   3.5636   3.5886   3.6087   3.6563
     3.6664   3.6830   3.7171   3.8451   3.9152   3.9466   4.0619   4.1100
     4.9823   5.1057   6.0123   6.4635   6.7139   7.8464   8.6107   8.6370
     9.0185   9.6145   9.7751  10.1044  10.6620  10.8869  10.9757  11.1235
    11.2045  11.3695  11.3903  11.6931  11.7011  11.7321  11.7455  12.1438
    12.1833  12.1983  12.2952  12.3157  12.4509  12.6169  12.6772  12.7142
    12.7892  12.8316  12.8916  12.9039  12.9463  12.9802  13.0373  13.1018
    13.1188  13.1930  13.3015  13.3103  13.3316  13.4451  13.4708  13.4839
    13.5292  13.5574  13.5829  13.6166  13.7317  13.7465  13.7687  13.7999
    13.9121  13.9587

     occupation numbers 
     1.0000   1.0000   1.0000   1.0000   1.0000   1.0000   1.0000   1.0000
     1.0000   1.0000   1.0000   1.0000   1.0000   1.0000   1.0000   1.0000
     1.0000   1.0000   1.0000   1.0000   1.0000   1.0000   1.0000   1.0000
     1.0000   1.0000   1.0000   1.0000   1.0000   1.0000   1.0000   1.0000
     1.0000   1.0000   1.0000   1.0000   1.0000   1.0000   1.0000   1.0000
     1.0000   1.0000   1.0000   1.0000   1.0000   1.0000   1.0000   1.0000
     1.0000   1.0000   1.0000   1.0000   1.0000   1.0000   1.0000   1.0000
     1.0000   1.0000   1.0000   1.0000   1.0000   1.0000   1.0000   1.0000
     1.0000   1.0000   1.0000   1.0000   1.0000   1.0000   1.0000   1.0000
     1.0000   1.0000   1.0000   1.0000   1.0000   1.0000   1.0000   1.0000
     1.0000   1.0000   1.0000   1.0000   1.0000   1.0000   1.0000   1.0000
     1.0000   1.0000   1.0000   1.0000   1.0000   1.0000   1.0000   1.0000
     1.0000   1.0000   1.0000   1.0000   1.0000   1.0000   1.0000   1.0000
     1.0000   1.0000   1.0000   1.0000   1.0000   1.0000   1.0000   1.0000
     1.0000   1.0000   1.0000   1.0000   1.0000   1.0000   1.0000   1.0000
     1.0000   1.0000   1.0000   1.0000   1.0000   1.0000   1.0000   1.0000
     1.0000   1.0000   1.0000   1.0000   1.0000   1.0000   1.0000   1.0000
     1.0000   1.0000   1.0000   1.0000   1.0000   1.0000   1.0000   1.0000
     1.0000   1.0000   1.0000   1.0000   1.0000   1.0000   1.0000   1.0000
     1.0000   1.0000   1.0000   1.0000   1.0000   1.0000   1.0000   1.0000
     1.0000   1.0000   1.0000   1.0000   1.0000   1.0000   1.0000   1.0000
     1.0000   1.0000   1.0000   1.0000   1.0000   1.0000   1.0000   1.0000
     1.0000   1.0000   1.0000   1.0000   1.0000   1.0000   1.0000   1.0000
     1.0000   1.0000   1.0000   1.0000   1.0000   1.0000   1.0000   1.0000
     1.0000   1.0000   1.0000   1.0000   1.0000   1.0000   1.0000   1.0000
     1.0000   1.0000   1.0000   1.0000   1.0000   1.0000   1.0000   1.0000
     1.0000   1.0000   1.0000   1.0000   1.0000   1.0000   1.0000   1.0000
     1.0000   1.0000   1.0000   1.0000   1.0000   1.0000   1.0000   1.0000
     1.0000   1.0000   1.0000   1.0000   1.0000   1.0000   1.0000   1.0000
     1.0000   1.0000   1.0000   1.0000   1.0000   1.0000   1.0000   1.0000
     1.0000   1.0000   1.0000   1.0000   1.0000   1.0000   1.0000   1.0000
     1.0000   1.0000   1.0000   1.0000   1.0000   1.0000   1.0000   1.0000
     1.0000   1.0000   1.0000   1.0000   1.0000   1.0000   0.0000   0.0000
     0.0000   0.0000   0.0000   0.0000   0.0000   0.0000   0.0000   0.0000
     0.0000   0.0000   0.0000   0.0000   0.0000   0.0000   0.0000   0.0000
     0.0000   0.0000   0.0000   0.0000   0.0000   0.0000   0.0000   0.0000
     0.0000   0.0000   0.0000   0.0000   0.0000   0.0000   0.0000   0.0000
     0.0000   0.0000   0.0000   0.0000   0.0000   0.0000   0.0000   0.0000
     0.0000   0.0000   0.0000   0.0000   0.0000   0.0000   0.0000   0.0000
     0.0000   0.0000

          k = 0.0000 0.3832 0.0000 ( 53603 PWs)   bands (ev):

   -81.5452 -77.4199 -67.8989 -67.8988 -67.8776 -67.8772 -67.6836 -67.6829
   -67.5457 -67.5457 -67.3810 -67.3810 -48.5435 -47.2284 -47.0317 -43.8351
   -43.4908 -43.4068 -34.6677 -34.6660 -34.6517 -34.6471 -34.6441 -34.6404
   -34.6351 -34.6339 -34.6324 -34.6315 -34.6128 -34.6124 -34.4487 -34.4478
   -34.4388 -34.4382 -34.4186 -34.4180 -34.3055 -34.3053 -34.2969 -34.2967
   -34.2895 -34.2894 -34.1438 -34.1436 -34.1311 -34.1309 -34.1238 -34.1235
   -23.4934 -23.4929 -23.4660 -23.4655 -15.2312 -15.1871 -14.8632 -14.8300
   -14.6094 -14.5796 -14.3553 -14.3126 -14.0586 -14.0340 -13.7887 -13.7734
   -13.5257 -13.4314 -13.4055 -13.3404 -13.3279 -13.2887 -13.2444 -13.2089
   -13.1627 -13.1524 -13.1481 -13.1266 -13.1090 -13.0926 -13.0664 -13.0481
   -12.9481 -12.9417 -12.8619 -12.8328 -12.8098 -12.7749 -12.7007 -12.6895
   -12.6476 -12.6088 -12.5378 -12.5201 -12.4364 -12.3783 -12.3457 -12.3001
   -11.7652 -11.6901 -11.5281 -11.4522  -7.0483  -7.0390  -7.0132  -7.0077
    -6.9619  -6.9599  -6.9594  -6.9508  -6.9479  -6.9446  -6.9380  -6.9349
    -4.4609  -4.4188  -3.5449  -3.4851  -3.0445  -2.9822  -2.7757  -2.6909
    -1.9581  -1.9151  -1.8411  -1.6082  -1.4819  -1.4245  -1.2625  -1.2598
    -1.1870  -1.1513  -1.1310  -1.1307  -0.9046  -0.8989  -0.8742  -0.8524
    -0.8153  -0.5322  -0.5065  -0.5017  -0.4376  -0.4158  -0.3518  -0.3263
    -0.2775  -0.2152  -0.2130  -0.0554  -0.0017   0.1310   0.1698   0.2061
     0.2828   0.2873   0.3023   0.3245   0.3687   0.4463   0.5043   0.6330
     0.6589   0.6767   0.7281   0.8242   0.8959   0.9648   0.9783   1.0129
     1.1525   1.1598   1.2293   1.2749   1.2898   1.3357   1.3405   1.4011
     1.4359   1.4642   1.4996   1.5264   1.5733   1.6531   1.7531   1.8651
     1.8705   1.8910   1.9236   1.9272   2.0424   2.1118   2.1276   2.1689
     2.1772   2.2046   2.2207   2.2304   2.3071   2.3127   2.3345   2.3800
     2.4212   2.4793   2.5156   2.5594   2.5727   2.5819   2.5983   2.6099
     2.6767   2.6951   2.7243   2.7540   2.7756   2.7892   2.7922   2.8020
     2.9008   2.9016   2.9353   2.9665   2.9673   3.0111   3.0405   3.0714
     3.1082   3.1366   3.1491   3.1742   3.1900   3.2080   3.2222   3.2477
     3.2535   3.2653   3.3058   3.3101   3.3478   3.3642   3.3720   3.3903
     3.4124   3.4573   3.5170   3.5589   3.5599   3.5732   3.6181   3.6562
     3.6650   3.6719   3.7020   3.8305   3.8635   3.8983   3.9290   4.0448
     4.9850   5.0963   6.0201   6.4380   6.7249   7.8535   8.6108   8.6375
     9.1173   9.6519  10.0446  10.0517  10.4994  10.8239  10.9032  11.0591
    11.3444  11.3748  11.4337  11.4411  11.5301  11.8360  11.9960  12.0109
    12.1343  12.1819  12.2562  12.2951  12.3284  12.5122  12.6976  12.7056
    12.7541  12.8328  12.8948  12.9400  12.9750  13.0442  13.0623  13.1404
    13.1431  13.2007  13.2971  13.3006  13.3590  13.3686  13.4195  13.5234
    13.5348  13.6569  13.7107  13.7652  13.8494  13.8859  13.9164  13.9197
    13.9844  13.9947

     occupation numbers 
     1.0000   1.0000   1.0000   1.0000   1.0000   1.0000   1.0000   1.0000
     1.0000   1.0000   1.0000   1.0000   1.0000   1.0000   1.0000   1.0000
     1.0000   1.0000   1.0000   1.0000   1.0000   1.0000   1.0000   1.0000
     1.0000   1.0000   1.0000   1.0000   1.0000   1.0000   1.0000   1.0000
     1.0000   1.0000   1.0000   1.0000   1.0000   1.0000   1.0000   1.0000
     1.0000   1.0000   1.0000   1.0000   1.0000   1.0000   1.0000   1.0000
     1.0000   1.0000   1.0000   1.0000   1.0000   1.0000   1.0000   1.0000
     1.0000   1.0000   1.0000   1.0000   1.0000   1.0000   1.0000   1.0000
     1.0000   1.0000   1.0000   1.0000   1.0000   1.0000   1.0000   1.0000
     1.0000   1.0000   1.0000   1.0000   1.0000   1.0000   1.0000   1.0000
     1.0000   1.0000   1.0000   1.0000   1.0000   1.0000   1.0000   1.0000
     1.0000   1.0000   1.0000   1.0000   1.0000   1.0000   1.0000   1.0000
     1.0000   1.0000   1.0000   1.0000   1.0000   1.0000   1.0000   1.0000
     1.0000   1.0000   1.0000   1.0000   1.0000   1.0000   1.0000   1.0000
     1.0000   1.0000   1.0000   1.0000   1.0000   1.0000   1.0000   1.0000
     1.0000   1.0000   1.0000   1.0000   1.0000   1.0000   1.0000   1.0000
     1.0000   1.0000   1.0000   1.0000   1.0000   1.0000   1.0000   1.0000
     1.0000   1.0000   1.0000   1.0000   1.0000   1.0000   1.0000   1.0000
     1.0000   1.0000   1.0000   1.0000   1.0000   1.0000   1.0000   1.0000
     1.0000   1.0000   1.0000   1.0000   1.0000   1.0000   1.0000   1.0000
     1.0000   1.0000   1.0000   1.0000   1.0000   1.0000   1.0000   1.0000
     1.0000   1.0000   1.0000   1.0000   1.0000   1.0000   1.0000   1.0000
     1.0000   1.0000   1.0000   1.0000   1.0000   1.0000   1.0000   1.0000
     1.0000   1.0000   1.0000   1.0000   1.0000   1.0000   1.0000   1.0000
     1.0000   1.0000   1.0000   1.0000   1.0000   1.0000   1.0000   1.0000
     1.0000   1.0000   1.0000   1.0000   1.0000   1.0000   1.0000   1.0000
     1.0000   1.0000   1.0000   1.0000   1.0000   1.0000   1.0000   1.0000
     1.0000   1.0000   1.0000   1.0000   1.0000   1.0000   1.0000   1.0000
     1.0000   1.0000   1.0000   1.0000   1.0000   1.0000   1.0000   1.0000
     1.0000   1.0000   1.0000   1.0000   1.0000   1.0000   1.0000   1.0000
     1.0000   1.0000   1.0000   1.0000   1.0000   1.0000   1.0000   1.0000
     1.0000   1.0000   1.0000   1.0000   1.0000   1.0000   1.0000   1.0000
     1.0000   1.0000   1.0000   1.0000   1.0000   1.0000   0.0000   0.0000
     0.0000   0.0000   0.0000   0.0000   0.0000   0.0000   0.0000   0.0000
     0.0000   0.0000   0.0000   0.0000   0.0000   0.0000   0.0000   0.0000
     0.0000   0.0000   0.0000   0.0000   0.0000   0.0000   0.0000   0.0000
     0.0000   0.0000   0.0000   0.0000   0.0000   0.0000   0.0000   0.0000
     0.0000   0.0000   0.0000   0.0000   0.0000   0.0000   0.0000   0.0000
     0.0000   0.0000   0.0000   0.0000   0.0000   0.0000   0.0000   0.0000
     0.0000   0.0000

          k = 0.0000 0.3832 0.3466 ( 53607 PWs)   bands (ev):

   -81.5452 -77.4199 -67.8989 -67.8988 -67.8776 -67.8772 -67.6836 -67.6829
   -67.5457 -67.5457 -67.3810 -67.3810 -48.5435 -47.2284 -47.0317 -43.8351
   -43.4908 -43.4068 -34.6677 -34.6660 -34.6517 -34.6471 -34.6441 -34.6404
   -34.6351 -34.6339 -34.6324 -34.6315 -34.6128 -34.6124 -34.4487 -34.4478
   -34.4388 -34.4382 -34.4186 -34.4180 -34.3055 -34.3053 -34.2969 -34.2967
   -34.2895 -34.2894 -34.1438 -34.1436 -34.1311 -34.1309 -34.1238 -34.1235
   -23.4934 -23.4929 -23.4660 -23.4655 -15.2212 -15.1976 -14.8564 -14.8373
   -14.6027 -14.5864 -14.3454 -14.3231 -14.0546 -14.0382 -13.7890 -13.7731
   -13.5200 -13.4282 -13.4174 -13.3410 -13.3216 -13.2856 -13.2403 -13.2110
   -13.1699 -13.1597 -13.1537 -13.1194 -13.0994 -13.0938 -13.0668 -13.0482
   -12.9467 -12.9405 -12.8613 -12.8356 -12.8051 -12.7850 -12.6959 -12.6776
   -12.6523 -12.6173 -12.5402 -12.5176 -12.4315 -12.3726 -12.3507 -12.3051
   -11.7650 -11.6893 -11.5288 -11.4526  -7.0484  -7.0390  -7.0133  -7.0077
    -6.9619  -6.9599  -6.9594  -6.9508  -6.9479  -6.9445  -6.9379  -6.9349
    -4.4551  -4.4249  -3.5305  -3.5001  -3.0300  -2.9984  -2.7558  -2.7127
    -1.9371  -1.9053  -1.8510  -1.6000  -1.4778  -1.4266  -1.2627  -1.2582
    -1.1831  -1.1575  -1.1261  -1.1190  -0.9080  -0.8984  -0.8708  -0.8479
    -0.8209  -0.5647  -0.4940  -0.4749  -0.4377  -0.4218  -0.3904  -0.3528
    -0.2617  -0.2387  -0.2340  -0.0633  -0.0478   0.1374   0.1729   0.1873
     0.2721   0.2817   0.2854   0.3211   0.3716   0.4530   0.5374   0.6238
     0.6560   0.6935   0.7683   0.8224   0.8578   0.9783   1.0346   1.0578
     1.1323   1.1969   1.2246   1.2753   1.2946   1.3334   1.3800   1.3925
     1.4175   1.4572   1.5496   1.5924   1.6167   1.6336   1.7894   1.8356
     1.8565   1.8871   1.9298   1.9484   2.0321   2.1027   2.1324   2.1460
     2.1544   2.1920   2.2082   2.2337   2.2631   2.3158   2.3257   2.3765
     2.4016   2.4349   2.5229   2.5380   2.5437   2.5614   2.5769   2.6111
     2.6819   2.7091   2.7230   2.7378   2.7777   2.7982   2.8100   2.8315
     2.8891   2.9023   2.9358   2.9644   2.9821   3.0179   3.0398   3.0750
     3.0804   3.1398   3.1608   3.1793   3.1981   3.2189   3.2250   3.2550
     3.2631   3.2784   3.3190   3.3291   3.3409   3.3591   3.3638   3.3791
     3.4097   3.4403   3.4669   3.5267   3.5647   3.5808   3.5984   3.6524
     3.6597   3.6736   3.7236   3.8451   3.8698   3.9281   3.9424   4.0457
     4.9830   5.0957   6.0197   6.4355   6.7268   7.8532   8.6084   8.6382
     9.3715   9.6597   9.9628  10.1202  10.2702  10.7448  10.8165  10.9910
    11.2504  11.4283  11.4413  11.4484  11.4772  11.8385  11.9069  11.9425
[...]
     atom   10 type  6   force =     0.00000573    0.00000053    0.00000370
     atom   11 type  6   force =     0.00000640   -0.00000109    0.00000216
     atom   12 type  6   force =    -0.00000640   -0.00000109   -0.00000216
     atom   13 type  6   force =     0.00000703   -0.00000059    0.00000232
     atom   14 type  6   force =    -0.00000703   -0.00000059   -0.00000232
     atom   15 type  8   force =     0.00000242    0.00000030   -0.00000775
     atom   16 type  8   force =     0.00000060    0.00000375   -0.00000085
     atom   17 type  8   force =    -0.00000060    0.00000375    0.00000085
     atom   18 type  8   force =    -0.00000242    0.00000030    0.00000775
     atom   19 type  8   force =     0.00000116   -0.00000303   -0.00000247
     atom   20 type  8   force =    -0.00000032    0.00000141    0.00000086
     atom   21 type  8   force =     0.00000032    0.00000141   -0.00000086
     atom   22 type  8   force =    -0.00000116   -0.00000303    0.00000247
     atom   23 type  8   force =     0.00000272   -0.00000153   -0.00000013
     atom   24 type  8   force =    -0.00000222   -0.00000145   -0.00000102
     atom   25 type  8   force =     0.00000222   -0.00000145    0.00000102
     atom   26 type  8   force =    -0.00000272   -0.00000153    0.00000013
     atom   27 type  1   force =     0.00000226    0.00000031    0.00000347
     atom   28 type  1   force =     0.00000038    0.00000007    0.00000089
     atom   29 type  1   force =    -0.00000038    0.00000007   -0.00000089
     atom   30 type  1   force =    -0.00000226    0.00000031   -0.00000347
     atom   31 type  7   force =     0.00000805   -0.00000569   -0.00000352
     atom   32 type  7   force =     0.00000334   -0.00000190   -0.00000449
     atom   33 type  7   force =    -0.00000334   -0.00000190    0.00000449
     atom   34 type  7   force =    -0.00000805   -0.00000569    0.00000352
     atom   35 type  7   force =    -0.00000167    0.00000020    0.00000213
     atom   36 type  7   force =    -0.00000271   -0.00000136   -0.00000222
     atom   37 type  7   force =     0.00000271   -0.00000136    0.00000222
     atom   38 type  7   force =     0.00000167    0.00000020   -0.00000213
     atom   39 type  7   force =    -0.00000220    0.00000319   -0.00000095
     atom   40 type  7   force =    -0.00000395    0.00000226   -0.00000212
     atom   41 type  7   force =     0.00000395    0.00000226    0.00000212
     atom   42 type  7   force =     0.00000220    0.00000319    0.00000095
     atom   43 type  7   force =     0.00002000    0.00000099    0.00000171
     atom   44 type  7   force =     0.00001602   -0.00000194    0.00001421
     atom   45 type  7   force =    -0.00001602   -0.00000194   -0.00001421
     atom   46 type  7   force =    -0.00002000    0.00000099   -0.00000171
     atom   47 type  7   force =     0.00000384    0.00000288   -0.00000299
     atom   48 type  7   force =    -0.00000315    0.00000266   -0.00000382
     atom   49 type  7   force =     0.00000315    0.00000266    0.00000382
     atom   50 type  7   force =    -0.00000384    0.00000288    0.00000299
     atom   51 type  7   force =     0.00000162    0.00000286   -0.00000415
     atom   52 type  7   force =     0.00000003   -0.00000214   -0.00000359
     atom   53 type  7   force =    -0.00000003   -0.00000214    0.00000359
     atom   54 type  7   force =    -0.00000162    0.00000286    0.00000415
     atom   55 type  7   force =     0.00000049   -0.00000223    0.00000049
     atom   56 type  7   force =    -0.00000190    0.00000131    0.00000156
     atom   57 type  7   force =     0.00000190    0.00000131   -0.00000156
     atom   58 type  7   force =    -0.00000049   -0.00000223   -0.00000049
     atom   59 type  7   force =     0.00000147   -0.00000149   -0.00000246
     atom   60 type  7   force =    -0.00000298    0.00000005   -0.00000247
     atom   61 type  7   force =     0.00000298    0.00000005    0.00000247
     atom   62 type  7   force =    -0.00000147   -0.00000149    0.00000246
     atom   63 type  7   force =     0.00000305   -0.00000566   -0.00000312
     atom   64 type  7   force =    -0.00000428   -0.00000030   -0.00000539
     atom   65 type  7   force =     0.00000428   -0.00000030    0.00000539
     atom   66 type  7   force =    -0.00000305   -0.00000566    0.00000312
     atom   67 type  7   force =    -0.00000307   -0.00000103    0.00001084
     atom   68 type  7   force =     0.00000165    0.00000272    0.00000481
     atom   69 type  7   force =    -0.00000165    0.00000272   -0.00000481
     atom   70 type  7   force =     0.00000307   -0.00000103   -0.00001084
     atom   71 type  7   force =     0.00001072    0.00000785    0.00000313
     atom   72 type  7   force =     0.00000416    0.00000344   -0.00000886
     atom   73 type  7   force =    -0.00000416    0.00000344    0.00000886
     atom   74 type  7   force =    -0.00001072    0.00000785   -0.00000313
     atom   75 type  7   force =    -0.00000018   -0.00000207   -0.00000131
     atom   76 type  7   force =    -0.00000472   -0.00000137   -0.00000458
     atom   77 type  7   force =     0.00000472   -0.00000137    0.00000458
     atom   78 type  7   force =     0.00000018   -0.00000207    0.00000131
     atom   79 type  4   force =     0.00000105    0.00000046    0.00000010
     atom   80 type  4   force =     0.00000031    0.00000008   -0.00000167
     atom   81 type  4   force =    -0.00000031    0.00000008    0.00000167
     atom   82 type  4   force =    -0.00000105    0.00000046   -0.00000010
     atom   83 type  4   force =     0.00000003    0.00000003    0.00000046
     atom   84 type  4   force =    -0.00000057   -0.00000013   -0.00000055
     atom   85 type  4   force =     0.00000057   -0.00000013    0.00000055
     atom   86 type  4   force =    -0.00000003    0.00000003   -0.00000046
     atom   87 type  2   force =     0.00000000    0.00001746   -0.00000000
     atom   88 type  3   force =     0.00000000   -0.00002214   -0.00000000

     DFT-D3 dispersion contribution to forces:
     atom    1 type  5   force =     0.00000001    0.00103673   -0.00000000
     atom    2 type  5   force =     0.00000001    0.00103673   -0.00000000
     atom    3 type  5   force =    -0.00000003   -0.00055545   -0.00000002
     atom    4 type  5   force =     0.00000003   -0.00055545    0.00000003
     atom    5 type  6   force =    -0.00000001    0.00045198    0.00000000
     atom    6 type  6   force =    -0.00000000    0.00045188    0.00000000
     atom    7 type  6   force =    -0.00000001   -0.00134875   -0.00000000
     atom    8 type  6   force =    -0.00000001   -0.00134875   -0.00000000
     atom    9 type  6   force =    -0.00000001   -0.00049507    0.00000002
     atom   10 type  6   force =     0.00000002   -0.00049507   -0.00000002
     atom   11 type  6   force =    -0.00000006    0.00117954   -0.00000002
     atom   12 type  6   force =     0.00000007    0.00117954    0.00000001
     atom   13 type  6   force =    -0.00000013   -0.00032558   -0.00000002
     atom   14 type  6   force =     0.00000014   -0.00032558    0.00000002
     atom   15 type  8   force =    -0.00001244   -0.00006077   -0.00012154
     atom   16 type  8   force =    -0.00001242   -0.00006077   -0.00012157
     atom   17 type  8   force =     0.00001242   -0.00006077    0.00012157
     atom   18 type  8   force =     0.00001245   -0.00006077    0.00012154
     atom   19 type  8   force =     0.00004149    0.00001534    0.00024568
     atom   20 type  8   force =     0.00004149    0.00001535    0.00024562
     atom   21 type  8   force =    -0.00004149    0.00001535   -0.00024562
     atom   22 type  8   force =    -0.00004149    0.00001534   -0.00024568
     atom   23 type  8   force =     0.00002260    0.00026279   -0.00024632
     atom   24 type  8   force =     0.00002264    0.00026280   -0.00024634
     atom   25 type  8   force =    -0.00002263    0.00026280    0.00024634
     atom   26 type  8   force =    -0.00002259    0.00026279    0.00024632
     atom   27 type  1   force =    -0.00013129    0.00003104   -0.00094525
     atom   28 type  1   force =    -0.00013129    0.00003103   -0.00094527
     atom   29 type  1   force =     0.00013129    0.00003103    0.00094527
     atom   30 type  1   force =     0.00013129    0.00003104    0.00094525
     atom   31 type  7   force =    -0.00005131    0.00012429    0.00051103
     atom   32 type  7   force =    -0.00005133    0.00012437    0.00051107
     atom   33 type  7   force =     0.00005134    0.00012437   -0.00051107
     atom   34 type  7   force =     0.00005131    0.00012429   -0.00051103
     atom   35 type  7   force =     0.00000071    0.00000525   -0.00037951
     atom   36 type  7   force =     0.00000069    0.00000523   -0.00037951
     atom   37 type  7   force =    -0.00000069    0.00000523    0.00037951
     atom   38 type  7   force =    -0.00000071    0.00000525    0.00037951
     atom   39 type  7   force =    -0.00001849   -0.00000263    0.00038313
     atom   40 type  7   force =    -0.00001847   -0.00000263    0.00038316
     atom   41 type  7   force =     0.00001847   -0.00000263   -0.00038316
     atom   42 type  7   force =     0.00001849   -0.00000263   -0.00038313
     atom   43 type  7   force =    -0.00008019   -0.00001004    0.00001329
     atom   44 type  7   force =    -0.00008024   -0.00001004    0.00001321
     atom   45 type  7   force =     0.00008024   -0.00001004   -0.00001321
     atom   46 type  7   force =     0.00008019   -0.00001004   -0.00001329
     atom   47 type  7   force =    -0.00019428    0.00107607    0.00023135
     atom   48 type  7   force =    -0.00019425    0.00107607    0.00023139
     atom   49 type  7   force =     0.00019425    0.00107607   -0.00023139
     atom   50 type  7   force =     0.00019428    0.00107607   -0.00023135
     atom   51 type  7   force =     0.00080602    0.00006577    0.00021761
     atom   52 type  7   force =     0.00080601    0.00006576    0.00021763
     atom   53 type  7   force =    -0.00080601    0.00006576   -0.00021763
     atom   54 type  7   force =    -0.00080602    0.00006577   -0.00021761
     atom   55 type  7   force =     0.00033063   -0.00047276   -0.00004343
     atom   56 type  7   force =     0.00033064   -0.00047277   -0.00004344
     atom   57 type  7   force =    -0.00033065   -0.00047277    0.00004344
     atom   58 type  7   force =    -0.00033064   -0.00047277    0.00004343
     atom   59 type  7   force =    -0.00014958    0.00024089    0.00002568
     atom   60 type  7   force =    -0.00014957    0.00024089    0.00002567
     atom   61 type  7   force =     0.00014957    0.00024088   -0.00002567
     atom   62 type  7   force =     0.00014957    0.00024088   -0.00002568
     atom   63 type  7   force =     0.00087465   -0.00042815    0.00040180
     atom   64 type  7   force =     0.00087466   -0.00042816    0.00040181
     atom   65 type  7   force =    -0.00087466   -0.00042816   -0.00040181
     atom   66 type  7   force =    -0.00087466   -0.00042815   -0.00040179
     atom   67 type  7   force =     0.00069905   -0.00065941   -0.00039484
     atom   68 type  7   force =     0.00069904   -0.00065941   -0.00039490
     atom   69 type  7   force =    -0.00069904   -0.00065941    0.00039489
     atom   70 type  7   force =    -0.00069905   -0.00065941    0.00039484
     atom   71 type  7   force =    -0.00011295   -0.00017236   -0.00035895
     atom   72 type  7   force =    -0.00011303   -0.00017246   -0.00035889
     atom   73 type  7   force =     0.00011303   -0.00017246    0.00035889
     atom   74 type  7   force =     0.00011295   -0.00017236    0.00035895
     atom   75 type  7   force =     0.00001817   -0.00000487   -0.00051787
     atom   76 type  7   force =     0.00001817   -0.00000486   -0.00051787
     atom   77 type  7   force =    -0.00001817   -0.00000486    0.00051787
     atom   78 type  7   force =    -0.00001817   -0.00000487    0.00051787
     atom   79 type  4   force =    -0.00008249    0.00018003   -0.00009947
     atom   80 type  4   force =    -0.00008243    0.00018002   -0.00009947
     atom   81 type  4   force =     0.00008243    0.00018002    0.00009947
     atom   82 type  4   force =     0.00008249    0.00018003    0.00009947
     atom   83 type  4   force =     0.00012155   -0.00048994   -0.00027356
     atom   84 type  4   force =     0.00012154   -0.00048991   -0.00027357
     atom   85 type  4   force =    -0.00012155   -0.00048992    0.00027357
     atom   86 type  4   force =    -0.00012156   -0.00048994    0.00027356
     atom   87 type  2   force =    -0.00000001    0.00065557   -0.00000000
     atom   88 type  3   force =    -0.00000001    0.00065565   -0.00000000

     Total force =     0.002612     Total SCF correction =     0.000075

     DFT-D3 dispersion Force =     0.006281


     Computing stress (Cartesian axis) and pressure


     negative rho (up, down):  3.804E-04 3.803E-04
          total   stress  (Ry/bohr**3)                   (kbar)     P=        0.24
   0.00000286   0.00000000  -0.00000014            0.42        0.00       -0.02
   0.00000000   0.00000188   0.00000000            0.00        0.28        0.00
  -0.00000014   0.00000000   0.00000008           -0.02        0.00        0.01

     kinetic stress (kbar)  20091.65      0.00    -54.81
                                0.00  20179.62      0.00
                              -54.81      0.00  19874.23

     local   stress (kbar) -40681.61      0.00   -299.47
                                0.00 -39882.94     -0.00
                             -299.47     -0.00  19232.70

     nonloc. stress (kbar)   3809.59      0.00      7.05
                                0.00   3798.82      0.00
                                7.05      0.00   3787.24

     hartree stress (kbar)  22894.18     -0.00    110.29
                               -0.00  22570.62     -0.00
                              110.29     -0.00  -6368.37

     exc-cor stress (kbar)  -2824.36      0.00     -0.04
                                0.00  -2824.23      0.00
                               -0.04      0.00  -2821.22

     corecor stress (kbar)  -1859.84     -0.00      0.49
                               -0.00  -1860.57     -0.00
                                0.49     -0.00  -1861.81

     ewald   stress (kbar)  -1414.52     -0.00    236.48
                               -0.00  -1966.30      0.00
                              236.48      0.00 -31831.77

     hubbard stress (kbar)      0.00      0.00      0.00
                                0.00      0.00      0.00
                                0.00      0.00      0.00

     DFT-D   stress (kbar)    -14.67      0.00     -0.03
                                0.00    -14.73      0.00
                               -0.03      0.00    -10.99

     XDM     stress (kbar)      0.00      0.00      0.00
                                0.00      0.00      0.00
                                0.00      0.00      0.00

     dft-nl  stress (kbar)      0.00      0.00      0.00
                                0.00      0.00      0.00
                                0.00      0.00      0.00

     TS-vdW  stress (kbar)      0.00      0.00      0.00
                                0.00      0.00      0.00
                                0.00      0.00      0.00

     MDB     stress (kbar)      0.00      0.00      0.00
                                0.00      0.00      0.00
                                0.00      0.00      0.00

     3D-RISM stress (kbar)      0.00      0.00      0.00
                                0.00      0.00      0.00
                                0.00      0.00      0.00


     Writing all to output data dir ./temp/phl-fe1-fe2x2.save/ :
     XML data file, charge density, pseudopotentials, collected wavefunctions

     init_run     :   1216.73s CPU   1225.89s WALL (       2 calls)
     electrons    : 171429.12s CPU 172233.08s WALL (       4 calls)
     update_pot   :     12.98s CPU     13.10s WALL (       2 calls)
     forces       :   1978.77s CPU   1986.03s WALL (       4 calls)
     force_dftd3  :     34.88s CPU     35.03s WALL (       4 calls)
     stress       :   7004.00s CPU   7036.00s WALL (       4 calls)
     stres_dftd3  :     34.81s CPU     34.94s WALL (       4 calls)

     Called by init_run:
     wfcinit      :   1172.55s CPU   1178.73s WALL (       2 calls)
     wfcinit:atom :      1.00s CPU      1.73s WALL (      40 calls)
     wfcinit:wfcr :   1162.76s CPU   1167.38s WALL (      40 calls)
     potinit      :     13.02s CPU     13.19s WALL (       2 calls)
     hinit0       :      4.12s CPU      4.20s WALL (       2 calls)

     Called by electrons:
     c_bands      : 157789.73s CPU 158344.76s WALL (      75 calls)
     sum_band     :  12214.46s CPU  12366.69s WALL (      75 calls)
     v_of_rho     :     66.61s CPU     68.70s WALL (      77 calls)
     v_h          :      2.33s CPU      2.42s WALL (      77 calls)
     v_xc         :     70.88s CPU     73.33s WALL (      85 calls)
     newd         :    993.80s CPU   1093.04s WALL (      77 calls)
     PAW_pot      :    406.05s CPU    406.12s WALL (      79 calls)
     mix_rho      :     11.93s CPU     12.23s WALL (      75 calls)
     energy_dftd3 :     27.01s CPU     27.01s WALL (       4 calls)

     Called by c_bands:
     init_us_2    :    220.06s CPU    220.28s WALL (    3240 calls)
     cegterg      : 157331.31s CPU 157885.92s WALL (    1543 calls)

     Called by sum_band:
     sum_band:wei :      0.07s CPU      0.07s WALL (      75 calls)
     sum_band:loo :  10270.33s CPU  10307.78s WALL (      75 calls)
     sum_band:buf :     26.90s CPU     26.93s WALL (    1500 calls)
     sum_band:ini :    102.69s CPU    102.73s WALL (    1500 calls)
     sum_band:cal :   8551.51s CPU   8554.51s WALL (    1540 calls)
     sum_band:bec :     10.76s CPU     10.77s WALL (    1540 calls)
     addusdens    :   1930.92s CPU   2045.07s WALL (      75 calls)
                                        0.00s GPU  (      75 calls)
     addusd:skk   :      7.74s CPU     12.84s WALL (     600 calls)
                                        0.00s GPU  (     600 calls)

     Called by *egterg:
     cdiaghg      :   5152.62s CPU   5226.63s WALL (   11312 calls)
     cegterg:over :  20632.55s CPU  20637.72s WALL (    9890 calls)
     cegterg:upda :  12211.39s CPU  12244.54s WALL (    9890 calls)
     cegterg:last :  32270.62s CPU  32281.07s WALL (    3846 calls)
     cdiaghg:chol :    126.47s CPU    126.52s WALL (   11312 calls)
     cdiaghg:inve :    117.68s CPU    117.71s WALL (   11312 calls)
     cdiaghg:para :   2512.41s CPU   2530.95s WALL (   22624 calls)
     h_psi        :  57993.89s CPU  58318.66s WALL (   11473 calls)
     s_psi        :  25119.41s CPU  25123.61s WALL (   11473 calls)
     g_psi        :     57.81s CPU     57.85s WALL (    9890 calls)

     Called by h_psi:
     h_psi:calbec :  24379.39s CPU  24389.57s WALL (   11473 calls)
     vloc_psi     :   8438.12s CPU   8705.94s WALL (   11473 calls)
     add_vuspsi   :  25125.47s CPU  25129.59s WALL (   11473 calls)

     General routines
     calbec       :  35226.03s CPU  35240.13s WALL (   13413 calls)
     fft          :     38.19s CPU     40.49s WALL (    2083 calls)
     ffts         :      1.52s CPU      1.66s WALL (     304 calls)
     fftw         :   6440.92s CPU   6651.95s WALL ( 3230720 calls)
     interpolate  :      4.47s CPU      4.68s WALL (     154 calls)

     Parallel routines

     PAW routines
     PAW_pot      :    406.05s CPU    406.12s WALL (      79 calls)
     PAW_symme    :      0.11s CPU      0.13s WALL (     154 calls)

     PWSCF        :   2d 2h31m CPU   2d 2h46m WALL


   This run was terminated on:  15:18: 4  31Jan2025            

=------------------------------------------------------------------------------=
   JOB DONE.
=------------------------------------------------------------------------------=
