
     Program PWSCF v.7.3.1 starts on 29Dec2024 at  8:41:19 

     This program is part of the open-source Quantum ESPRESSO suite
     for quantum simulation of materials; please cite
         "P. Giannozzi et al., J. Phys.:Condens. Matter 21 395502 (2009);
         "P. Giannozzi et al., J. Phys.:Condens. Matter 29 465901 (2017);
         "P. Giannozzi et al., J. Chem. Phys. 152 154105 (2020);
          URL http://www.quantum-espresso.org", 
     in publications or presentations arising from this work. More details at
     http://www.quantum-espresso.org/quote

     Parallel version (MPI), running on     4 processors

     MPI processes distributed on     1 nodes
     3581 MiB available memory on the printing compute node when the environment starts

     Reading input from vc_relax.in

     Current dimensions of program PWSCF are:
     Max number of different atomic species (ntypx) = 10
     Max number of k-points (npk) =  40000
     Max angular momentum in pseudopotentials (lmaxx) =  4
     file Al.pbe-n-kjpaw_psl.1.0.0.UPF: wavefunction(s)  3S 3P renormalized
     file Fe.pbe-spn-kjpaw_psl.1.0.0.UPF: wavefunction(s)  3P 3D renormalized
     file H.pbe-kjpaw_psl.1.0.0.UPF: wavefunction(s)  1S renormalized
     file K.pbe-spn-kjpaw_psl.1.0.0.UPF: wavefunction(s)  3S renormalized
     file Mg.pbe-spnl-kjpaw_psl.1.0.0.UPF: wavefunction(s)  2P renormalized
     file O.pbe-n-kjpaw_psl.1.0.0.UPF: wavefunction(s)  2S 2P renormalized
     file Si.pbe-n-kjpaw_psl.1.0.0.UPF: wavefunction(s)  3S 3P renormalized

     R & G space division:  proc/nbgrp/npool/nimage =       4
     Subspace diagonalization in iterative solution of the eigenvalue problem:
     one sub-group per band group will be used
     custom distributed-memory algorithm (size of sub-group:  2*  2 procs)


     Parallelization info
     --------------------
     sticks:   dense  smooth     PW     G-vecs:    dense   smooth      PW
     Min        1652     828    225               145883    51599    7342
     Max        1653     829    226               145887    51603    7343
     Sum        6609    3313    901               583539   206401   29369

     Using Slab Decomposition



     bravais-lattice index     =          -12
     lattice parameter (alat)  =       9.9883  a.u.
     unit-cell volume          =    3285.8057 (a.u.)^3
     number of atoms/cell      =           44
     number of atomic types    =            7
     number of electrons       =       262.00
     number of Kohn-Sham states=          157
     kinetic-energy cutoff     =      60.0000  Ry
     charge density cutoff     =     480.0000  Ry
     scf convergence threshold =      1.0E-06
     mixing beta               =       0.7000
     number of iterations used =            8  plain     mixing
     energy convergence thresh.=      1.0E-04
     force convergence thresh. =      1.0E-03
     press convergence thresh. =      5.0E-01
     Exchange-correlation= SLA  PW   PBX  PBC
                           (   1   4   3   4   0   0   0)
     nstep                     =           50


     celldm(1)=   9.988336  celldm(2)=   1.736567  celldm(3)=   1.928182
     celldm(4)=   0.000000  celldm(5)=  -0.174018  celldm(6)=   0.000000

     crystal axes: (cart. coord. in units of alat)
               a(1) = (   1.000000   0.000000   0.000000 )  
               a(2) = (   0.000000   1.736567   0.000000 )  
               a(3) = (  -0.335538   0.000000   1.898763 )  

     reciprocal axes: (cart. coord. in units 2 pi/alat)
               b(1) = (  1.000000 -0.000000  0.176714 )  
               b(2) = (  0.000000  0.575849 -0.000000 )  
               b(3) = (  0.000000  0.000000  0.526659 )  


     PseudoPot. # 1 for Al read from file:
     ./../../pseudos/Al.pbe-n-kjpaw_psl.1.0.0.UPF
     MD5 check sum: 502b6b27b9c6270cab5dd1084b96fa6d
     Pseudo is Projector augmented-wave + core cor, Zval =  3.0
     Generated using &quot;atomic&quot; code by A. Dal Corso  v.6.3
     Shape of augmentation charge: PSQ
     Using radial grid of 1135 points,  6 beta functions with: 
                l(1) =   0
                l(2) =   0
                l(3) =   1
                l(4) =   1
                l(5) =   2
                l(6) =   2
     Q(r) pseudized with 0 coefficients 


     PseudoPot. # 2 for Fe read from file:
     ./../../pseudos/Fe.pbe-spn-kjpaw_psl.1.0.0.UPF
     MD5 check sum: fc81f059e5c5069939230b1155715ae8
     Pseudo is Projector augmented-wave + core cor, Zval = 16.0
     Generated using &quot;atomic&quot; code by A. Dal Corso  v.6.3
     Shape of augmentation charge: PSQ
     Using radial grid of 1191 points,  6 beta functions with: 
                l(1) =   0
                l(2) =   0
                l(3) =   1
                l(4) =   1
                l(5) =   2
                l(6) =   2
     Q(r) pseudized with 0 coefficients 


     PseudoPot. # 3 for H  read from file:
     ./../../pseudos/H.pbe-kjpaw_psl.1.0.0.UPF
     MD5 check sum: d81a744832360e4a8af0b0b5b123bc2a
     Pseudo is Projector augmented-wave, Zval =  1.0
     Generated using &quot;atomic&quot; code by A. Dal Corso  v.6.3MaX
     Shape of augmentation charge: PSQ
     Using radial grid of  929 points,  2 beta functions with: 
                l(1) =   0
                l(2) =   0
     Q(r) pseudized with 0 coefficients 


     PseudoPot. # 4 for K  read from file:
     ./../../pseudos/K.pbe-spn-kjpaw_psl.1.0.0.UPF
     MD5 check sum: 34cc42130a09071ebe376fd42eb21491
     Pseudo is Projector augmented-wave + core cor, Zval =  9.0
     Generated using &quot;atomic&quot; code by A. Dal Corso  v.6.2.2
     Shape of augmentation charge: PSQ
     Using radial grid of 1165 points,  6 beta functions with: 
                l(1) =   0
                l(2) =   0
                l(3) =   1
                l(4) =   1
                l(5) =   2
                l(6) =   2
     Q(r) pseudized with 0 coefficients 


     PseudoPot. # 5 for Mg read from file:
     ./../../pseudos/Mg.pbe-spnl-kjpaw_psl.1.0.0.UPF
     MD5 check sum: fda14e0d92a6a9a5ebed782e5a4b3067
     Pseudo is Projector augmented-wave + core cor, Zval = 10.0
     Generated using &quot;atomic&quot; code by A. Dal Corso  v.6.3
     Shape of augmentation charge: PSQ
     Using radial grid of 1129 points,  4 beta functions with: 
                l(1) =   0
                l(2) =   0
                l(3) =   1
                l(4) =   1
     Q(r) pseudized with 0 coefficients 


     PseudoPot. # 6 for O  read from file:
     ./../../pseudos/O.pbe-n-kjpaw_psl.1.0.0.UPF
     MD5 check sum: e99d9cef9b487d1ca56f5b95ecd0fd7a
     Pseudo is Projector augmented-wave + core cor, Zval =  6.0
     Generated using &quot;atomic&quot; code by A. Dal Corso  v.6.3
     Shape of augmentation charge: PSQ
     Using radial grid of 1095 points,  4 beta functions with: 
                l(1) =   0
                l(2) =   0
                l(3) =   1
                l(4) =   1
     Q(r) pseudized with 0 coefficients 


     PseudoPot. # 7 for Si read from file:
     ./../../pseudos/Si.pbe-n-kjpaw_psl.1.0.0.UPF
     MD5 check sum: c39c59da582df4a0d9f10159256ea34e
     Pseudo is Projector augmented-wave + core cor, Zval =  4.0
     Generated using &quot;atomic&quot; code by A. Dal Corso  v.6.3
     Shape of augmentation charge: PSQ
     Using radial grid of 1141 points,  6 beta functions with: 
                l(1) =   0
                l(2) =   0
                l(3) =   1
                l(4) =   1
                l(5) =   2
                l(6) =   2
     Q(r) pseudized with 0 coefficients 


     atomic species   valence    mass     pseudopotential
     Al                3.00    26.98154     Al( 1.00)
     Fe               16.00    55.84500     Fe( 1.00)
     H                 1.00     1.00794     H ( 1.00)
     K                 9.00    39.09830     K ( 1.00)
     Mg               10.00    24.30500     Mg( 1.00)
     O                 6.00    15.99940     O ( 1.00)
     Si                4.00    28.08550     Si( 1.00)

      2 Sym. Ops. (no inversion) found


                                    s                        frac. trans.

      isym =  1     identity                                     

 cryst.   s( 1) = (     1          0          0      )
                  (     0          1          0      )
                  (     0          0          1      )

 cart.    s( 1) = (  1.0000000  0.0000000  0.0000000 )
                  (  0.0000000  1.0000000  0.0000000 )
                  (  0.0000000  0.0000000  1.0000000 )


      isym =  2     180 deg rotation - cart. axis [0,1,0]        

 cryst.   s( 2) = (    -1          0          0      )
                  (     0          1          0      )
                  (     0          0         -1      )

 cart.    s( 2) = ( -1.0000000  0.0000000  0.0000000 )
                  (  0.0000000  1.0000000  0.0000000 )
                  (  0.0000000  0.0000000 -1.0000000 )


     point group C_2  (2)   
     there are  2 classes
     the character table:

       E     C2   
A      1.00  1.00
B      1.00 -1.00

     the symmetry operations in each class and the name of the first element:

     E        1
          identity                                               
     C2       2
          180 deg rotation - cart. axis [0,1,0]                  

   Cartesian axes

     site n.     atom                  positions (alat units)
         1        K      tau(   1) = (   0.0000000   0.8565933   0.0000000  )
         2        K      tau(   2) = (   0.5000000   0.0074483   0.0000000  )
         3        Mg     tau(   3) = (  -0.1677688   0.0062667   0.9493815  )
         4        Mg     tau(   4) = (  -0.1677688   0.5812187   0.9493815  )
         5        Mg     tau(   5) = (  -0.1677688   1.1494614   0.9493815  )
         6        Mg     tau(   6) = (   0.3322312   1.4456095   0.9493815  )
         7        Mg     tau(   7) = (   0.3322312   0.3041462   0.9493815  )
         8        Fe     tau(   8) = (   0.3322312   0.8656311   0.9493815  )
         9        Si     tau(   9) = (   0.0074576   0.2869188   0.4232316  )
        10        Si     tau(  10) = (   0.6570047   0.2869188   1.4755316  )
        11        Si     tau(  11) = (   0.6756678   1.4483840   1.4641887  )
        12        Si     tau(  12) = (  -0.0112054   1.4483840   0.4345744  )
        13        Si     tau(  13) = (   0.4878371   1.1556011   0.4292388  )
        14        Si     tau(  14) = (   0.1766253   1.1556011   1.4695243  )
        15        Al     tau(  15) = (   0.1575154   0.5781911   1.4729714  )
        16        Al     tau(  16) = (   0.5069470   0.5781911   0.4257917  )
        17        O      tau(  17) = (  -0.0033094   0.2849589   0.7317811  )
        18        O      tau(  18) = (   0.6677718   0.2849589   1.1669819  )
        19        O      tau(  19) = (   0.6700068   1.4447669   1.1582677  )
        20        O      tau(  20) = (  -0.0055444   1.4447669   0.7404954  )
        21        O      tau(  21) = (   0.4969556   1.1577125   0.7373130  )
        22        O      tau(  22) = (   0.1675068   1.1577125   1.1614501  )
        23        O      tau(  23) = (   0.1622961   0.5864089   1.1445608  )
        24        O      tau(  24) = (   0.5021662   0.5864089   0.7542023  )
        25        O      tau(  25) = (   0.2876626   0.3518049   0.3142569  )
        26        O      tau(  26) = (   0.3767998   0.3518049   1.5845062  )
        27        O      tau(  27) = (   0.9376616   1.7317226   0.3182256  )
        28        O      tau(  28) = (  -0.2731992   1.7317226   1.5805376  )
        29        O      tau(  29) = (   0.4020853   1.3483216   1.5778881  )
        30        O      tau(  30) = (   0.2623771   1.3483216   0.3208749  )
        31        O      tau(  31) = (   0.7607696   1.2686065   0.3182892  )
        32        O      tau(  32) = (  -0.0963072   1.2686065   1.5804740  )
        33        O      tau(  33) = (   0.4370265   0.8822185   0.3024616  )
        34        O      tau(  34) = (   0.2274359   0.8822185   1.5963015  )
        35        O      tau(  35) = (  -0.1380543   0.4821041   1.5952393  )
        36        O      tau(  36) = (   0.8025167   0.4821041   0.3035237  )
        37        O      tau(  37) = (   0.0069355   0.8719371   0.7508510  )
        38        O      tau(  38) = (   0.6575269   0.8719371   1.1479121  )
        39        O      tau(  39) = (   0.4982511   1.7360040   0.7541749  )
        40        O      tau(  40) = (   0.1662113   1.7360040   1.1445882  )
        41        H      tau(  41) = (   0.0274903   0.8546650   0.5696777  )
        42        H      tau(  42) = (   0.6369721   0.8546650   1.3290855  )
        43        H      tau(  43) = (   0.4939738   0.0238125   0.5730446  )
        44        H      tau(  44) = (   0.1704886   0.0238125   1.3257184  )

     --------------------------------------------
     DFT-D3 Dispersion Correction (3-body terms):
     --------------------------------------------
       Reference C6 values for interpolation: 

         atom   Coordination number   C6
         H          0.912             6.05
         H          0.000            15.18
         O          0.000            31.01
         O          0.993            25.63
         O          1.989            20.74
         Mg         0.000          1366.75
         Mg         0.963           902.54
         Mg         1.950           351.12
         Al         0.000          1081.08
         Al         0.965           875.51
         Al         1.931           513.50
         Al         2.915           307.19
         Si         0.000           635.71
         Si         0.951           540.53
         Si         1.944           466.25
         Si         2.941           443.01
         Si         3.868           299.55
         K          0.000          9967.00
         K          0.977           676.04
         Fe         0.000           982.67
         Fe         1.648           409.99
         Fe         9.138           219.01

       Values used:

         atom   Coordination number  R0_AB[au]  C6      C8
         K         13.824            4.007    676.04 129074.98
         K         13.948            4.007    676.04 129074.98
         Mg        11.845            3.292    351.12  31436.69
         Mg        11.658            3.292    351.12  31436.69
         Mg        11.276            3.292    351.12  31436.69
         Mg        11.487            3.292    351.12  31436.69
         Mg        11.958            3.292    351.12  31436.69
         Fe         8.528            3.252    219.01  20487.87
         Si         6.983            3.583    299.55  21425.58
         Si         6.983            3.583    299.55  21425.58
         Si         6.577            3.583    299.55  21425.58
         Si         6.577            3.583    299.55  21425.58
         Si         6.513            3.583    299.55  21425.58
         Si         6.513            3.583    299.55  21425.58
         Al         7.689            3.789    307.19  29441.29
         Al         7.689            3.789    307.19  29441.29
         O          3.929            2.345     20.74    418.58
         O          3.929            2.345     20.74    418.58
         O          3.927            2.345     20.74    418.58
         O          3.927            2.345     20.74    418.58
         O          3.714            2.345     20.74    418.58
         O          3.714            2.345     20.74    418.58
         O          3.862            2.345     20.74    418.58
         O          3.862            2.345     20.74    418.58
         O          3.189            2.345     20.74    418.58
         O          3.189            2.345     20.74    418.58
         O          3.165            2.345     20.74    418.58
         O          3.165            2.345     20.74    418.58
         O          3.078            2.345     20.74    418.58
         O          3.078            2.345     20.74    418.58
         O          3.086            2.345     20.74    418.58
         O          3.086            2.345     20.74    418.58
         O          3.212            2.345     20.74    418.58
         O          3.212            2.345     20.74    418.58
         O          3.255            2.345     20.74    418.58
         O          3.255            2.345     20.74    418.58
         O          3.883            2.345     20.74    418.58
         O          3.883            2.345     20.74    418.58
         O          3.995            2.345     20.74    418.58
         O          3.995            2.345     20.74    418.58
         H          1.287            2.062      6.07     73.37
         H          1.287            2.062      6.07     73.37
         H          1.305            2.062      6.07     73.34
         H          1.305            2.062      6.07     73.34

         Molecular C6 ( Ry / a.u.^6 ) =    165305.37


   Crystallographic axes

     site n.     atom                  positions (cryst. coord.)
         1        K      tau(   1) = (  0.0000000  0.4932681  0.0000000  )
         2        K      tau(   2) = (  0.5000000  0.0042891  0.0000000  )
         3        Mg     tau(   3) = (  0.0000000  0.0036087  0.5000000  )
         4        Mg     tau(   4) = (  0.0000000  0.3346941  0.5000000  )
         5        Mg     tau(   5) = (  0.0000000  0.6619158  0.5000000  )
         6        Mg     tau(   6) = (  0.5000000  0.8324524  0.5000000  )
         7        Mg     tau(   7) = (  0.5000000  0.1751422  0.5000000  )
         8        Fe     tau(   8) = (  0.5000000  0.4984725  0.5000000  )
         9        Si     tau(   9) = (  0.0822485  0.1652218  0.2228986  )
        10        Si     tau(  10) = (  0.9177515  0.1652218  0.7771015  )
        11        Si     tau(  11) = (  0.9344101  0.8340501  0.7711276  )
        12        Si     tau(  12) = (  0.0655899  0.8340501  0.2288724  )
        13        Si     tau(  13) = (  0.5636895  0.6654514  0.2260623  )
        14        Si     tau(  14) = (  0.4363105  0.6654514  0.7739377  )
        15        Al     tau(  15) = (  0.4178097  0.3329506  0.7757531  )
        16        Al     tau(  16) = (  0.5821903  0.3329506  0.2242469  )
        17        O      tau(  17) = (  0.1260064  0.1640932  0.3853989  )
        18        O      tau(  18) = (  0.8739936  0.1640932  0.6146011  )
        19        O      tau(  19) = (  0.8746886  0.8319671  0.6100117  )
        20        O      tau(  20) = (  0.1253114  0.8319671  0.3899883  )
        21        O      tau(  21) = (  0.6272489  0.6666672  0.3883123  )
        22        O      tau(  22) = (  0.3727511  0.6666672  0.6116877  )
        23        O      tau(  23) = (  0.3645558  0.3376828  0.6027929  )
        24        O      tau(  24) = (  0.6354442  0.3376828  0.3972072  )
        25        O      tau(  25) = (  0.3431962  0.2025864  0.1655061  )
        26        O      tau(  26) = (  0.6568038  0.2025864  0.8344939  )
        27        O      tau(  27) = (  0.9938964  0.9972102  0.1675963  )
        28        O      tau(  28) = (  0.0061036  0.9972102  0.8324038  )
        29        O      tau(  29) = (  0.6809199  0.7764292  0.8310084  )
        30        O      tau(  30) = (  0.3190801  0.7764292  0.1689916  )
        31        O      tau(  31) = (  0.8170157  0.7305254  0.1676297  )
        32        O      tau(  32) = (  0.1829843  0.7305254  0.8323703  )
        33        O      tau(  33) = (  0.4904757  0.5080244  0.1592940  )
        34        O      tau(  34) = (  0.5095243  0.5080244  0.8407060  )
        35        O      tau(  35) = (  0.1438465  0.2776190  0.8401466  )
        36        O      tau(  36) = (  0.8561535  0.2776190  0.1598534  )
        37        O      tau(  37) = (  0.1396212  0.5021039  0.3954422  )
        38        O      tau(  38) = (  0.8603788  0.5021039  0.6045578  )
        39        O      tau(  39) = (  0.6315242  0.9996756  0.3971927  )
        40        O      tau(  40) = (  0.3684758  0.9996756  0.6028073  )
        41        H      tau(  41) = (  0.1281601  0.4921577  0.3000257  )
        42        H      tau(  42) = (  0.8718398  0.4921577  0.6999744  )
        43        H      tau(  43) = (  0.5952387  0.0137124  0.3017989  )
        44        H      tau(  44) = (  0.4047613  0.0137124  0.6982011  )

     number of k points=    20  Gaussian smearing, width (Ry)=  0.0010
                       cart. coord. in units 2pi/alat
        k(    1) = (   0.0000000   0.0000000   0.0000000), wk =   0.0370370
        k(    2) = (   0.0000000   0.0000000   0.1755529), wk =   0.0740741
        k(    3) = (   0.0000000   0.1919496   0.0000000), wk =   0.0740741
        k(    4) = (   0.0000000   0.1919496   0.1755529), wk =   0.1481481
        k(    5) = (   0.1666667   0.0000000   0.0294523), wk =   0.0740741
        k(    6) = (   0.1666667   0.0000000   0.2050052), wk =   0.0740741
        k(    7) = (   0.1666667   0.0000000  -0.1461006), wk =   0.0740741
        k(    8) = (   0.1666667   0.1919496   0.0294523), wk =   0.1481481
        k(    9) = (   0.1666667   0.1919496   0.2050052), wk =   0.1481481
        k(   10) = (   0.1666667   0.1919496  -0.1461006), wk =   0.1481481
        k(   11) = (   0.3333333   0.0000000   0.0589046), wk =   0.0740741
        k(   12) = (   0.3333333   0.0000000   0.2344575), wk =   0.0740741
        k(   13) = (   0.3333333   0.0000000  -0.1166483), wk =   0.0740741
        k(   14) = (   0.3333333   0.1919496   0.0589046), wk =   0.1481481
        k(   15) = (   0.3333333   0.1919496   0.2344575), wk =   0.1481481
        k(   16) = (   0.3333333   0.1919496  -0.1166483), wk =   0.1481481
        k(   17) = (  -0.5000000   0.0000000  -0.0883569), wk =   0.0370370
        k(   18) = (  -0.5000000   0.0000000   0.0871960), wk =   0.0740741
        k(   19) = (  -0.5000000   0.1919496  -0.0883569), wk =   0.0740741
        k(   20) = (  -0.5000000   0.1919496   0.0871960), wk =   0.1481481

                       cryst. coord.
        k(    1) = (   0.0000000   0.0000000   0.0000000), wk =   0.0370370
        k(    2) = (   0.0000000   0.0000000   0.3333333), wk =   0.0740741
        k(    3) = (   0.0000000   0.3333333   0.0000000), wk =   0.0740741
        k(    4) = (   0.0000000   0.3333333   0.3333333), wk =   0.1481481
        k(    5) = (   0.1666667   0.0000000   0.0000000), wk =   0.0740741
        k(    6) = (   0.1666667   0.0000000   0.3333333), wk =   0.0740741
        k(    7) = (   0.1666667   0.0000000  -0.3333333), wk =   0.0740741
        k(    8) = (   0.1666667   0.3333333   0.0000000), wk =   0.1481481
        k(    9) = (   0.1666667   0.3333333   0.3333333), wk =   0.1481481
        k(   10) = (   0.1666667   0.3333333  -0.3333333), wk =   0.1481481
        k(   11) = (   0.3333333   0.0000000   0.0000000), wk =   0.0740741
        k(   12) = (   0.3333333   0.0000000   0.3333333), wk =   0.0740741
        k(   13) = (   0.3333333   0.0000000  -0.3333333), wk =   0.0740741
        k(   14) = (   0.3333333   0.3333333   0.0000000), wk =   0.1481481
        k(   15) = (   0.3333333   0.3333333   0.3333333), wk =   0.1481481
        k(   16) = (   0.3333333   0.3333333  -0.3333333), wk =   0.1481481
        k(   17) = (  -0.5000000   0.0000000   0.0000000), wk =   0.0370370
        k(   18) = (  -0.5000000   0.0000000   0.3333333), wk =   0.0740741
        k(   19) = (  -0.5000000   0.3333333   0.0000000), wk =   0.0740741
        k(   20) = (  -0.5000000   0.3333333   0.3333333), wk =   0.1481481

     Dense  grid:   583539 G-vectors     FFT dimensions: (  72, 125, 135)

     Smooth grid:   206401 G-vectors     FFT dimensions: (  50,  90,  96)

     Dynamical RAM for                 wfc:      15.44 MB

     Dynamical RAM for     wfc (w. buffer):     324.34 MB

     Dynamical RAM for           str. fact:      15.58 MB

     Dynamical RAM for           local pot:       0.00 MB

     Dynamical RAM for          nlocal pot:      43.09 MB

     Dynamical RAM for                qrad:      24.61 MB

     Dynamical RAM for          rho,v,vnew:      13.68 MB

     Dynamical RAM for               rhoin:       4.56 MB

     Dynamical RAM for            rho*nmix:      35.62 MB

     Dynamical RAM for           G-vectors:       8.74 MB

     Dynamical RAM for          h,s,v(r/c):       1.13 MB

     Dynamical RAM for          <psi|beta>:       1.05 MB

     Dynamical RAM for                 psi:      30.89 MB

     Dynamical RAM for                hpsi:      30.89 MB

     Dynamical RAM for                spsi:      30.89 MB

     Dynamical RAM for      wfcinit/wfcrot:      36.77 MB

     Dynamical RAM for           addusdens:     467.46 MB

     Dynamical RAM for          addusforce:     571.07 MB

     Dynamical RAM for         addusstress:     447.43 MB

     Estimated static dynamical RAM per process >     464.08 MB

     Estimated max dynamical RAM per process >       1.05 GB

     Estimated total dynamical RAM >       4.18 GB

     Check: negative core charge=   -0.000004

     Initial potential from superposition of free atoms

     starting charge     261.9493, renormalised to     262.0000
     Starting wfcs are  183 randomized atomic wfcs
     Checking if some PAW data can be deallocated... 
       PAW data deallocated on    3 nodes for type:  1
       PAW data deallocated on    3 nodes for type:  2
       PAW data deallocated on    3 nodes for type:  3
       PAW data deallocated on    3 nodes for type:  4
       PAW data deallocated on    3 nodes for type:  5
       PAW data deallocated on    1 nodes for type:  6
       PAW data deallocated on    2 nodes for type:  7

     total cpu time spent up to now is      228.9 secs

     Self-consistent Calculation

     iteration #  1     ecut=    60.00 Ry     beta= 0.70
     Davidson diagonalization with overlap

---- Real-time Memory Report at c_bands before calling an iterative solver
           565 MiB given to the printing process from OS
             0 MiB allocation reported by mallinfo(arena+hblkhd)
          1659 MiB available memory on the node where the printing process lives
------------------
     ethr =  1.00E-02,  avg # of iterations =  6.0

     total cpu time spent up to now is      972.0 secs

     total energy              =   -2623.82329440 Ry
     estimated scf accuracy    <      12.20605726 Ry

     iteration #  2     ecut=    60.00 Ry     beta= 0.70
     Davidson diagonalization with overlap

---- Real-time Memory Report at c_bands before calling an iterative solver
           995 MiB given to the printing process from OS
             0 MiB allocation reported by mallinfo(arena+hblkhd)
          2574 MiB available memory on the node where the printing process lives
------------------
     ethr =  4.66E-03,  avg # of iterations =  5.0

     total cpu time spent up to now is     2085.2 secs

     total energy              =   -2629.24786216 Ry
     estimated scf accuracy    <      10.64461094 Ry

     iteration #  3     ecut=    60.00 Ry     beta= 0.70
     Davidson diagonalization with overlap

---- Real-time Memory Report at c_bands before calling an iterative solver
          1018 MiB given to the printing process from OS
             0 MiB allocation reported by mallinfo(arena+hblkhd)
          2612 MiB available memory on the node where the printing process lives
------------------
     ethr =  4.06E-03,  avg # of iterations =  2.0

     total cpu time spent up to now is     2654.1 secs

     total energy              =   -2630.17390748 Ry
     estimated scf accuracy    <       1.65992373 Ry

     iteration #  4     ecut=    60.00 Ry     beta= 0.70
     Davidson diagonalization with overlap

---- Real-time Memory Report at c_bands before calling an iterative solver
          1018 MiB given to the printing process from OS
             0 MiB allocation reported by mallinfo(arena+hblkhd)
          2611 MiB available memory on the node where the printing process lives
------------------
     ethr =  6.34E-04,  avg # of iterations =  5.3

     total cpu time spent up to now is     3511.0 secs

     total energy              =   -2631.09710411 Ry
     estimated scf accuracy    <       0.35631439 Ry

     iteration #  5     ecut=    60.00 Ry     beta= 0.70
     Davidson diagonalization with overlap

---- Real-time Memory Report at c_bands before calling an iterative solver
          1018 MiB given to the printing process from OS
             0 MiB allocation reported by mallinfo(arena+hblkhd)
          2383 MiB available memory on the node where the printing process lives
------------------
     c_bands:  1 eigenvalues not converged
     ethr =  1.36E-04,  avg # of iterations = 14.2

     total cpu time spent up to now is     4224.1 secs

     total energy              =   -2631.18361624 Ry
     estimated scf accuracy    <       0.04427180 Ry

     iteration #  6     ecut=    60.00 Ry     beta= 0.70
     Davidson diagonalization with overlap

---- Real-time Memory Report at c_bands before calling an iterative solver
          1019 MiB given to the printing process from OS
             0 MiB allocation reported by mallinfo(arena+hblkhd)
          2798 MiB available memory on the node where the printing process lives
------------------
     c_bands:  2 eigenvalues not converged
     c_bands:  2 eigenvalues not converged
     c_bands:  1 eigenvalues not converged
     c_bands:  3 eigenvalues not converged
     c_bands:  1 eigenvalues not converged
     c_bands:  1 eigenvalues not converged
     c_bands:  1 eigenvalues not converged
     c_bands:  3 eigenvalues not converged
     c_bands:  3 eigenvalues not converged
     ethr =  1.69E-05,  avg # of iterations = 17.8

     total cpu time spent up to now is     5347.4 secs

     total energy              =   -2631.19454168 Ry
     estimated scf accuracy    <       0.02333681 Ry

     iteration #  7     ecut=    60.00 Ry     beta= 0.70
     Davidson diagonalization with overlap

---- Real-time Memory Report at c_bands before calling an iterative solver
          1019 MiB given to the printing process from OS
             0 MiB allocation reported by mallinfo(arena+hblkhd)
          2789 MiB available memory on the node where the printing process lives
------------------
     c_bands:  1 eigenvalues not converged
     c_bands:  2 eigenvalues not converged
     c_bands:  2 eigenvalues not converged
     ethr =  8.91E-06,  avg # of iterations =  7.7

     total cpu time spent up to now is     6015.0 secs

     total energy              =   -2631.19384203 Ry
     estimated scf accuracy    <       0.00884556 Ry

     iteration #  8     ecut=    60.00 Ry     beta= 0.70
     Davidson diagonalization with overlap

---- Real-time Memory Report at c_bands before calling an iterative solver
          1019 MiB given to the printing process from OS
             0 MiB allocation reported by mallinfo(arena+hblkhd)
          2977 MiB available memory on the node where the printing process lives
------------------
     c_bands:  2 eigenvalues not converged
     c_bands:  2 eigenvalues not converged
     c_bands:  1 eigenvalues not converged
     c_bands:  1 eigenvalues not converged
     c_bands:  1 eigenvalues not converged
     ethr =  3.38E-06,  avg # of iterations = 11.9

     total cpu time spent up to now is     6922.7 secs

     total energy              =   -2631.19684849 Ry
     estimated scf accuracy    <       0.00066389 Ry

     iteration #  9     ecut=    60.00 Ry     beta= 0.70
     Davidson diagonalization with overlap

---- Real-time Memory Report at c_bands before calling an iterative solver
          1019 MiB given to the printing process from OS
             0 MiB allocation reported by mallinfo(arena+hblkhd)
          2784 MiB available memory on the node where the printing process lives
------------------
     c_bands:  1 eigenvalues not converged
     c_bands:  1 eigenvalues not converged
     ethr =  2.53E-07,  avg # of iterations = 10.7

     total cpu time spent up to now is     8166.0 secs

     total energy              =   -2631.19751062 Ry
     estimated scf accuracy    <       0.00014079 Ry

     iteration # 10     ecut=    60.00 Ry     beta= 0.70
     Davidson diagonalization with overlap

---- Real-time Memory Report at c_bands before calling an iterative solver
          1020 MiB given to the printing process from OS
             0 MiB allocation reported by mallinfo(arena+hblkhd)
          2839 MiB available memory on the node where the printing process lives
------------------
     c_bands:  2 eigenvalues not converged
     ethr =  5.37E-08,  avg # of iterations =  7.3

     total cpu time spent up to now is     9025.8 secs

     total energy              =   -2631.19756218 Ry
     estimated scf accuracy    <       0.00004557 Ry

     iteration # 11     ecut=    60.00 Ry     beta= 0.70
     Davidson diagonalization with overlap

---- Real-time Memory Report at c_bands before calling an iterative solver
          1023 MiB given to the printing process from OS
             0 MiB allocation reported by mallinfo(arena+hblkhd)
          2890 MiB available memory on the node where the printing process lives
------------------
     ethr =  1.74E-08,  avg # of iterations =  5.0

     total cpu time spent up to now is     9715.7 secs

     total energy              =   -2631.19756965 Ry
     estimated scf accuracy    <       0.00000885 Ry

     iteration # 12     ecut=    60.00 Ry     beta= 0.70
     Davidson diagonalization with overlap

---- Real-time Memory Report at c_bands before calling an iterative solver
          1023 MiB given to the printing process from OS
             0 MiB allocation reported by mallinfo(arena+hblkhd)
          2912 MiB available memory on the node where the printing process lives
------------------
     ethr =  3.38E-09,  avg # of iterations =  7.0

     total cpu time spent up to now is    10816.8 secs

     total energy              =   -2631.19757559 Ry
     estimated scf accuracy    <       0.00000309 Ry

     iteration # 13     ecut=    60.00 Ry     beta= 0.70
     Davidson diagonalization with overlap

---- Real-time Memory Report at c_bands before calling an iterative solver
          1025 MiB given to the printing process from OS
             0 MiB allocation reported by mallinfo(arena+hblkhd)
          2869 MiB available memory on the node where the printing process lives
------------------
     ethr =  1.18E-09,  avg # of iterations =  5.1

     total cpu time spent up to now is    11593.4 secs

     End of self-consistent calculation

          k = 0.0000 0.0000 0.0000 ( 25799 PWs)   bands (ev):

   -77.9294 -67.4970 -67.4851 -67.3503 -66.9171 -66.9109 -44.0922 -44.0634
   -43.9822 -34.2703 -34.2464 -34.2457 -34.2393 -34.2352 -34.2239 -34.1121
   -34.1113 -34.0846 -33.6938 -33.6876 -33.6714 -33.6677 -33.6506 -33.6284
   -22.9190 -22.8639 -15.0211 -14.9669 -14.0772 -14.0315 -13.5584 -13.5347
   -13.3693 -13.2353 -13.1665 -13.0347 -12.8166 -12.8020 -12.7774 -12.7200
   -12.6744 -12.5848 -12.4707 -12.4065 -12.2154 -12.1986 -12.1585 -12.0327
   -11.1505 -10.9060  -6.4899  -6.4348  -6.4176  -6.4071  -6.3514  -6.3452
    -4.2042  -4.1452  -2.3408  -2.2383  -1.7587  -1.3190  -1.0769  -1.0766
    -1.0256  -0.9198  -0.6014  -0.4616  -0.4018  -0.2868  -0.2787  -0.0868
     0.0840   0.1440   0.2660   0.5416   0.6617   0.6784   0.7459   0.9426
     0.9549   1.1836   1.3079   1.3723   1.4482   1.5599   1.5778   1.7185
     1.8823   1.8935   2.0349   2.1300   2.1809   2.2467   2.2853   2.3627
     2.4690   2.4857   2.6000   2.7368   2.7835   2.8005   2.8494   2.9112
     2.9652   3.0673   3.0831   3.1427   3.2281   3.2301   3.3351   3.3850
     3.4536   3.4927   3.5172   3.6247   3.6362   3.7417   3.8280   3.8759
     3.9266   3.9908   4.0087   4.0215   4.0282   4.2969   4.4751   4.5788
     8.2361   8.3111   8.4416   9.2029   9.7467   9.8750  10.6991  11.4009
    11.6792  11.9875  12.2446  12.3215  12.6734  12.7727  13.1015  13.1341
    13.2006  13.3377  13.3837  13.5275  13.6839  13.7011  13.8137  13.8379
    13.8826  14.1655  14.3202  14.3501  14.4074

     occupation numbers 
     1.0000   1.0000   1.0000   1.0000   1.0000   1.0000   1.0000   1.0000
     1.0000   1.0000   1.0000   1.0000   1.0000   1.0000   1.0000   1.0000
     1.0000   1.0000   1.0000   1.0000   1.0000   1.0000   1.0000   1.0000
     1.0000   1.0000   1.0000   1.0000   1.0000   1.0000   1.0000   1.0000
     1.0000   1.0000   1.0000   1.0000   1.0000   1.0000   1.0000   1.0000
     1.0000   1.0000   1.0000   1.0000   1.0000   1.0000   1.0000   1.0000
     1.0000   1.0000   1.0000   1.0000   1.0000   1.0000   1.0000   1.0000
     1.0000   1.0000   1.0000   1.0000   1.0000   1.0000   1.0000   1.0000
     1.0000   1.0000   1.0000   1.0000   1.0000   1.0000   1.0000   1.0000
     1.0000   1.0000   1.0000   1.0000   1.0000   1.0000   1.0000   1.0000
     1.0000   1.0000   1.0000   1.0000   1.0000   1.0000   1.0000   1.0000
     1.0000   1.0000   1.0000   1.0000   1.0000   1.0000   1.0000   1.0000
     1.0000   1.0000   1.0000   1.0000   1.0000   1.0000   1.0000   1.0000
     1.0000   1.0000   1.0000   1.0000   1.0000   1.0000   1.0000   1.0000
     1.0000   1.0000   1.0000   1.0000   1.0000   1.0000   1.0000   1.0000
     1.0000   1.0000   1.0000   1.0000   1.0000   1.0000   1.0000   1.0000
     1.0000   1.0000   1.0000   0.0000   0.0000   0.0000   0.0000   0.0000
     0.0000   0.0000   0.0000   0.0000   0.0000   0.0000   0.0000   0.0000
     0.0000   0.0000   0.0000   0.0000   0.0000   0.0000   0.0000   0.0000
     0.0000   0.0000   0.0000   0.0000   0.0000

          k = 0.0000 0.0000 0.1756 ( 25812 PWs)   bands (ev):

   -77.9294 -67.4970 -67.4851 -67.3503 -66.9171 -66.9109 -44.0922 -44.0634
   -43.9823 -34.2703 -34.2464 -34.2457 -34.2393 -34.2352 -34.2239 -34.1121
   -34.1113 -34.0846 -33.6938 -33.6876 -33.6714 -33.6677 -33.6506 -33.6284
   -22.9190 -22.8639 -15.0081 -14.9808 -14.0663 -14.0430 -13.5588 -13.5342
   -13.3583 -13.2560 -13.1575 -13.0305 -12.8180 -12.7987 -12.7837 -12.7212
   -12.6671 -12.5890 -12.4626 -12.4144 -12.2223 -12.1866 -12.1566 -12.0396
   -11.1502 -10.9068  -6.4900  -6.4349  -6.4176  -6.4070  -6.3513  -6.3452
    -4.2006  -4.1493  -2.3172  -2.2662  -1.7257  -1.3073  -1.1022  -1.0416
    -1.0193  -0.9459  -0.5740  -0.4714  -0.4475  -0.3008  -0.2519  -0.1758
     0.1003   0.1826   0.2243   0.4830   0.6522   0.6580   0.7694   0.9601
     1.0041   1.2396   1.2586   1.3695   1.4905   1.5251   1.6341   1.7459
     1.8978   1.9131   2.1259   2.1492   2.1954   2.2415   2.3028   2.3605
     2.4074   2.4903   2.6179   2.7226   2.7317   2.7519   2.8330   2.8655
     2.8931   3.0944   3.1042   3.1695   3.1725   3.2469   3.3651   3.4036
     3.4244   3.4915   3.5367   3.6316   3.6595   3.7807   3.8092   3.8608
     3.9059   3.9493   3.9813   4.0190   4.0311   4.3402   4.4708   4.5823
     8.2387   8.3106   8.4404   9.5099   9.7301   9.8883  10.2410  11.4405
    11.7476  11.8806  12.2115  12.3076  12.7941  12.9693  13.0602  13.1386
    13.2711  13.3323  13.4212  13.5045  13.5677  13.7329  13.8100  13.8497
    13.9808  14.0894  14.2048  14.3528  14.3840

     occupation numbers 
     1.0000   1.0000   1.0000   1.0000   1.0000   1.0000   1.0000   1.0000
     1.0000   1.0000   1.0000   1.0000   1.0000   1.0000   1.0000   1.0000
     1.0000   1.0000   1.0000   1.0000   1.0000   1.0000   1.0000   1.0000
     1.0000   1.0000   1.0000   1.0000   1.0000   1.0000   1.0000   1.0000
     1.0000   1.0000   1.0000   1.0000   1.0000   1.0000   1.0000   1.0000
     1.0000   1.0000   1.0000   1.0000   1.0000   1.0000   1.0000   1.0000
     1.0000   1.0000   1.0000   1.0000   1.0000   1.0000   1.0000   1.0000
     1.0000   1.0000   1.0000   1.0000   1.0000   1.0000   1.0000   1.0000
     1.0000   1.0000   1.0000   1.0000   1.0000   1.0000   1.0000   1.0000
     1.0000   1.0000   1.0000   1.0000   1.0000   1.0000   1.0000   1.0000
     1.0000   1.0000   1.0000   1.0000   1.0000   1.0000   1.0000   1.0000
     1.0000   1.0000   1.0000   1.0000   1.0000   1.0000   1.0000   1.0000
     1.0000   1.0000   1.0000   1.0000   1.0000   1.0000   1.0000   1.0000
     1.0000   1.0000   1.0000   1.0000   1.0000   1.0000   1.0000   1.0000
     1.0000   1.0000   1.0000   1.0000   1.0000   1.0000   1.0000   1.0000
     1.0000   1.0000   1.0000   1.0000   1.0000   1.0000   1.0000   1.0000
     1.0000   1.0000   1.0000   0.0000   0.0000   0.0000   0.0000   0.0000
     0.0000   0.0000   0.0000   0.0000   0.0000   0.0000   0.0000   0.0000
     0.0000   0.0000   0.0000   0.0000   0.0000   0.0000   0.0000   0.0000
     0.0000   0.0000   0.0000   0.0000   0.0000

          k = 0.0000 0.1919 0.0000 ( 25771 PWs)   bands (ev):

   -77.9294 -67.4970 -67.4851 -67.3503 -66.9171 -66.9109 -44.0922 -44.0633
   -43.9823 -34.2703 -34.2464 -34.2457 -34.2393 -34.2352 -34.2239 -34.1121
   -34.1113 -34.0846 -33.6938 -33.6875 -33.6714 -33.6677 -33.6506 -33.6284
   -22.9190 -22.8639 -15.0160 -14.9618 -14.1134 -14.0629 -13.5584 -13.5348
   -13.2786 -13.1513 -13.1262 -13.0545 -12.8955 -12.8610 -12.7962 -12.7172
   -12.6923 -12.5817 -12.4568 -12.4025 -12.2152 -12.1969 -12.1547 -12.0292
   -11.1489 -10.9056  -6.4883  -6.4367  -6.4174  -6.4060  -6.3520  -6.3459
    -4.1661  -4.1059  -2.4826  -2.3744  -1.7039  -1.3730  -1.0251  -1.0073
    -0.9035  -0.8507  -0.6685  -0.5413  -0.4049  -0.2425  -0.1974  -0.0755
    -0.0054   0.2077   0.2588   0.5253   0.6101   0.6340   0.7518   0.9336
     0.9799   1.1697   1.2126   1.3548   1.4515   1.5973   1.6257   1.7491
     1.9262   1.9452   2.0414   2.1606   2.1948   2.2410   2.3404   2.4246
     2.4567   2.5173   2.6018   2.6904   2.7556   2.7873   2.8111   2.9420
     3.0130   3.0623   3.1139   3.1390   3.2395   3.2615   3.3369   3.3795
     3.4445   3.4507   3.4958   3.5858   3.6568   3.6744   3.8701   3.8740
     3.8986   3.9702   3.9980   4.0393   4.0431   4.2665   4.2959   4.5672
     8.2364   8.3223   8.4412   9.5831   9.7009   9.8975  10.5852  10.9419
    11.5586  11.9736  12.4041  12.6613  12.6894  12.9131  13.0662  13.1147
    13.1953  13.3504  13.3906  13.4842  13.5476  13.6434  13.6860  13.8467
    13.8497  13.9244  14.3824  14.4253  14.5589

     occupation numbers 
     1.0000   1.0000   1.0000   1.0000   1.0000   1.0000   1.0000   1.0000
     1.0000   1.0000   1.0000   1.0000   1.0000   1.0000   1.0000   1.0000
     1.0000   1.0000   1.0000   1.0000   1.0000   1.0000   1.0000   1.0000
     1.0000   1.0000   1.0000   1.0000   1.0000   1.0000   1.0000   1.0000
     1.0000   1.0000   1.0000   1.0000   1.0000   1.0000   1.0000   1.0000
     1.0000   1.0000   1.0000   1.0000   1.0000   1.0000   1.0000   1.0000
     1.0000   1.0000   1.0000   1.0000   1.0000   1.0000   1.0000   1.0000
     1.0000   1.0000   1.0000   1.0000   1.0000   1.0000   1.0000   1.0000
     1.0000   1.0000   1.0000   1.0000   1.0000   1.0000   1.0000   1.0000
     1.0000   1.0000   1.0000   1.0000   1.0000   1.0000   1.0000   1.0000
     1.0000   1.0000   1.0000   1.0000   1.0000   1.0000   1.0000   1.0000
     1.0000   1.0000   1.0000   1.0000   1.0000   1.0000   1.0000   1.0000
     1.0000   1.0000   1.0000   1.0000   1.0000   1.0000   1.0000   1.0000
     1.0000   1.0000   1.0000   1.0000   1.0000   1.0000   1.0000   1.0000
     1.0000   1.0000   1.0000   1.0000   1.0000   1.0000   1.0000   1.0000
     1.0000   1.0000   1.0000   1.0000   1.0000   1.0000   1.0000   1.0000
     1.0000   1.0000   1.0000   0.0000   0.0000   0.0000   0.0000   0.0000
     0.0000   0.0000   0.0000   0.0000   0.0000   0.0000   0.0000   0.0000
     0.0000   0.0000   0.0000   0.0000   0.0000   0.0000   0.0000   0.0000
     0.0000   0.0000   0.0000   0.0000   0.0000

          k = 0.0000 0.1919 0.1756 ( 25786 PWs)   bands (ev):

   -77.9294 -67.4970 -67.4851 -67.3503 -66.9171 -66.9109 -44.0922 -44.0633
   -43.9823 -34.2703 -34.2464 -34.2457 -34.2393 -34.2352 -34.2239 -34.1121
   -34.1113 -34.0846 -33.6938 -33.6875 -33.6714 -33.6677 -33.6506 -33.6284
   -22.9190 -22.8639 -15.0029 -14.9757 -14.1012 -14.0759 -13.5589 -13.5342
   -13.2712 -13.1516 -13.1382 -13.0441 -12.9110 -12.8441 -12.7996 -12.7183
   -12.6892 -12.5858 -12.4492 -12.4102 -12.2215 -12.1862 -12.1517 -12.0360
   -11.1486 -10.9063  -6.4883  -6.4368  -6.4174  -6.4059  -6.3519  -6.3459
    -4.1596  -4.1128  -2.4578  -2.4018  -1.6755  -1.3615  -1.0190  -1.0082
    -0.8991  -0.8621  -0.6451  -0.5776  -0.4163  -0.2512  -0.1986  -0.1517
     0.0402   0.1913   0.2247   0.4981   0.5975   0.6140   0.7870   0.9351
     1.0370   1.1210   1.2048   1.3997   1.5316   1.6060   1.7087   1.7535
     1.8954   1.9724   2.0787   2.1185   2.1757   2.3128   2.3310   2.4032
     2.4744   2.5032   2.5937   2.6910   2.7212   2.7399   2.8458   2.8752
     2.9688   3.0384   3.1349   3.1497   3.2083   3.2769   3.3242   3.3584
     3.4407   3.4746   3.5367   3.5656   3.6745   3.7300   3.8138   3.8603
     3.9031   3.9595   3.9831   4.0115   4.0451   4.2766   4.3422   4.5729
     8.2390   8.3221   8.4389   9.6457   9.8213   9.9744  10.5348  10.7802
    11.2652  11.9425  12.3745  12.7074  12.8081  13.0071  13.1250  13.1684
    13.2857  13.3288  13.4387  13.4994  13.5825  13.6726  13.6832  13.8012
    13.8535  14.0457  14.2984  14.3666  14.4472

     occupation numbers 
     1.0000   1.0000   1.0000   1.0000   1.0000   1.0000   1.0000   1.0000
     1.0000   1.0000   1.0000   1.0000   1.0000   1.0000   1.0000   1.0000
     1.0000   1.0000   1.0000   1.0000   1.0000   1.0000   1.0000   1.0000
     1.0000   1.0000   1.0000   1.0000   1.0000   1.0000   1.0000   1.0000
     1.0000   1.0000   1.0000   1.0000   1.0000   1.0000   1.0000   1.0000
     1.0000   1.0000   1.0000   1.0000   1.0000   1.0000   1.0000   1.0000
     1.0000   1.0000   1.0000   1.0000   1.0000   1.0000   1.0000   1.0000
     1.0000   1.0000   1.0000   1.0000   1.0000   1.0000   1.0000   1.0000
     1.0000   1.0000   1.0000   1.0000   1.0000   1.0000   1.0000   1.0000
     1.0000   1.0000   1.0000   1.0000   1.0000   1.0000   1.0000   1.0000
     1.0000   1.0000   1.0000   1.0000   1.0000   1.0000   1.0000   1.0000
     1.0000   1.0000   1.0000   1.0000   1.0000   1.0000   1.0000   1.0000
     1.0000   1.0000   1.0000   1.0000   1.0000   1.0000   1.0000   1.0000
     1.0000   1.0000   1.0000   1.0000   1.0000   1.0000   1.0000   1.0000
     1.0000   1.0000   1.0000   1.0000   1.0000   1.0000   1.0000   1.0000
     1.0000   1.0000   1.0000   1.0000   1.0000   1.0000   1.0000   1.0000
     1.0000   1.0000   1.0000   0.0000   0.0000   0.0000   0.0000   0.0000
     0.0000   0.0000   0.0000   0.0000   0.0000   0.0000   0.0000   0.0000
     0.0000   0.0000   0.0000   0.0000   0.0000   0.0000   0.0000   0.0000
     0.0000   0.0000   0.0000   0.0000   0.0000

          k = 0.1667 0.0000 0.0295 ( 25803 PWs)   bands (ev):

   -77.9294 -67.4970 -67.4851 -67.3503 -66.9170 -66.9110 -44.0922 -44.0634
   -43.9823 -34.2700 -34.2475 -34.2450 -34.2391 -34.2351 -34.2240 -34.1122
   -34.1112 -34.0846 -33.6949 -33.6860 -33.6716 -33.6673 -33.6514 -33.6284
   -22.9189 -22.8638 -14.9623 -14.9091 -14.0968 -14.0535 -13.6748 -13.6424
   -13.2977 -13.1614 -13.1179 -13.0164 -12.8467 -12.7915 -12.7770 -12.7339
   -12.6634 -12.5928 -12.4835 -12.4175 -12.2875 -12.2381 -12.1419 -12.0188
   -11.1470 -10.9104  -6.4902  -6.4388  -6.4163  -6.4057  -6.3513  -6.3411
    -4.0468  -3.9852  -2.3102  -2.2075  -1.7474  -1.3731  -1.3318  -1.2558
    -0.8153  -0.7260  -0.6061  -0.5189  -0.4202  -0.2628  -0.2451  -0.0876
     0.0625   0.1833   0.2522   0.5210   0.5927   0.7055   0.7290   0.8270
     1.0997   1.2275   1.3028   1.3636   1.4062   1.4680   1.6035   1.6806
     1.7575   1.9764   2.0095   2.0702   2.1482   2.3073   2.3724   2.4077
     2.4456   2.5265   2.6158   2.7038   2.7670   2.7917   2.8396   2.9355
     2.9897   2.9943   3.1093   3.1627   3.1773   3.2510   3.3113   3.3494
     3.4414   3.5010   3.5187   3.6494   3.6597   3.7155   3.7918   3.8453
     3.8934   3.9510   3.9910   4.0108   4.0430   4.2342   4.4185   4.4949
     8.2374   8.3125   8.4188   9.5293   9.7543   9.8538  10.8914  11.4537
    11.7962  12.0373  12.2505  12.4595  12.6403  12.8772  12.9525  13.0888
    13.2227  13.3218  13.3867  13.5462  13.6310  13.6830  13.7564  13.8503
    13.9543  14.1988  14.2502  14.3326  14.4587

     occupation numbers 
     1.0000   1.0000   1.0000   1.0000   1.0000   1.0000   1.0000   1.0000
     1.0000   1.0000   1.0000   1.0000   1.0000   1.0000   1.0000   1.0000
     1.0000   1.0000   1.0000   1.0000   1.0000   1.0000   1.0000   1.0000
     1.0000   1.0000   1.0000   1.0000   1.0000   1.0000   1.0000   1.0000
     1.0000   1.0000   1.0000   1.0000   1.0000   1.0000   1.0000   1.0000
     1.0000   1.0000   1.0000   1.0000   1.0000   1.0000   1.0000   1.0000
     1.0000   1.0000   1.0000   1.0000   1.0000   1.0000   1.0000   1.0000
     1.0000   1.0000   1.0000   1.0000   1.0000   1.0000   1.0000   1.0000
     1.0000   1.0000   1.0000   1.0000   1.0000   1.0000   1.0000   1.0000
     1.0000   1.0000   1.0000   1.0000   1.0000   1.0000   1.0000   1.0000
     1.0000   1.0000   1.0000   1.0000   1.0000   1.0000   1.0000   1.0000
     1.0000   1.0000   1.0000   1.0000   1.0000   1.0000   1.0000   1.0000
     1.0000   1.0000   1.0000   1.0000   1.0000   1.0000   1.0000   1.0000
     1.0000   1.0000   1.0000   1.0000   1.0000   1.0000   1.0000   1.0000
     1.0000   1.0000   1.0000   1.0000   1.0000   1.0000   1.0000   1.0000
     1.0000   1.0000   1.0000   1.0000   1.0000   1.0000   1.0000   1.0000
     1.0000   1.0000   1.0000   0.0000   0.0000   0.0000   0.0000   0.0000
     0.0000   0.0000   0.0000   0.0000   0.0000   0.0000   0.0000   0.0000
     0.0000   0.0000   0.0000   0.0000   0.0000   0.0000   0.0000   0.0000
     0.0000   0.0000   0.0000   0.0000   0.0000

          k = 0.1667 0.0000 0.2050 ( 25826 PWs)   bands (ev):

   -77.9294 -67.4970 -67.4851 -67.3503 -66.9170 -66.9110 -44.0922 -44.0634
   -43.9823 -34.2700 -34.2475 -34.2451 -34.2391 -34.2351 -34.2240 -34.1122
   -34.1112 -34.0847 -33.6949 -33.6860 -33.6716 -33.6673 -33.6514 -33.6284
   -22.9189 -22.8638 -14.9460 -14.9264 -14.0875 -14.0634 -13.6704 -13.6470
   -13.2874 -13.1836 -13.1071 -13.0114 -12.8443 -12.7967 -12.7796 -12.7334
   -12.6577 -12.5964 -12.4777 -12.4238 -12.2830 -12.2433 -12.1319 -12.0275
   -11.1466 -10.9113  -6.4902  -6.4388  -6.4163  -6.4056  -6.3512  -6.3411
    -4.0485  -3.9838  -2.2901  -2.2324  -1.7110  -1.4030  -1.3207  -1.2312
    -0.8151  -0.7241  -0.5942  -0.5384  -0.4234  -0.2823  -0.2211  -0.1938
     0.0998   0.2013   0.2295   0.4542   0.5764   0.6828   0.7255   0.8819
     1.1676   1.1974   1.2998   1.3631   1.4204   1.5193   1.6084   1.7043
     1.7961   1.9653   2.0508   2.0683   2.2400   2.3118   2.3546   2.3984
     2.4610   2.5183   2.6105   2.6555   2.6820   2.7866   2.8305   2.8507
     2.9474   3.0414   3.1230   3.1532   3.2019   3.2579   3.2929   3.3715
     3.4215   3.5003   3.5270   3.6548   3.6783   3.7376   3.8164   3.8410
     3.8797   3.9101   3.9439   4.0057   4.0340   4.2870   4.4205   4.5075
     8.2397   8.3114   8.4180   9.7403   9.7892   9.9499  10.3895  11.4835
    11.8474  11.9472  12.2905  12.3687  12.5833  12.9122  13.0960  13.2155
    13.2861  13.3988  13.4273  13.4963  13.5771  13.6783  13.8170  13.8663
    13.9370  14.0193  14.1894  14.3987  14.4552

     occupation numbers 
     1.0000   1.0000   1.0000   1.0000   1.0000   1.0000   1.0000   1.0000
     1.0000   1.0000   1.0000   1.0000   1.0000   1.0000   1.0000   1.0000
     1.0000   1.0000   1.0000   1.0000   1.0000   1.0000   1.0000   1.0000
     1.0000   1.0000   1.0000   1.0000   1.0000   1.0000   1.0000   1.0000
     1.0000   1.0000   1.0000   1.0000   1.0000   1.0000   1.0000   1.0000
     1.0000   1.0000   1.0000   1.0000   1.0000   1.0000   1.0000   1.0000
     1.0000   1.0000   1.0000   1.0000   1.0000   1.0000   1.0000   1.0000
     1.0000   1.0000   1.0000   1.0000   1.0000   1.0000   1.0000   1.0000
     1.0000   1.0000   1.0000   1.0000   1.0000   1.0000   1.0000   1.0000
     1.0000   1.0000   1.0000   1.0000   1.0000   1.0000   1.0000   1.0000
     1.0000   1.0000   1.0000   1.0000   1.0000   1.0000   1.0000   1.0000
     1.0000   1.0000   1.0000   1.0000   1.0000   1.0000   1.0000   1.0000
     1.0000   1.0000   1.0000   1.0000   1.0000   1.0000   1.0000   1.0000
     1.0000   1.0000   1.0000   1.0000   1.0000   1.0000   1.0000   1.0000
     1.0000   1.0000   1.0000   1.0000   1.0000   1.0000   1.0000   1.0000
     1.0000   1.0000   1.0000   1.0000   1.0000   1.0000   1.0000   1.0000
     1.0000   1.0000   1.0000   0.0000   0.0000   0.0000   0.0000   0.0000
     0.0000   0.0000   0.0000   0.0000   0.0000   0.0000   0.0000   0.0000
     0.0000   0.0000   0.0000   0.0000   0.0000   0.0000   0.0000   0.0000
     0.0000   0.0000   0.0000   0.0000   0.0000

          k = 0.1667 0.0000-0.1461 ( 25786 PWs)   bands (ev):

   -77.9294 -67.4970 -67.4851 -67.3503 -66.9170 -66.9110 -44.0922 -44.0634
   -43.9823 -34.2699 -34.2475 -34.2451 -34.2391 -34.2351 -34.2240 -34.1122
   -34.1112 -34.0846 -33.6949 -33.6860 -33.6716 -33.6673 -33.6514 -33.6284
   -22.9189 -22.8638 -14.9529 -14.9192 -14.0881 -14.0628 -13.6693 -13.6480
   -13.2902 -13.1752 -13.1144 -13.0113 -12.8445 -12.7991 -12.7743 -12.7328
   -12.6605 -12.5967 -12.4724 -12.4288 -12.2682 -12.2588 -12.1312 -12.0264
   -11.1464 -10.9112  -6.4903  -6.4388  -6.4163  -6.4056  -6.3512  -6.3411
    -4.0321  -4.0006  -2.2863  -2.2344  -1.7246  -1.4054  -1.3094  -1.2404
    -0.7982  -0.7462  -0.5695  -0.5184  -0.4486  -0.2742  -0.2553  -0.1552
     0.0644   0.2095   0.2333   0.4648   0.6080   0.7078   0.7457   0.8693
     1.1149   1.1835   1.2895   1.3607   1.4470   1.5403   1.6169   1.6432
     1.8150   1.9579   2.0243   2.0889   2.1507   2.2916   2.3786   2.4047
     2.4441   2.5379   2.6051   2.6728   2.7425   2.7849   2.8309   2.8945
     2.9399   3.0318   3.1347   3.1864   3.2051   3.2574   3.2961   3.3814
     3.4341   3.4991   3.5498   3.6199   3.6466   3.7311   3.7726   3.8139
     3.8818   3.9385   3.9663   3.9912   4.0361   4.2850   4.4190   4.5116
     8.2374   8.3113   8.4195   9.6721   9.7409   9.9113  10.5855  11.5623
    11.8708  11.9206  12.3255  12.3545  12.6298  12.9494  13.0102  13.1563
    13.2171  13.3156  13.3897  13.5102  13.5687  13.7150  13.7629  13.8455
    13.9543  14.1599  14.2450  14.3646  14.4573

     occupation numbers 
     1.0000   1.0000   1.0000   1.0000   1.0000   1.0000   1.0000   1.0000
     1.0000   1.0000   1.0000   1.0000   1.0000   1.0000   1.0000   1.0000
     1.0000   1.0000   1.0000   1.0000   1.0000   1.0000   1.0000   1.0000
     1.0000   1.0000   1.0000   1.0000   1.0000   1.0000   1.0000   1.0000
     1.0000   1.0000   1.0000   1.0000   1.0000   1.0000   1.0000   1.0000
     1.0000   1.0000   1.0000   1.0000   1.0000   1.0000   1.0000   1.0000
     1.0000   1.0000   1.0000   1.0000   1.0000   1.0000   1.0000   1.0000
     1.0000   1.0000   1.0000   1.0000   1.0000   1.0000   1.0000   1.0000
     1.0000   1.0000   1.0000   1.0000   1.0000   1.0000   1.0000   1.0000
     1.0000   1.0000   1.0000   1.0000   1.0000   1.0000   1.0000   1.0000
     1.0000   1.0000   1.0000   1.0000   1.0000   1.0000   1.0000   1.0000
     1.0000   1.0000   1.0000   1.0000   1.0000   1.0000   1.0000   1.0000
     1.0000   1.0000   1.0000   1.0000   1.0000   1.0000   1.0000   1.0000
     1.0000   1.0000   1.0000   1.0000   1.0000   1.0000   1.0000   1.0000
     1.0000   1.0000   1.0000   1.0000   1.0000   1.0000   1.0000   1.0000
     1.0000   1.0000   1.0000   1.0000   1.0000   1.0000   1.0000   1.0000
     1.0000   1.0000   1.0000   0.0000   0.0000   0.0000   0.0000   0.0000
     0.0000   0.0000   0.0000   0.0000   0.0000   0.0000   0.0000   0.0000
     0.0000   0.0000   0.0000   0.0000   0.0000   0.0000   0.0000   0.0000
     0.0000   0.0000   0.0000   0.0000   0.0000

          k = 0.1667 0.1919 0.0295 ( 25796 PWs)   bands (ev):

   -77.9294 -67.4970 -67.4851 -67.3503 -66.9170 -66.9110 -44.0922 -44.0634
   -43.9823 -34.2700 -34.2475 -34.2451 -34.2391 -34.2351 -34.2240 -34.1122
   -34.1112 -34.0846 -33.6949 -33.6860 -33.6716 -33.6673 -33.6514 -33.6284
   -22.9189 -22.8638 -14.9574 -14.9043 -14.1283 -14.0806 -13.6608 -13.6327
   -13.2377 -13.1259 -13.0732 -13.0155 -12.8780 -12.8648 -12.7991 -12.7362
   -12.6829 -12.5904 -12.4755 -12.4062 -12.2824 -12.2394 -12.1396 -12.0169
   -11.1458 -10.9101  -6.4891  -6.4404  -6.4163  -6.4048  -6.3515  -6.3416
    -4.0117  -3.9490  -2.4646  -2.3583  -1.6733  -1.3479  -1.2239  -1.1847
    -0.8103  -0.7289  -0.6758  -0.4984  -0.4194  -0.2183  -0.1907  -0.0579
     0.0438   0.1774   0.2384   0.5034   0.5542   0.6842   0.7190   0.8058
     1.1096   1.1380   1.3027   1.3592   1.3968   1.4921   1.6196   1.7060
     1.8089   1.9468   1.9809   2.1190   2.1935   2.2949   2.3694   2.4164
     2.5056   2.5503   2.5966   2.7382   2.7874   2.7967   2.8644   2.9161
     2.9917   3.0532   3.1363   3.1527   3.2023   3.2550   3.3164   3.3707
     3.4072   3.4454   3.4852   3.6180   3.6519   3.6842   3.7962   3.8385
     3.8599   3.9198   3.9711   4.0275   4.0613   4.2087   4.3179   4.4952
     8.2375   8.3236   8.4174   9.7054   9.8361   9.9219  10.7449  11.1106
    11.6526  12.0059  12.3707  12.6754  12.7201  12.8689  13.0630  13.1393
    13.1977  13.3339  13.3758  13.4749  13.5311  13.6170  13.7190  13.8127
    13.9808  14.0728  14.3219  14.4634  14.6198

     occupation numbers 
     1.0000   1.0000   1.0000   1.0000   1.0000   1.0000   1.0000   1.0000
     1.0000   1.0000   1.0000   1.0000   1.0000   1.0000   1.0000   1.0000
     1.0000   1.0000   1.0000   1.0000   1.0000   1.0000   1.0000   1.0000
     1.0000   1.0000   1.0000   1.0000   1.0000   1.0000   1.0000   1.0000
     1.0000   1.0000   1.0000   1.0000   1.0000   1.0000   1.0000   1.0000
     1.0000   1.0000   1.0000   1.0000   1.0000   1.0000   1.0000   1.0000
     1.0000   1.0000   1.0000   1.0000   1.0000   1.0000   1.0000   1.0000
     1.0000   1.0000   1.0000   1.0000   1.0000   1.0000   1.0000   1.0000
     1.0000   1.0000   1.0000   1.0000   1.0000   1.0000   1.0000   1.0000
     1.0000   1.0000   1.0000   1.0000   1.0000   1.0000   1.0000   1.0000
     1.0000   1.0000   1.0000   1.0000   1.0000   1.0000   1.0000   1.0000
     1.0000   1.0000   1.0000   1.0000   1.0000   1.0000   1.0000   1.0000
     1.0000   1.0000   1.0000   1.0000   1.0000   1.0000   1.0000   1.0000
     1.0000   1.0000   1.0000   1.0000   1.0000   1.0000   1.0000   1.0000
     1.0000   1.0000   1.0000   1.0000   1.0000   1.0000   1.0000   1.0000
     1.0000   1.0000   1.0000   1.0000   1.0000   1.0000   1.0000   1.0000
     1.0000   1.0000   1.0000   0.0000   0.0000   0.0000   0.0000   0.0000
     0.0000   0.0000   0.0000   0.0000   0.0000   0.0000   0.0000   0.0000
     0.0000   0.0000   0.0000   0.0000   0.0000   0.0000   0.0000   0.0000
     0.0000   0.0000   0.0000   0.0000   0.0000

          k = 0.1667 0.1919 0.2050 ( 25776 PWs)   bands (ev):

   -77.9294 -67.4970 -67.4851 -67.3503 -66.9170 -66.9110 -44.0922 -44.0634
   -43.9823 -34.2699 -34.2475 -34.2451 -34.2391 -34.2351 -34.2240 -34.1122
   -34.1112 -34.0846 -33.6949 -33.6860 -33.6716 -33.6673 -33.6514 -33.6284
   -22.9189 -22.8638 -14.9411 -14.9215 -14.1160 -14.0938 -13.6589 -13.6346
   -13.2305 -13.1234 -13.0901 -13.0019 -12.8933 -12.8547 -12.7960 -12.7365
   -12.6808 -12.5950 -12.4713 -12.4110 -12.2801 -12.2421 -12.1298 -12.0254
   -11.1454 -10.9109  -6.4892  -6.4405  -6.4163  -6.4047  -6.3514  -6.3416
    -4.0100  -3.9509  -2.4388  -2.3872  -1.6449  -1.3363  -1.2460  -1.1640
    -0.8154  -0.7242  -0.6706  -0.5049  -0.4236  -0.2720  -0.1690  -0.1166
     0.0813   0.1551   0.2357   0.4587   0.5386   0.6676   0.7128   0.8451
     1.0956   1.1530   1.2866   1.3978   1.4487   1.5508   1.6390   1.7531
     1.8563   1.8999   1.9689   2.1095   2.2222   2.3229   2.3811   2.4244
     2.4804   2.5588   2.5883   2.7039   2.7310   2.7815   2.8611   2.8990
     2.9391   3.0640   3.0959   3.1768   3.2105   3.2423   3.3110   3.3215
     3.4081   3.4635   3.5705   3.6196   3.6517   3.7083   3.7649   3.8470
     3.8502   3.8965   3.9511   3.9970   4.0624   4.2524   4.3382   4.5065
     8.2398   8.3226   8.4159   9.6889   9.8605  10.1977  10.6740  10.9402
    11.3609  11.9711  12.3388  12.6603  12.8013  12.9183  13.1148  13.2536
    13.2978  13.3627  13.4378  13.4572  13.5921  13.6614  13.7339  13.8256
    13.9337  14.0717  14.2321  14.3449  14.5912

     occupation numbers 
     1.0000   1.0000   1.0000   1.0000   1.0000   1.0000   1.0000   1.0000
     1.0000   1.0000   1.0000   1.0000   1.0000   1.0000   1.0000   1.0000
     1.0000   1.0000   1.0000   1.0000   1.0000   1.0000   1.0000   1.0000
     1.0000   1.0000   1.0000   1.0000   1.0000   1.0000   1.0000   1.0000
     1.0000   1.0000   1.0000   1.0000   1.0000   1.0000   1.0000   1.0000
     1.0000   1.0000   1.0000   1.0000   1.0000   1.0000   1.0000   1.0000
     1.0000   1.0000   1.0000   1.0000   1.0000   1.0000   1.0000   1.0000
     1.0000   1.0000   1.0000   1.0000   1.0000   1.0000   1.0000   1.0000
     1.0000   1.0000   1.0000   1.0000   1.0000   1.0000   1.0000   1.0000
     1.0000   1.0000   1.0000   1.0000   1.0000   1.0000   1.0000   1.0000
     1.0000   1.0000   1.0000   1.0000   1.0000   1.0000   1.0000   1.0000
     1.0000   1.0000   1.0000   1.0000   1.0000   1.0000   1.0000   1.0000
     1.0000   1.0000   1.0000   1.0000   1.0000   1.0000   1.0000   1.0000
     1.0000   1.0000   1.0000   1.0000   1.0000   1.0000   1.0000   1.0000
     1.0000   1.0000   1.0000   1.0000   1.0000   1.0000   1.0000   1.0000
     1.0000   1.0000   1.0000   1.0000   1.0000   1.0000   1.0000   1.0000
     1.0000   1.0000   1.0000   0.0000   0.0000   0.0000   0.0000   0.0000
     0.0000   0.0000   0.0000   0.0000   0.0000   0.0000   0.0000   0.0000
     0.0000   0.0000   0.0000   0.0000   0.0000   0.0000   0.0000   0.0000
     0.0000   0.0000   0.0000   0.0000   0.0000

          k = 0.1667 0.1919-0.1461 ( 25782 PWs)   bands (ev):

   -77.9294 -67.4970 -67.4851 -67.3503 -66.9170 -66.9110 -44.0922 -44.0634
   -43.9823 -34.2699 -34.2475 -34.2451 -34.2391 -34.2351 -34.2240 -34.1122
   -34.1112 -34.0846 -33.6949 -33.6860 -33.6716 -33.6673 -33.6514 -33.6284
   -22.9189 -22.8638 -14.9479 -14.9144 -14.1183 -14.0913 -13.6562 -13.6374
   -13.2323 -13.1242 -13.0840 -13.0076 -12.8929 -12.8511 -12.8010 -12.7355
   -12.6810 -12.5942 -12.4648 -12.4168 -12.2672 -12.2562 -12.1291 -12.0245
   -11.1452 -10.9109  -6.4893  -6.4405  -6.4163  -6.4047  -6.3514  -6.3416
    -3.9948  -3.9665  -2.4403  -2.3850  -1.6551  -1.3405  -1.2478  -1.1611
    -0.7941  -0.7474  -0.6382  -0.5038  -0.4577  -0.2399  -0.1847  -0.1014
     0.0474   0.1747   0.2145   0.4885   0.5637   0.6665   0.7494   0.8429
     1.0918   1.1074   1.2770   1.3769   1.4633   1.5422   1.6453   1.7321
     1.8172   1.9162   1.9677   2.1384   2.2098   2.2817   2.3666   2.4212
     2.5039   2.5283   2.6051   2.7205   2.7693   2.8096   2.8408   2.8950
     2.9474   3.0755   3.1149   3.1775   3.2276   3.2355   3.3077   3.3608
     3.4411   3.4786   3.5096   3.6084   3.6700   3.6980   3.7378   3.8157
     3.8589   3.9106   3.9578   4.0002   4.0340   4.2645   4.3281   4.5036
     8.2375   8.3229   8.4183   9.6676   9.8284  10.1426  10.8167  10.9220
    11.4264  12.0437  12.3859  12.6516  12.7364  12.8985  13.0775  13.1858
    13.2677  13.3233  13.4167  13.4974  13.5813  13.6439  13.6752  13.9320
    13.9585  14.0143  14.1960  14.3902  14.5562

     occupation numbers 
     1.0000   1.0000   1.0000   1.0000   1.0000   1.0000   1.0000   1.0000
     1.0000   1.0000   1.0000   1.0000   1.0000   1.0000   1.0000   1.0000
     1.0000   1.0000   1.0000   1.0000   1.0000   1.0000   1.0000   1.0000
     1.0000   1.0000   1.0000   1.0000   1.0000   1.0000   1.0000   1.0000
     1.0000   1.0000   1.0000   1.0000   1.0000   1.0000   1.0000   1.0000
     1.0000   1.0000   1.0000   1.0000   1.0000   1.0000   1.0000   1.0000
     1.0000   1.0000   1.0000   1.0000   1.0000   1.0000   1.0000   1.0000
     1.0000   1.0000   1.0000   1.0000   1.0000   1.0000   1.0000   1.0000
     1.0000   1.0000   1.0000   1.0000   1.0000   1.0000   1.0000   1.0000
     1.0000   1.0000   1.0000   1.0000   1.0000   1.0000   1.0000   1.0000
     1.0000   1.0000   1.0000   1.0000   1.0000   1.0000   1.0000   1.0000
     1.0000   1.0000   1.0000   1.0000   1.0000   1.0000   1.0000   1.0000
     1.0000   1.0000   1.0000   1.0000   1.0000   1.0000   1.0000   1.0000
     1.0000   1.0000   1.0000   1.0000   1.0000   1.0000   1.0000   1.0000
     1.0000   1.0000   1.0000   1.0000   1.0000   1.0000   1.0000   1.0000
     1.0000   1.0000   1.0000   1.0000   1.0000   1.0000   1.0000   1.0000
     1.0000   1.0000   1.0000   0.0000   0.0000   0.0000   0.0000   0.0000
     0.0000   0.0000   0.0000   0.0000   0.0000   0.0000   0.0000   0.0000
     0.0000   0.0000   0.0000   0.0000   0.0000   0.0000   0.0000   0.0000
     0.0000   0.0000   0.0000   0.0000   0.0000

          k = 0.3333 0.0000 0.0589 ( 25772 PWs)   bands (ev):

   -77.9294 -67.4969 -67.4851 -67.3503 -66.9169 -66.9111 -44.0922 -44.0634
   -43.9823 -34.2693 -34.2492 -34.2444 -34.2383 -34.2352 -34.2242 -34.1122
   -34.1111 -34.0847 -33.6963 -33.6835 -33.6722 -33.6660 -33.6531 -33.6284
   -22.9185 -22.8634 -14.8000 -14.7504 -14.2232 -14.1839 -13.7927 -13.7560
   -13.1847 -13.0533 -13.0046 -12.9731 -12.9074 -12.8287 -12.7806 -12.7609
   -12.6680 -12.6011 -12.5202 -12.4580 -12.3764 -12.3084 -12.1254 -12.0092
   -11.1414 -10.9196  -6.4915  -6.4466  -6.4134  -6.4031  -6.3509  -6.3328
    -3.6362  -3.5648  -2.4514  -2.3395  -1.7268  -1.5705  -1.3447  -1.1665
    -0.7554  -0.7261  -0.6333  -0.5988  -0.3283  -0.2139  -0.1470  -0.0787
    -0.0484   0.1839   0.3214   0.4896   0.5758   0.6973   0.7320   0.7708
     1.0425   1.1873   1.2463   1.2966   1.4717   1.5157   1.5826   1.6479
     1.6903   1.7376   1.8751   2.0227   2.1382   2.3526   2.4070   2.4386
     2.5045   2.6045   2.7325   2.7608   2.7847   2.8300   2.8599   2.9336
     2.9708   3.0112   3.0719   3.1455   3.1982   3.2410   3.2721   3.3243
     3.4255   3.4405   3.4960   3.5981   3.6499   3.6924   3.7082   3.7896
     3.8210   3.8712   3.9407   4.0128   4.0863   4.1163   4.3165   4.4518
     8.2391   8.3160   8.3718   9.7686   9.8308  10.3083  11.2994  11.5689
    11.9996  12.0990  12.2835  12.3208  12.7270  12.7746  12.8009  13.0603
    13.1952  13.2729  13.4864  13.5751  13.6019  13.6480  13.8185  13.9958
    14.0724  14.2558  14.3060  14.3839  14.4992

     occupation numbers 
     1.0000   1.0000   1.0000   1.0000   1.0000   1.0000   1.0000   1.0000
     1.0000   1.0000   1.0000   1.0000   1.0000   1.0000   1.0000   1.0000
     1.0000   1.0000   1.0000   1.0000   1.0000   1.0000   1.0000   1.0000
     1.0000   1.0000   1.0000   1.0000   1.0000   1.0000   1.0000   1.0000
     1.0000   1.0000   1.0000   1.0000   1.0000   1.0000   1.0000   1.0000
     1.0000   1.0000   1.0000   1.0000   1.0000   1.0000   1.0000   1.0000
     1.0000   1.0000   1.0000   1.0000   1.0000   1.0000   1.0000   1.0000
     1.0000   1.0000   1.0000   1.0000   1.0000   1.0000   1.0000   1.0000
     1.0000   1.0000   1.0000   1.0000   1.0000   1.0000   1.0000   1.0000
     1.0000   1.0000   1.0000   1.0000   1.0000   1.0000   1.0000   1.0000
     1.0000   1.0000   1.0000   1.0000   1.0000   1.0000   1.0000   1.0000
     1.0000   1.0000   1.0000   1.0000   1.0000   1.0000   1.0000   1.0000
     1.0000   1.0000   1.0000   1.0000   1.0000   1.0000   1.0000   1.0000
     1.0000   1.0000   1.0000   1.0000   1.0000   1.0000   1.0000   1.0000
     1.0000   1.0000   1.0000   1.0000   1.0000   1.0000   1.0000   1.0000
     1.0000   1.0000   1.0000   1.0000   1.0000   1.0000   1.0000   1.0000
     1.0000   1.0000   1.0000   0.0000   0.0000   0.0000   0.0000   0.0000
     0.0000   0.0000   0.0000   0.0000   0.0000   0.0000   0.0000   0.0000
     0.0000   0.0000   0.0000   0.0000   0.0000   0.0000   0.0000   0.0000
     0.0000   0.0000   0.0000   0.0000   0.0000

          k = 0.3333 0.0000 0.2345 ( 25788 PWs)   bands (ev):

   -77.9294 -67.4969 -67.4851 -67.3503 -66.9169 -66.9111 -44.0922 -44.0634
   -43.9823 -34.2693 -34.2492 -34.2444 -34.2383 -34.2352 -34.2242 -34.1123
   -34.1111 -34.0847 -33.6963 -33.6835 -33.6722 -33.6661 -33.6532 -33.6284
   -22.9185 -22.8634 -14.7819 -14.7695 -14.2208 -14.1864 -13.7858 -13.7632
   -13.1761 -13.0685 -13.0007 -12.9691 -12.9049 -12.8247 -12.7930 -12.7550
   -12.6683 -12.6015 -12.5153 -12.4652 -12.3612 -12.3215 -12.1149 -12.0185
   -11.1405 -10.9206  -6.4915  -6.4467  -6.4133  -6.4031  -6.3508  -6.3328
    -3.6381  -3.5629  -2.4248  -2.3697  -1.6978  -1.6084  -1.3181  -1.1530
    -0.7515  -0.7318  -0.6427  -0.5796  -0.3002  -0.2110  -0.1982  -0.1509
    -0.0005   0.1409   0.3286   0.4555   0.5836   0.6732   0.7242   0.8223
     1.0726   1.1941   1.2350   1.3157   1.3966   1.5663   1.6251   1.6533
     1.7144   1.7703   1.8272   2.0970   2.1732   2.2893   2.4192   2.4651
     2.4876   2.5268   2.7123   2.7460   2.8219   2.8378   2.8834   2.8933
     2.9430   2.9759   3.0485   3.1418   3.1742   3.2553   3.3179   3.3809
     3.4226   3.4525   3.5274   3.5789   3.6406   3.6945   3.7279   3.7379
     3.8295   3.8577   3.9230   3.9653   4.0586   4.1945   4.3205   4.4744
     8.2389   8.3139   8.3725   9.7625   9.8145  10.6556  10.8686  11.6025
    12.0034  12.0635  12.2599  12.3946  12.6662  12.7177  12.8153  12.9468
    13.3171  13.3644  13.4904  13.5314  13.6358  13.6703  13.9013  14.0233
    14.0663  14.0953  14.1266  14.5009  14.6725

     occupation numbers 
     1.0000   1.0000   1.0000   1.0000   1.0000   1.0000   1.0000   1.0000
     1.0000   1.0000   1.0000   1.0000   1.0000   1.0000   1.0000   1.0000
     1.0000   1.0000   1.0000   1.0000   1.0000   1.0000   1.0000   1.0000
     1.0000   1.0000   1.0000   1.0000   1.0000   1.0000   1.0000   1.0000
     1.0000   1.0000   1.0000   1.0000   1.0000   1.0000   1.0000   1.0000
     1.0000   1.0000   1.0000   1.0000   1.0000   1.0000   1.0000   1.0000
     1.0000   1.0000   1.0000   1.0000   1.0000   1.0000   1.0000   1.0000
     1.0000   1.0000   1.0000   1.0000   1.0000   1.0000   1.0000   1.0000
     1.0000   1.0000   1.0000   1.0000   1.0000   1.0000   1.0000   1.0000
     1.0000   1.0000   1.0000   1.0000   1.0000   1.0000   1.0000   1.0000
     1.0000   1.0000   1.0000   1.0000   1.0000   1.0000   1.0000   1.0000
     1.0000   1.0000   1.0000   1.0000   1.0000   1.0000   1.0000   1.0000
     1.0000   1.0000   1.0000   1.0000   1.0000   1.0000   1.0000   1.0000
     1.0000   1.0000   1.0000   1.0000   1.0000   1.0000   1.0000   1.0000
     1.0000   1.0000   1.0000   1.0000   1.0000   1.0000   1.0000   1.0000
     1.0000   1.0000   1.0000   1.0000   1.0000   1.0000   1.0000   1.0000
     1.0000   1.0000   1.0000   0.0000   0.0000   0.0000   0.0000   0.0000
     0.0000   0.0000   0.0000   0.0000   0.0000   0.0000   0.0000   0.0000
     0.0000   0.0000   0.0000   0.0000   0.0000   0.0000   0.0000   0.0000
     0.0000   0.0000   0.0000   0.0000   0.0000

          k = 0.3333 0.0000-0.1166 ( 25772 PWs)   bands (ev):

   -77.9294 -67.4969 -67.4851 -67.3503 -66.9169 -66.9111 -44.0922 -44.0634
   -43.9823 -34.2693 -34.2492 -34.2444 -34.2383 -34.2352 -34.2242 -34.1123
   -34.1111 -34.0847 -33.6963 -33.6835 -33.6722 -33.6661 -33.6531 -33.6284
   -22.9185 -22.8634 -14.7943 -14.7565 -14.2147 -14.1928 -13.7870 -13.7620
   -13.1807 -13.0545 -13.0144 -12.9665 -12.9043 -12.8359 -12.7785 -12.7561
   -12.6681 -12.6033 -12.5106 -12.4713 -12.3571 -12.3248 -12.1159 -12.0170
   -11.1404 -10.9205  -6.4916  -6.4467  -6.4133  -6.4031  -6.3508  -6.3328
    -3.6046  -3.5974  -2.4405  -2.3528  -1.7106  -1.5901  -1.3358  -1.1622
    -0.7360  -0.7182  -0.6412  -0.5782  -0.3364  -0.2113  -0.1634  -0.1282
    -0.0564   0.1551   0.3574   0.4498   0.6025   0.6843   0.7597   0.7848
     1.0747   1.1484   1.2564   1.3633   1.3905   1.5378   1.5848   1.6690
     1.6937   1.7186   1.8934   2.0460   2.1242   2.3199   2.4068   2.4143
     2.4982   2.6040   2.7256   2.7854   2.7887   2.8369   2.8608   2.9196
     2.9845   2.9914   3.0235   3.1516   3.2128   3.2633   3.3367   3.3516
     3.4136   3.4383   3.5675   3.6152   3.6535   3.6604   3.6949   3.7183
     3.7970   3.8628   3.9080   3.9475   4.0929   4.1769   4.3247   4.4760
     8.2367   8.3141   8.3734   9.7611   9.8297  10.3759  11.1827  11.6931
    11.9519  12.1238  12.2775  12.4268  12.6533  12.7033  12.8843  12.9439
    13.1853  13.3156  13.4225  13.5692  13.6244  13.6826  13.7159  13.9723
    14.1035  14.2001  14.2779  14.4621  14.5633

     occupation numbers 
     1.0000   1.0000   1.0000   1.0000   1.0000   1.0000   1.0000   1.0000
     1.0000   1.0000   1.0000   1.0000   1.0000   1.0000   1.0000   1.0000
     1.0000   1.0000   1.0000   1.0000   1.0000   1.0000   1.0000   1.0000
     1.0000   1.0000   1.0000   1.0000   1.0000   1.0000   1.0000   1.0000
     1.0000   1.0000   1.0000   1.0000   1.0000   1.0000   1.0000   1.0000
     1.0000   1.0000   1.0000   1.0000   1.0000   1.0000   1.0000   1.0000
     1.0000   1.0000   1.0000   1.0000   1.0000   1.0000   1.0000   1.0000
     1.0000   1.0000   1.0000   1.0000   1.0000   1.0000   1.0000   1.0000
     1.0000   1.0000   1.0000   1.0000   1.0000   1.0000   1.0000   1.0000
     1.0000   1.0000   1.0000   1.0000   1.0000   1.0000   1.0000   1.0000
     1.0000   1.0000   1.0000   1.0000   1.0000   1.0000   1.0000   1.0000
     1.0000   1.0000   1.0000   1.0000   1.0000   1.0000   1.0000   1.0000
     1.0000   1.0000   1.0000   1.0000   1.0000   1.0000   1.0000   1.0000
     1.0000   1.0000   1.0000   1.0000   1.0000   1.0000   1.0000   1.0000
     1.0000   1.0000   1.0000   1.0000   1.0000   1.0000   1.0000   1.0000
     1.0000   1.0000   1.0000   1.0000   1.0000   1.0000   1.0000   1.0000
     1.0000   1.0000   1.0000   0.0000   0.0000   0.0000   0.0000   0.0000
     0.0000   0.0000   0.0000   0.0000   0.0000   0.0000   0.0000   0.0000
     0.0000   0.0000   0.0000   0.0000   0.0000   0.0000   0.0000   0.0000
     0.0000   0.0000   0.0000   0.0000   0.0000

          k = 0.3333 0.1919 0.0589 ( 25803 PWs)   bands (ev):

   -77.9294 -67.4969 -67.4851 -67.3503 -66.9169 -66.9111 -44.0922 -44.0634
   -43.9823 -34.2693 -34.2492 -34.2444 -34.2383 -34.2352 -34.2242 -34.1123
   -34.1111 -34.0847 -33.6963 -33.6835 -33.6722 -33.6661 -33.6532 -33.6284
   -22.9185 -22.8634 -14.7962 -14.7466 -14.2353 -14.1941 -13.7889 -13.7550
   -13.1500 -13.0640 -12.9882 -12.9496 -12.9029 -12.8494 -12.8071 -12.7876
   -12.6685 -12.6020 -12.5167 -12.4410 -12.3747 -12.3157 -12.1242 -12.0088
   -11.1408 -10.9196  -6.4914  -6.4481  -6.4136  -6.4025  -6.3504  -6.3330
    -3.6147  -3.5432  -2.5514  -2.4496  -1.6460  -1.4645  -1.3072  -1.1798
    -0.7848  -0.7338  -0.6289  -0.5595  -0.3245  -0.1899  -0.1435  -0.0656
     0.0026   0.1542   0.3124   0.4824   0.5674   0.6600   0.7147   0.7239
     1.0201   1.0932   1.3071   1.3651   1.4263   1.5401   1.5976   1.6317
     1.6988   1.7493   1.8603   1.9872   2.1566   2.3116   2.4062   2.4601
     2.5203   2.6377   2.6750   2.7233   2.7737   2.8749   2.9221   2.9568
     2.9869   3.0304   3.1340   3.1503   3.2093   3.2477   3.2647   3.3478
     3.4097   3.4583   3.5028   3.5618   3.6217   3.6386   3.6785   3.7273
     3.8383   3.9100   3.9489   4.0260   4.0614   4.1625   4.2520   4.4265
     8.2389   8.3260   8.3702   9.7354   9.8517  10.5558  11.1612  11.4813
    11.8945  11.9978  12.1945  12.5341  12.6067  12.7806  12.8912  13.1037
    13.2141  13.2951  13.4592  13.4940  13.5994  13.6766  13.8289  13.9541
    14.1757  14.3080  14.3508  14.4268  14.5285

     occupation numbers 
     1.0000   1.0000   1.0000   1.0000   1.0000   1.0000   1.0000   1.0000
     1.0000   1.0000   1.0000   1.0000   1.0000   1.0000   1.0000   1.0000
     1.0000   1.0000   1.0000   1.0000   1.0000   1.0000   1.0000   1.0000
     1.0000   1.0000   1.0000   1.0000   1.0000   1.0000   1.0000   1.0000
     1.0000   1.0000   1.0000   1.0000   1.0000   1.0000   1.0000   1.0000
     1.0000   1.0000   1.0000   1.0000   1.0000   1.0000   1.0000   1.0000
     1.0000   1.0000   1.0000   1.0000   1.0000   1.0000   1.0000   1.0000
     1.0000   1.0000   1.0000   1.0000   1.0000   1.0000   1.0000   1.0000
     1.0000   1.0000   1.0000   1.0000   1.0000   1.0000   1.0000   1.0000
     1.0000   1.0000   1.0000   1.0000   1.0000   1.0000   1.0000   1.0000
     1.0000   1.0000   1.0000   1.0000   1.0000   1.0000   1.0000   1.0000
     1.0000   1.0000   1.0000   1.0000   1.0000   1.0000   1.0000   1.0000
     1.0000   1.0000   1.0000   1.0000   1.0000   1.0000   1.0000   1.0000
     1.0000   1.0000   1.0000   1.0000   1.0000   1.0000   1.0000   1.0000
     1.0000   1.0000   1.0000   1.0000   1.0000   1.0000   1.0000   1.0000
     1.0000   1.0000   1.0000   1.0000   1.0000   1.0000   1.0000   1.0000
     1.0000   1.0000   1.0000   0.0000   0.0000   0.0000   0.0000   0.0000
     0.0000   0.0000   0.0000   0.0000   0.0000   0.0000   0.0000   0.0000
     0.0000   0.0000   0.0000   0.0000   0.0000   0.0000   0.0000   0.0000
     0.0000   0.0000   0.0000   0.0000   0.0000

          k = 0.3333 0.1919 0.2345 ( 25763 PWs)   bands (ev):

   -77.9294 -67.4969 -67.4851 -67.3503 -66.9169 -66.9111 -44.0922 -44.0634
   -43.9823 -34.2693 -34.2492 -34.2444 -34.2383 -34.2352 -34.2242 -34.1123
   -34.1111 -34.0847 -33.6963 -33.6835 -33.6722 -33.6661 -33.6531 -33.6284
   -22.9185 -22.8634 -14.7784 -14.7653 -14.2308 -14.1988 -13.7827 -13.7618
   -13.1431 -13.0624 -13.0031 -12.9414 -12.9016 -12.8542 -12.8078 -12.7820
   -12.6676 -12.6048 -12.5108 -12.4509 -12.3627 -12.3248 -12.1139 -12.0179
   -11.1399 -10.9206  -6.4915  -6.4482  -6.4135  -6.4024  -6.3503  -6.3330
    -3.6138  -3.5439  -2.5160  -2.4888  -1.6258  -1.4919  -1.2887  -1.1608
    -0.7759  -0.7537  -0.5992  -0.5683  -0.2991  -0.2437  -0.1542  -0.0825
     0.0153   0.1144   0.3441   0.4353   0.5584   0.6409   0.7098   0.7592
     1.0121   1.1170   1.3275   1.3565   1.4402   1.5187   1.6222   1.6844
     1.7242   1.7618   1.8497   2.0036   2.2048   2.2563   2.4260   2.4539
     2.4907   2.6017   2.6534   2.7473   2.7896   2.8470   2.8947   2.9210
     2.9743   3.0478   3.0997   3.1399   3.1953   3.2417   3.2908   3.3672
     3.4419   3.4825   3.5373   3.5817   3.6169   3.6454   3.6790   3.7160
     3.8275   3.8559   3.9432   3.9809   4.0772   4.1974   4.2601   4.4490
     8.2387   8.3242   8.3708   9.7283   9.8402  10.8427  11.1017  11.3335
    11.6680  11.9676  12.1630  12.5657  12.6887  12.7785  12.8795  13.0263
    13.2028  13.3943  13.4597  13.5337  13.6835  13.7366  13.8950  13.9737
    14.0926  14.2132  14.2431  14.4043  14.5079

     occupation numbers 
     1.0000   1.0000   1.0000   1.0000   1.0000   1.0000   1.0000   1.0000
     1.0000   1.0000   1.0000   1.0000   1.0000   1.0000   1.0000   1.0000
     1.0000   1.0000   1.0000   1.0000   1.0000   1.0000   1.0000   1.0000
     1.0000   1.0000   1.0000   1.0000   1.0000   1.0000   1.0000   1.0000
     1.0000   1.0000   1.0000   1.0000   1.0000   1.0000   1.0000   1.0000
     1.0000   1.0000   1.0000   1.0000   1.0000   1.0000   1.0000   1.0000
     1.0000   1.0000   1.0000   1.0000   1.0000   1.0000   1.0000   1.0000
     1.0000   1.0000   1.0000   1.0000   1.0000   1.0000   1.0000   1.0000
     1.0000   1.0000   1.0000   1.0000   1.0000   1.0000   1.0000   1.0000
     1.0000   1.0000   1.0000   1.0000   1.0000   1.0000   1.0000   1.0000
     1.0000   1.0000   1.0000   1.0000   1.0000   1.0000   1.0000   1.0000
     1.0000   1.0000   1.0000   1.0000   1.0000   1.0000   1.0000   1.0000
     1.0000   1.0000   1.0000   1.0000   1.0000   1.0000   1.0000   1.0000
     1.0000   1.0000   1.0000   1.0000   1.0000   1.0000   1.0000   1.0000
     1.0000   1.0000   1.0000   1.0000   1.0000   1.0000   1.0000   1.0000
     1.0000   1.0000   1.0000   1.0000   1.0000   1.0000   1.0000   1.0000
     1.0000   1.0000   1.0000   0.0000   0.0000   0.0000   0.0000   0.0000
     0.0000   0.0000   0.0000   0.0000   0.0000   0.0000   0.0000   0.0000
     0.0000   0.0000   0.0000   0.0000   0.0000   0.0000   0.0000   0.0000
[...]
     atom   10 type  7   force =    -0.00248905    0.01061642   -0.00605358
     atom   11 type  7   force =    -0.00005385    0.00295250   -0.01353156
     atom   12 type  7   force =     0.00005386    0.00295250    0.01353156
     atom   13 type  7   force =    -0.00150040   -0.01157638    0.00935926
     atom   14 type  7   force =     0.00150040   -0.01157639   -0.00935922
     atom   15 type  1   force =    -0.00035683   -0.00164331   -0.00877387
     atom   16 type  1   force =     0.00035680   -0.00164331    0.00877391
     atom   17 type  6   force =    -0.00011365    0.00020225    0.00648603
     atom   18 type  6   force =     0.00011363    0.00020225   -0.00648603
     atom   19 type  6   force =    -0.00013031    0.00000675   -0.00702367
     atom   20 type  6   force =     0.00013030    0.00000675    0.00702367
     atom   21 type  6   force =     0.00099253    0.00095236    0.00638472
     atom   22 type  6   force =    -0.00099253    0.00095237   -0.00638472
     atom   23 type  6   force =    -0.00092633   -0.00130321   -0.00257232
     atom   24 type  6   force =     0.00092632   -0.00130322    0.00257233
     atom   25 type  6   force =     0.00469497   -0.00184227   -0.00578005
     atom   26 type  6   force =    -0.00469498   -0.00184227    0.00578004
     atom   27 type  6   force =    -0.00354312    0.00078150   -0.00707952
     atom   28 type  6   force =     0.00354309    0.00078150    0.00707957
     atom   29 type  6   force =    -0.00175031    0.00248731    0.00723314
     atom   30 type  6   force =     0.00175031    0.00248731   -0.00723314
     atom   31 type  6   force =     0.00094126   -0.00218073   -0.00745916
     atom   32 type  6   force =    -0.00094126   -0.00218074    0.00745919
     atom   33 type  6   force =    -0.00264062   -0.00343274   -0.00679785
     atom   34 type  6   force =     0.00264061   -0.00343274    0.00679788
     atom   35 type  6   force =     0.00106808    0.00417702    0.00638981
     atom   36 type  6   force =    -0.00106807    0.00417702   -0.00638984
     atom   37 type  6   force =    -0.00334731    0.00079028    0.01058937
     atom   38 type  6   force =     0.00334731    0.00079028   -0.01058937
     atom   39 type  6   force =    -0.00014996   -0.00125166    0.01115728
     atom   40 type  6   force =     0.00014994   -0.00125166   -0.01115728
     atom   41 type  3   force =     0.00000000    0.00000000    0.00000000
     atom   42 type  3   force =     0.00000000    0.00000000    0.00000000
     atom   43 type  3   force =     0.00000000    0.00000000    0.00000000
     atom   44 type  3   force =     0.00000000    0.00000000    0.00000000
     The Hubbard contrib.    to forces
     atom    1 type  4   force =     0.00000000    0.00000000    0.00000000
     atom    2 type  4   force =     0.00000000    0.00000000    0.00000000
     atom    3 type  5   force =     0.00000000    0.00000000    0.00000000
     atom    4 type  5   force =     0.00000000    0.00000000    0.00000000
     atom    5 type  5   force =     0.00000000    0.00000000    0.00000000
     atom    6 type  5   force =     0.00000000    0.00000000    0.00000000
     atom    7 type  5   force =     0.00000000    0.00000000    0.00000000
     atom    8 type  2   force =     0.00000000    0.00000000    0.00000000
     atom    9 type  7   force =     0.00000000    0.00000000    0.00000000
     atom   10 type  7   force =     0.00000000    0.00000000    0.00000000
     atom   11 type  7   force =     0.00000000    0.00000000    0.00000000
     atom   12 type  7   force =     0.00000000    0.00000000    0.00000000
     atom   13 type  7   force =     0.00000000    0.00000000    0.00000000
     atom   14 type  7   force =     0.00000000    0.00000000    0.00000000
     atom   15 type  1   force =     0.00000000    0.00000000    0.00000000
     atom   16 type  1   force =     0.00000000    0.00000000    0.00000000
     atom   17 type  6   force =     0.00000000    0.00000000    0.00000000
     atom   18 type  6   force =     0.00000000    0.00000000    0.00000000
     atom   19 type  6   force =     0.00000000    0.00000000    0.00000000
     atom   20 type  6   force =     0.00000000    0.00000000    0.00000000
     atom   21 type  6   force =     0.00000000    0.00000000    0.00000000
     atom   22 type  6   force =     0.00000000    0.00000000    0.00000000
     atom   23 type  6   force =     0.00000000    0.00000000    0.00000000
     atom   24 type  6   force =     0.00000000    0.00000000    0.00000000
     atom   25 type  6   force =     0.00000000    0.00000000    0.00000000
     atom   26 type  6   force =     0.00000000    0.00000000    0.00000000
     atom   27 type  6   force =     0.00000000    0.00000000    0.00000000
     atom   28 type  6   force =     0.00000000    0.00000000    0.00000000
     atom   29 type  6   force =     0.00000000    0.00000000    0.00000000
     atom   30 type  6   force =     0.00000000    0.00000000    0.00000000
     atom   31 type  6   force =     0.00000000    0.00000000    0.00000000
     atom   32 type  6   force =     0.00000000    0.00000000    0.00000000
     atom   33 type  6   force =     0.00000000    0.00000000    0.00000000
     atom   34 type  6   force =     0.00000000    0.00000000    0.00000000
     atom   35 type  6   force =     0.00000000    0.00000000    0.00000000
     atom   36 type  6   force =     0.00000000    0.00000000    0.00000000
     atom   37 type  6   force =     0.00000000    0.00000000    0.00000000
     atom   38 type  6   force =     0.00000000    0.00000000    0.00000000
     atom   39 type  6   force =     0.00000000    0.00000000    0.00000000
     atom   40 type  6   force =     0.00000000    0.00000000    0.00000000
     atom   41 type  3   force =     0.00000000    0.00000000    0.00000000
     atom   42 type  3   force =     0.00000000    0.00000000    0.00000000
     atom   43 type  3   force =     0.00000000    0.00000000    0.00000000
     atom   44 type  3   force =     0.00000000    0.00000000    0.00000000
     The SCF correction term to forces
     atom    1 type  4   force =    -0.00000000    0.00000176   -0.00000000
     atom    2 type  4   force =     0.00000000   -0.00000130    0.00000000
     atom    3 type  5   force =     0.00000000   -0.00000809   -0.00000000
     atom    4 type  5   force =    -0.00000000    0.00001262    0.00000000
     atom    5 type  5   force =     0.00000000   -0.00000392   -0.00000000
     atom    6 type  5   force =    -0.00000000   -0.00001825   -0.00000000
     atom    7 type  5   force =     0.00000000    0.00001045    0.00000000
     atom    8 type  2   force =     0.00000000   -0.00000982   -0.00000000
     atom    9 type  7   force =     0.00000262    0.00000541    0.00000630
     atom   10 type  7   force =    -0.00000262    0.00000541   -0.00000630
     atom   11 type  7   force =    -0.00000110   -0.00000290   -0.00001391
     atom   12 type  7   force =     0.00000110   -0.00000290    0.00001391
     atom   13 type  7   force =    -0.00000063   -0.00000104    0.00002147
     atom   14 type  7   force =     0.00000063   -0.00000104   -0.00002147
     atom   15 type  1   force =     0.00000019   -0.00000099   -0.00001322
     atom   16 type  1   force =    -0.00000019   -0.00000099    0.00001322
     atom   17 type  6   force =     0.00000344    0.00000628   -0.00000671
     atom   18 type  6   force =    -0.00000344    0.00000628    0.00000671
     atom   19 type  6   force =    -0.00000094   -0.00001161    0.00000539
     atom   20 type  6   force =     0.00000094   -0.00001161   -0.00000539
     atom   21 type  6   force =    -0.00000207   -0.00000641    0.00000365
     atom   22 type  6   force =     0.00000207   -0.00000641   -0.00000365
     atom   23 type  6   force =     0.00000377    0.00001114   -0.00001697
     atom   24 type  6   force =    -0.00000377    0.00001114    0.00001697
     atom   25 type  6   force =    -0.00001141   -0.00000160    0.00002234
     atom   26 type  6   force =     0.00001141   -0.00000160   -0.00002234
     atom   27 type  6   force =     0.00000754    0.00000265    0.00003092
     atom   28 type  6   force =    -0.00000754    0.00000265   -0.00003092
     atom   29 type  6   force =    -0.00000013   -0.00000695   -0.00003893
     atom   30 type  6   force =     0.00000013   -0.00000695    0.00003893
     atom   31 type  6   force =    -0.00000378   -0.00000066    0.00004073
     atom   32 type  6   force =     0.00000378   -0.00000066   -0.00004073
     atom   33 type  6   force =     0.00000354    0.00001276    0.00003640
     atom   34 type  6   force =    -0.00000354    0.00001276   -0.00003640
     atom   35 type  6   force =    -0.00000793   -0.00000688   -0.00002356
     atom   36 type  6   force =     0.00000793   -0.00000688    0.00002356
     atom   37 type  6   force =     0.00000275    0.00000330    0.00001689
     atom   38 type  6   force =    -0.00000275    0.00000330   -0.00001689
     atom   39 type  6   force =    -0.00000151   -0.00000359    0.00000791
     atom   40 type  6   force =     0.00000151   -0.00000359   -0.00000791
     atom   41 type  3   force =     0.00000046    0.00000022    0.00000103
     atom   42 type  3   force =    -0.00000046    0.00000022   -0.00000103
     atom   43 type  3   force =    -0.00000032   -0.00000001    0.00000006
     atom   44 type  3   force =     0.00000032   -0.00000001   -0.00000006

     DFT-D3 dispersion contribution to forces:
     atom    1 type  4   force =    -0.00000000    0.00090150    0.00000000
     atom    2 type  4   force =    -0.00000000   -0.00072215    0.00000000
     atom    3 type  5   force =    -0.00000000    0.00027647   -0.00000000
     atom    4 type  5   force =    -0.00000000    0.00094337    0.00000000
     atom    5 type  5   force =    -0.00000000   -0.00153706    0.00000000
     atom    6 type  5   force =     0.00000000    0.00084944   -0.00000000
     atom    7 type  5   force =     0.00000000   -0.00002833   -0.00000000
     atom    8 type  2   force =     0.00000000   -0.00020274    0.00000000
     atom    9 type  7   force =     0.00001842   -0.00015756   -0.00029802
     atom   10 type  7   force =    -0.00001842   -0.00015756    0.00029802
     atom   11 type  7   force =     0.00004224    0.00007055    0.00018300
     atom   12 type  7   force =    -0.00004224    0.00007055   -0.00018300
     atom   13 type  7   force =     0.00002815    0.00003356    0.00002874
     atom   14 type  7   force =    -0.00002815    0.00003356   -0.00002874
     atom   15 type  1   force =    -0.00005478    0.00014916   -0.00114587
     atom   16 type  1   force =     0.00005478    0.00014916    0.00114587
     atom   17 type  6   force =     0.00001483    0.00004756    0.00048165
     atom   18 type  6   force =    -0.00001483    0.00004756   -0.00048165
     atom   19 type  6   force =    -0.00001126    0.00003325   -0.00039912
     atom   20 type  6   force =     0.00001126    0.00003324    0.00039912
     atom   21 type  6   force =    -0.00004025   -0.00003374    0.00042775
     atom   22 type  6   force =     0.00004025   -0.00003374   -0.00042774
     atom   23 type  6   force =    -0.00004800   -0.00011570    0.00013081
     atom   24 type  6   force =     0.00004800   -0.00011570   -0.00013081
     atom   25 type  6   force =    -0.00018959    0.00100775    0.00028759
     atom   26 type  6   force =     0.00018959    0.00100775   -0.00028759
     atom   27 type  6   force =     0.00083188    0.00007207    0.00020699
     atom   28 type  6   force =    -0.00083188    0.00007207   -0.00020699
     atom   29 type  6   force =     0.00037173   -0.00058154   -0.00003993
     atom   30 type  6   force =    -0.00037173   -0.00058153    0.00003993
     atom   31 type  6   force =    -0.00023774    0.00040803   -0.00000657
     atom   32 type  6   force =     0.00023774    0.00040803    0.00000656
     atom   33 type  6   force =     0.00095158   -0.00042934    0.00043429
     atom   34 type  6   force =    -0.00095158   -0.00042934   -0.00043429
     atom   35 type  6   force =     0.00064897   -0.00053540   -0.00043036
     atom   36 type  6   force =    -0.00064897   -0.00053540    0.00043036
     atom   37 type  6   force =    -0.00012632   -0.00000981   -0.00053254
     atom   38 type  6   force =     0.00012632   -0.00000981    0.00053254
     atom   39 type  6   force =     0.00002757    0.00003694   -0.00050303
     atom   40 type  6   force =    -0.00002757    0.00003694    0.00050303
     atom   41 type  3   force =    -0.00032197    0.00015702   -0.00023090
     atom   42 type  3   force =     0.00032197    0.00015702    0.00023090
     atom   43 type  3   force =     0.00001275   -0.00039305   -0.00024644
     atom   44 type  3   force =    -0.00001275   -0.00039305    0.00024644

     Total force =     0.004456     Total SCF correction =     0.000138

     DFT-D3 dispersion Force =     0.004587


     Computing stress (Cartesian axis) and pressure

          total   stress  (Ry/bohr**3)                   (kbar)     P=       -0.28
  -0.00000380   0.00000000   0.00000108           -0.56        0.00        0.16
   0.00000000  -0.00000057   0.00000000            0.00       -0.08        0.00
   0.00000108   0.00000000  -0.00000144            0.16        0.00       -0.21

     kinetic stress (kbar)  20339.07      0.00     16.95
                                0.00  20342.03      0.00
                               16.95      0.00  20055.50

     local   stress (kbar) -42380.33      0.00    117.23
                                0.00 -42037.82      0.00
                              117.23      0.00  21020.55

     nonloc. stress (kbar)   3829.51      0.00      0.26
                                0.00   3830.67      0.00
                                0.26      0.00   3812.16

     hartree stress (kbar)  23798.66     -0.00    -49.52
                               -0.00  23643.24     -0.00
                              -49.52     -0.00  -7196.93

     exc-cor stress (kbar)  -2846.99     -0.00     -0.12
                               -0.00  -2847.30     -0.00
                               -0.12     -0.00  -2844.12

     corecor stress (kbar)  -1877.47      0.00     -0.09
                                0.00  -1877.56      0.00
                               -0.09      0.00  -1879.06

     ewald   stress (kbar)   -848.02      0.00    -84.69
                                0.00  -1038.10     -0.00
                              -84.69     -0.00 -32957.21

     hubbard stress (kbar)      0.00      0.00      0.00
                                0.00      0.00      0.00
                                0.00      0.00      0.00

     DFT-D   stress (kbar)    -14.98      0.00      0.14
                                0.00    -15.25      0.00
                                0.14      0.00    -11.09

     XDM     stress (kbar)      0.00      0.00      0.00
                                0.00      0.00      0.00
                                0.00      0.00      0.00

     dft-nl  stress (kbar)      0.00      0.00      0.00
                                0.00      0.00      0.00
                                0.00      0.00      0.00

     TS-vdW  stress (kbar)      0.00      0.00      0.00
                                0.00      0.00      0.00
                                0.00      0.00      0.00

     MDB     stress (kbar)      0.00      0.00      0.00
                                0.00      0.00      0.00
                                0.00      0.00      0.00

     3D-RISM stress (kbar)      0.00      0.00      0.00
                                0.00      0.00      0.00
                                0.00      0.00      0.00


     Writing all to output data dir ./temp/phl-fe1-nspin-dftd3.save/ :
     XML data file, charge density, pseudopotentials, collected wavefunctions

     init_run     :    444.61s CPU    452.70s WALL (       2 calls)
     electrons    : 130883.64s CPU 131620.60s WALL (      16 calls)
     update_pot   :     21.95s CPU     22.12s WALL (      14 calls)
     forces       :   2789.78s CPU   2809.47s WALL (      16 calls)
     force_dftd3  :     81.40s CPU     81.49s WALL (      16 calls)
     stress       :   7199.63s CPU   7276.61s WALL (      16 calls)
     stres_dftd3  :     81.19s CPU     81.42s WALL (      16 calls)

     Called by init_run:
     wfcinit      :    426.46s CPU    432.70s WALL (       2 calls)
     wfcinit:atom :      0.55s CPU      0.56s WALL (      40 calls)
     wfcinit:wfcr :    421.53s CPU    427.70s WALL (      40 calls)
     potinit      :      3.27s CPU      3.38s WALL (       2 calls)
     hinit0       :      2.57s CPU      2.63s WALL (       2 calls)

     Called by electrons:
     c_bands      : 121417.02s CPU 121864.55s WALL (     145 calls)
     sum_band     :   8475.75s CPU   8650.59s WALL (     145 calls)
     v_of_rho     :     44.57s CPU     45.87s WALL (     151 calls)
     v_h          :      3.77s CPU      3.98s WALL (     151 calls)
     v_xc         :     49.44s CPU     50.71s WALL (     183 calls)
     newd         :    830.50s CPU    955.26s WALL (     151 calls)
     PAW_pot      :    163.77s CPU    164.02s WALL (     165 calls)
     mix_rho      :      7.90s CPU      8.19s WALL (     145 calls)
     energy_dftd3 :     61.62s CPU     62.09s WALL (      16 calls)

     Called by c_bands:
     init_us_2    :    224.10s CPU    225.03s WALL (    6760 calls)
     cegterg      : 120986.04s CPU 121431.91s WALL (    2920 calls)

     Called by sum_band:
     sum_band:wei :      0.04s CPU      0.04s WALL (     145 calls)
     sum_band:loo :   7331.82s CPU   7380.35s WALL (     145 calls)
     sum_band:buf :     26.55s CPU     26.76s WALL (    2900 calls)
     sum_band:ini :     96.60s CPU     96.99s WALL (    2900 calls)
     sum_band:cal :   6008.80s CPU   6017.89s WALL (    3180 calls)
     sum_band:bec :      6.90s CPU      6.92s WALL (    3180 calls)
     addusdens    :   1129.27s CPU   1255.05s WALL (     145 calls)
                                        0.00s GPU  (     145 calls)
     addusd:skk   :      7.61s CPU     10.41s WALL (    1015 calls)
                                        0.00s GPU  (    1015 calls)

     Called by *egterg:
     cdiaghg      :   2070.91s CPU   2091.99s WALL (   21797 calls)
     cegterg:over :  16541.71s CPU  16568.38s WALL (   19377 calls)
     cegterg:upda :   9654.92s CPU   9670.08s WALL (   19377 calls)
     cegterg:last :  25855.01s CPU  25893.52s WALL (    8814 calls)
     cdiaghg:chol :     42.97s CPU     43.11s WALL (   21797 calls)
     cdiaghg:inve :     39.86s CPU     39.96s WALL (   21797 calls)
     cdiaghg:para :    837.44s CPU    847.65s WALL (   43594 calls)
     h_psi        :  45798.04s CPU  46105.95s WALL (   22337 calls)
     s_psi        :  18258.57s CPU  18287.12s WALL (   22337 calls)
     g_psi        :     48.62s CPU     48.76s WALL (   19377 calls)

     Called by h_psi:
     h_psi:calbec :  18358.88s CPU  18389.46s WALL (   22337 calls)
     vloc_psi     :   9081.23s CPU   9325.99s WALL (   22337 calls)
     add_vuspsi   :  18287.06s CPU  18314.60s WALL (   22337 calls)

     General routines
     calbec       :  27527.01s CPU  27573.48s WALL (   27117 calls)
     fft          :     38.94s CPU     41.20s WALL (    2355 calls)
     ffts         :      1.45s CPU      1.56s WALL (     296 calls)
     fftw         :   7175.38s CPU   7363.93s WALL ( 3494042 calls)
     interpolate  :      3.87s CPU      4.11s WALL (     151 calls)

     Parallel routines

     PAW routines
     PAW_pot      :    163.77s CPU    164.02s WALL (     165 calls)
     PAW_symme    :      0.10s CPU      0.10s WALL (     310 calls)

     PWSCF        :   1d15h26m CPU   1d15h40m WALL


   This run was terminated on:   0:21:51  31Dec2024            

=------------------------------------------------------------------------------=
   JOB DONE.
=------------------------------------------------------------------------------=
