
     Program PWSCF v.7.3.1 starts on 21Mar2025 at 16:41: 6 

     This program is part of the open-source Quantum ESPRESSO suite
     for quantum simulation of materials; please cite
         "P. Giannozzi et al., J. Phys.:Condens. Matter 21 395502 (2009);
         "P. Giannozzi et al., J. Phys.:Condens. Matter 29 465901 (2017);
         "P. Giannozzi et al., J. Chem. Phys. 152 154105 (2020);
          URL http://www.quantum-espresso.org", 
     in publications or presentations arising from this work. More details at
     http://www.quantum-espresso.org/quote

     Parallel version (MPI), running on     6 processors

     MPI processes distributed on     1 nodes
     3512 MiB available memory on the printing compute node when the environment starts

     Reading input from relax.in

     Current dimensions of program PWSCF are:
     Max number of different atomic species (ntypx) = 10
     Max number of k-points (npk) =  40000
     Max angular momentum in pseudopotentials (lmaxx) =  4
     file Al.pbe-n-kjpaw_psl.1.0.0.UPF: wavefunction(s)  3S 3P renormalized
     file Ti.pbe-spn-kjpaw_psl.1.0.0.UPF: wavefunction(s)  3S 3P 3D renormalized
     file H.pbe-kjpaw_psl.1.0.0.UPF: wavefunction(s)  1S renormalized
     file K.pbe-spn-kjpaw_psl.1.0.0.UPF: wavefunction(s)  3S renormalized
     file Mg.pbe-spnl-kjpaw_psl.1.0.0.UPF: wavefunction(s)  2P renormalized
     file O.pbe-n-kjpaw_psl.1.0.0.UPF: wavefunction(s)  2S 2P renormalized
     file Si.pbe-n-kjpaw_psl.1.0.0.UPF: wavefunction(s)  3S 3P renormalized

     R & G space division:  proc/nbgrp/npool/nimage =       6
     Subspace diagonalization in iterative solution of the eigenvalue problem:
     a serial algorithm will be used


     Parallelization info
     --------------------
     sticks:   dense  smooth     PW     G-vecs:    dense   smooth      PW
     Min        1119     557    150               100894    35666    5065
     Max        1120     558    151               100896    35670    5069
     Sum        6719    3347    905               605369   214013   30407

     Using Slab Decomposition



     bravais-lattice index     =          -12
     lattice parameter (alat)  =      10.0639  a.u.
     unit-cell volume          =    3408.7535 (a.u.)^3
     number of atoms/cell      =           43
     number of atomic types    =            7
     number of electrons       =       248.00
     number of Kohn-Sham states=          149
     kinetic-energy cutoff     =      60.0000  Ry
     charge density cutoff     =     480.0000  Ry
     scf convergence threshold =      1.0E-06
     mixing beta               =       0.7000
     number of iterations used =            8  plain     mixing
     energy convergence thresh.=      1.0E-04
     force convergence thresh. =      1.0E-03
     Exchange-correlation= SLA  PW   PBX  PBC
                           (   1   4   3   4   0   0   0)
     nstep                     =           50


     celldm(1)=  10.063938  celldm(2)=   1.736001  celldm(3)=   1.956921
     celldm(4)=   0.000000  celldm(5)=  -0.175986  celldm(6)=   0.000000

     crystal axes: (cart. coord. in units of alat)
               a(1) = (   1.000000   0.000000   0.000000 )  
               a(2) = (   0.000000   1.736001   0.000000 )  
               a(3) = (  -0.344390   0.000000   1.926379 )  

     reciprocal axes: (cart. coord. in units 2 pi/alat)
               b(1) = (  1.000000 -0.000000  0.178776 )  
               b(2) = (  0.000000  0.576037 -0.000000 )  
               b(3) = (  0.000000  0.000000  0.519109 )  


     PseudoPot. # 1 for Al read from file:
     ./../../../pseudos/Al.pbe-n-kjpaw_psl.1.0.0.UPF
     MD5 check sum: 502b6b27b9c6270cab5dd1084b96fa6d
     Pseudo is Projector augmented-wave + core cor, Zval =  3.0
     Generated using &quot;atomic&quot; code by A. Dal Corso  v.6.3
     Shape of augmentation charge: PSQ
     Using radial grid of 1135 points,  6 beta functions with: 
                l(1) =   0
                l(2) =   0
                l(3) =   1
                l(4) =   1
                l(5) =   2
                l(6) =   2
     Q(r) pseudized with 0 coefficients 


     PseudoPot. # 2 for Ti read from file:
     ./../../../pseudos/Ti.pbe-spn-kjpaw_psl.1.0.0.UPF
     MD5 check sum: 01f69b0d8ba4438b2e03ac6ea4af1c0b
     Pseudo is Projector augmented-wave + core cor, Zval = 12.0
     Generated using &quot;atomic&quot; code by A. Dal Corso  v.6.2.2
     Shape of augmentation charge: PSQ
     Using radial grid of 1177 points,  6 beta functions with: 
                l(1) =   0
                l(2) =   0
                l(3) =   1
                l(4) =   1
                l(5) =   2
                l(6) =   2
     Q(r) pseudized with 0 coefficients 


     PseudoPot. # 3 for H  read from file:
     ./../../../pseudos/H.pbe-kjpaw_psl.1.0.0.UPF
     MD5 check sum: d81a744832360e4a8af0b0b5b123bc2a
     Pseudo is Projector augmented-wave, Zval =  1.0
     Generated using &quot;atomic&quot; code by A. Dal Corso  v.6.3MaX
     Shape of augmentation charge: PSQ
     Using radial grid of  929 points,  2 beta functions with: 
                l(1) =   0
                l(2) =   0
     Q(r) pseudized with 0 coefficients 


     PseudoPot. # 4 for K  read from file:
     ./../../../pseudos/K.pbe-spn-kjpaw_psl.1.0.0.UPF
     MD5 check sum: 34cc42130a09071ebe376fd42eb21491
     Pseudo is Projector augmented-wave + core cor, Zval =  9.0
     Generated using &quot;atomic&quot; code by A. Dal Corso  v.6.2.2
     Shape of augmentation charge: PSQ
     Using radial grid of 1165 points,  6 beta functions with: 
                l(1) =   0
                l(2) =   0
                l(3) =   1
                l(4) =   1
                l(5) =   2
                l(6) =   2
     Q(r) pseudized with 0 coefficients 


     PseudoPot. # 5 for Mg read from file:
     ./../../../pseudos/Mg.pbe-spnl-kjpaw_psl.1.0.0.UPF
     MD5 check sum: fda14e0d92a6a9a5ebed782e5a4b3067
     Pseudo is Projector augmented-wave + core cor, Zval = 10.0
     Generated using &quot;atomic&quot; code by A. Dal Corso  v.6.3
     Shape of augmentation charge: PSQ
     Using radial grid of 1129 points,  4 beta functions with: 
                l(1) =   0
                l(2) =   0
                l(3) =   1
                l(4) =   1
     Q(r) pseudized with 0 coefficients 


     PseudoPot. # 6 for O  read from file:
     ./../../../pseudos/O.pbe-n-kjpaw_psl.1.0.0.UPF
     MD5 check sum: e99d9cef9b487d1ca56f5b95ecd0fd7a
     Pseudo is Projector augmented-wave + core cor, Zval =  6.0
     Generated using &quot;atomic&quot; code by A. Dal Corso  v.6.3
     Shape of augmentation charge: PSQ
     Using radial grid of 1095 points,  4 beta functions with: 
                l(1) =   0
                l(2) =   0
                l(3) =   1
                l(4) =   1
     Q(r) pseudized with 0 coefficients 


     PseudoPot. # 7 for Si read from file:
     ./../../../pseudos/Si.pbe-n-kjpaw_psl.1.0.0.UPF
     MD5 check sum: c39c59da582df4a0d9f10159256ea34e
     Pseudo is Projector augmented-wave + core cor, Zval =  4.0
     Generated using &quot;atomic&quot; code by A. Dal Corso  v.6.3
     Shape of augmentation charge: PSQ
     Using radial grid of 1141 points,  6 beta functions with: 
                l(1) =   0
                l(2) =   0
                l(3) =   1
                l(4) =   1
                l(5) =   2
                l(6) =   2
     Q(r) pseudized with 0 coefficients 


     atomic species   valence    mass     pseudopotential
     Al                3.00    26.98154     Al( 1.00)
     Ti               12.00    47.86700     Ti( 1.00)
     H                 1.00     1.00794     H ( 1.00)
     K                 9.00    39.09830     K ( 1.00)
     Mg               10.00    24.30500     Mg( 1.00)
     O                 6.00    15.99940     O ( 1.00)
     Si                4.00    28.08550     Si( 1.00)

     Starting magnetic structure 
     atomic species   magnetization
     Al              0.000
     Ti              0.300
     H               0.000
     K               0.000
     Mg              0.000
     O               0.000
     Si              0.000

      2 Sym. Ops. (no inversion) found


                                    s                        frac. trans.

      isym =  1     identity                                     

 cryst.   s( 1) = (     1          0          0      )
                  (     0          1          0      )
                  (     0          0          1      )

 cart.    s( 1) = (  1.0000000  0.0000000  0.0000000 )
                  (  0.0000000  1.0000000  0.0000000 )
                  (  0.0000000  0.0000000  1.0000000 )


      isym =  2     180 deg rotation - cart. axis [0,1,0]        

 cryst.   s( 2) = (    -1          0          0      )
                  (     0          1          0      )
                  (     0          0         -1      )

 cart.    s( 2) = ( -1.0000000  0.0000000 -0.0000000 )
                  (  0.0000000  1.0000000  0.0000000 )
                  (  0.0000000  0.0000000 -1.0000000 )


     point group C_2  (2)   
     there are  2 classes
     the character table:

       E     C2   
A      1.00  1.00
B      1.00 -1.00

     the symmetry operations in each class and the name of the first element:

     E        1
          identity                                               
     C2       2
          180 deg rotation - cart. axis [0,1,0]                  

   Cartesian axes

     site n.     atom                  positions (alat units)
         1        K      tau(   1) = (   0.0000000   0.8500250   0.0000000  )
         2        K      tau(   2) = (   0.5000001   0.0129874   0.0000000  )
         3        Mg     tau(   3) = (  -0.1721948   0.0077214   0.9631892  )
         4        Mg     tau(   4) = (  -0.1721948   1.1549426   0.9631892  )
         5        Mg     tau(   5) = (   0.3278053   0.8557948   0.9631892  )
         6        Mg     tau(   6) = (   0.3278053   1.4487986   0.9631892  )
         7        Si     tau(   7) = (   0.0065464   0.2863232   0.4366446  )
         8        Si     tau(   8) = (   0.6490642   0.2863232   1.4897338  )
         9        Si     tau(   9) = (   0.6700451   1.4481368   1.4769596  )
        10        Si     tau(  10) = (  -0.0144345   1.4481368   0.4494187  )
        11        Si     tau(  11) = (   0.4850690   1.1571201   0.4451794  )
        12        Si     tau(  12) = (   0.1705415   1.1571201   1.4811990  )
        13        Al     tau(  13) = (   0.1481378   0.5745631   1.4858453  )
        14        Al     tau(  14) = (   0.5074727   0.5745631   0.4405331  )
        15        O      tau(  15) = (  -0.0053818   0.2845266   0.7435308  )
        16        O      tau(  16) = (   0.6609924   0.2845266   1.1828475  )
        17        O      tau(  17) = (   0.6648623   1.4463792   1.1726078  )
        18        O      tau(  18) = (  -0.0092517   1.4463792   0.7537706  )
        19        O      tau(  19) = (   0.4909734   1.1615894   0.7508691  )
        20        O      tau(  20) = (   0.1646372   1.1615894   1.1755093  )
        21        O      tau(  21) = (   0.1533653   0.5775173   1.1602818  )
        22        O      tau(  22) = (   0.5022453   0.5775173   0.7660965  )
        23        O      tau(  23) = (   0.2836155   0.3559826   0.3271266  )
        24        O      tau(  24) = (   0.3719951   0.3559826   1.5992516  )
        25        O      tau(  25) = (  -0.0573653   1.7307557   0.3331647  )
        26        O      tau(  26) = (   0.7129759   1.7307557   1.5932136  )
        27        O      tau(  27) = (   0.4014220   1.3398431   1.5902067  )
        28        O      tau(  28) = (   0.2541885   1.3398431   0.3361717  )
        29        O      tau(  29) = (   0.7533736   1.2762782   0.3346307  )
        30        O      tau(  30) = (  -0.0977631   1.2762782   1.5917477  )
        31        O      tau(  31) = (   0.4457693   0.8816150   0.3226733  )
        32        O      tau(  32) = (   0.2098412   0.8816150   1.6037051  )
        33        O      tau(  33) = (  -0.1438441   0.4759522   1.6105977  )
        34        O      tau(  34) = (   0.7994547   0.4759522   0.3157807  )
        35        O      tau(  35) = (  -0.0052927   0.8751793   0.7641997  )
        36        O      tau(  36) = (   0.6609033   0.8751793   1.1621787  )
        37        O      tau(  37) = (   0.4956425   1.7352597   0.7704301  )
        38        O      tau(  38) = (   0.1599681   1.7352597   1.1559483  )
        39        H      tau(  39) = (  -0.0033562   0.8597493   0.5835064  )
        40        H      tau(  40) = (   0.6589669   0.8597493   1.3428719  )
        41        H      tau(  41) = (   0.4916295   0.0251070   0.5908075  )
        42        H      tau(  42) = (   0.1639811   0.0251070   1.3355710  )
        43        Ti     tau(  43) = (  -0.1721948   0.5784118   0.9631892  )

     --------------------------------------------
     DFT-D3 Dispersion Correction (3-body terms):
     --------------------------------------------
       Reference C6 values for interpolation: 

         atom   Coordination number   C6
         H          0.912             6.05
         H          0.000            15.18
         O          0.000            31.01
         O          0.993            25.63
         O          1.989            20.74
         Mg         0.000          1366.75
         Mg         0.963           902.54
         Mg         1.950           351.12
         Al         0.000          1081.08
         Al         0.965           875.51
         Al         1.931           513.50
         Al         2.915           307.19
         Si         0.000           635.71
         Si         0.951           540.53
         Si         1.944           466.25
         Si         2.941           443.01
         Si         3.868           299.55
         K          0.000          9967.00
         K          0.977           676.04
         Ti         0.000          2723.84
         Ti         1.830           604.00
         Ti         3.868           643.18

       Values used:

         atom   Coordination number  R0_AB[au]  C6      C8
         K         11.900            4.007    676.04 129074.98
         K         12.134            4.007    676.04 129074.98
         Mg        10.071            3.292    351.12  31436.69
         Mg        11.566            3.292    351.12  31436.69
         Mg        10.947            3.292    351.12  31436.69
         Mg        10.818            3.292    351.12  31436.69
         Si         6.436            3.583    299.55  21425.58
         Si         6.436            3.583    299.55  21425.58
         Si         6.243            3.583    299.55  21425.58
         Si         6.243            3.583    299.55  21425.58
         Si         6.287            3.583    299.55  21425.58
         Si         6.287            3.583    299.55  21425.58
         Al         7.177            3.789    307.19  29441.29
         Al         7.177            3.789    307.19  29441.29
         O          2.938            2.345     20.74    418.58
         O          2.938            2.345     20.74    418.58
         O          3.907            2.345     20.74    418.58
         O          3.907            2.345     20.74    418.58
         O          3.890            2.345     20.74    418.58
         O          3.890            2.345     20.74    418.58
         O          2.998            2.345     20.74    418.58
         O          2.998            2.345     20.74    418.58
         O          3.136            2.345     20.74    418.58
         O          3.136            2.345     20.74    418.58
         O          3.045            2.345     20.74    418.58
         O          3.045            2.345     20.74    418.58
         O          2.876            2.345     20.74    418.58
         O          2.876            2.345     20.74    418.58
         O          2.861            2.345     20.74    418.58
         O          2.861            2.345     20.74    418.58
         O          3.086            2.345     20.74    418.58
         O          3.086            2.345     20.74    418.58
         O          3.209            2.345     20.74    418.58
         O          3.209            2.345     20.74    418.58
         O          3.963            2.345     20.74    418.58
         O          3.963            2.345     20.74    418.58
         O          3.025            2.345     20.74    418.58
         O          3.025            2.345     20.74    418.58
         H          1.237            2.062      6.08     73.45
         H          1.237            2.062      6.08     73.45
         H          1.191            2.062      6.09     73.56
         H          1.191            2.062      6.09     73.56
         Ti        10.017            3.557    643.18  76289.64

         Molecular C6 ( Ry / a.u.^6 ) =    158921.80


   Crystallographic axes

     site n.     atom                  positions (cryst. coord.)
         1        K      tau(   1) = (  0.0000000  0.4896454  0.0000000  )
         2        K      tau(   2) = (  0.5000001  0.0074812  0.0000000  )
         3        Mg     tau(   3) = (  0.0000002  0.0044478  0.4999999  )
         4        Mg     tau(   4) = (  0.0000002  0.6652891  0.4999999  )
         5        Mg     tau(   5) = (  0.5000003  0.4929690  0.4999999  )
         6        Mg     tau(   6) = (  0.5000003  0.8345609  0.4999999  )
         7        Si     tau(   7) = (  0.0846079  0.1649326  0.2266660  )
         8        Si     tau(   8) = (  0.9153927  0.1649326  0.7733338  )
         9        Si     tau(   9) = (  0.9340899  0.8341796  0.7667026  )
        10        Si     tau(  10) = (  0.0659107  0.8341796  0.2332971  )
        11        Si     tau(  11) = (  0.5646564  0.6665434  0.2310965  )
        12        Si     tau(  12) = (  0.4353442  0.6665434  0.7689033  )
        13        Al     tau(  13) = (  0.4137711  0.3309693  0.7713152  )
        14        Al     tau(  14) = (  0.5862294  0.3309693  0.2286845  )
        15        O      tau(  15) = (  0.1275435  0.1638977  0.3859733  )
        16        O      tau(  16) = (  0.8724570  0.1638977  0.6140264  )
        17        O      tau(  17) = (  0.8744963  0.8331672  0.6087109  )
        18        O      tau(  18) = (  0.1255043  0.8331672  0.3912888  )
        19        O      tau(  19) = (  0.6252107  0.6691179  0.3897827  )
        20        O      tau(  20) = (  0.3747899  0.6691179  0.6102171  )
        21        O      tau(  21) = (  0.3607957  0.3326710  0.6023124  )
        22        O      tau(  22) = (  0.6392049  0.3326710  0.3976873  )
        23        O      tau(  23) = (  0.3420978  0.2050590  0.1698143  )
        24        O      tau(  24) = (  0.6579027  0.2050590  0.8301854  )
        25        O      tau(  25) = (  0.0021965  0.9969785  0.1729487  )
        26        O      tau(  26) = (  0.9978040  0.9969785  0.8270510  )
        27        O      tau(  27) = (  0.6857126  0.7717986  0.8254901  )
        28        O      tau(  28) = (  0.3142879  0.7717986  0.1745096  )
        29        O      tau(  29) = (  0.8131976  0.7351828  0.1737097  )
        30        O      tau(  30) = (  0.1868031  0.7351828  0.8262901  )
        31        O      tau(  31) = (  0.5034555  0.5078424  0.1675025  )
        32        O      tau(  32) = (  0.4965450  0.5078424  0.8324972  )
        33        O      tau(  33) = (  0.1440919  0.2741658  0.8360752  )
        34        O      tau(  34) = (  0.8559087  0.2741658  0.1639245  )
        35        O      tau(  35) = (  0.1313278  0.5041353  0.3967027  )
        36        O      tau(  36) = (  0.8686728  0.5041353  0.6032971  )
        37        O      tau(  37) = (  0.6333768  0.9995729  0.3999370  )
        38        O      tau(  38) = (  0.3666238  0.9995729  0.6000628  )
        39        H      tau(  39) = (  0.1009607  0.4952470  0.3029032  )
        40        H      tau(  40) = (  0.8990400  0.4952470  0.6970965  )
        41        H      tau(  41) = (  0.5972516  0.0144625  0.3066933  )
        42        H      tau(  42) = (  0.4027490  0.0144625  0.6933065  )
        43        Ti     tau(  43) = (  0.0000002  0.3331863  0.4999999  )

     number of k points=    20  Gaussian smearing, width (Ry)=  0.0010
                       cart. coord. in units 2pi/alat
        k(    1) = (   0.0000000   0.0000000   0.0000000), wk =   0.0185185
        k(    2) = (   0.0000000   0.0000000   0.1730362), wk =   0.0370370
        k(    3) = (   0.0000000   0.1920122   0.0000000), wk =   0.0370370
        k(    4) = (   0.0000000   0.1920122   0.1730362), wk =   0.0740741
        k(    5) = (   0.1666667   0.0000000   0.0297960), wk =   0.0370370
        k(    6) = (   0.1666667   0.0000000   0.2028322), wk =   0.0370370
        k(    7) = (   0.1666667   0.0000000  -0.1432402), wk =   0.0370370
        k(    8) = (   0.1666667   0.1920122   0.0297960), wk =   0.0740741
        k(    9) = (   0.1666667   0.1920122   0.2028322), wk =   0.0740741
        k(   10) = (   0.1666667   0.1920122  -0.1432402), wk =   0.0740741
        k(   11) = (   0.3333333   0.0000000   0.0595920), wk =   0.0370370
        k(   12) = (   0.3333333   0.0000000   0.2326282), wk =   0.0370370
        k(   13) = (   0.3333333   0.0000000  -0.1134443), wk =   0.0370370
        k(   14) = (   0.3333333   0.1920122   0.0595920), wk =   0.0740741
        k(   15) = (   0.3333333   0.1920122   0.2326282), wk =   0.0740741
        k(   16) = (   0.3333333   0.1920122  -0.1134443), wk =   0.0740741
        k(   17) = (  -0.5000000   0.0000000  -0.0893879), wk =   0.0185185
        k(   18) = (  -0.5000000   0.0000000   0.0836483), wk =   0.0370370
        k(   19) = (  -0.5000000   0.1920122  -0.0893879), wk =   0.0370370
        k(   20) = (  -0.5000000   0.1920122   0.0836483), wk =   0.0740741

                       cryst. coord.
        k(    1) = (   0.0000000   0.0000000   0.0000000), wk =   0.0185185
        k(    2) = (   0.0000000   0.0000000   0.3333333), wk =   0.0370370
        k(    3) = (   0.0000000   0.3333333   0.0000000), wk =   0.0370370
        k(    4) = (   0.0000000   0.3333333   0.3333333), wk =   0.0740741
        k(    5) = (   0.1666667   0.0000000   0.0000000), wk =   0.0370370
        k(    6) = (   0.1666667   0.0000000   0.3333333), wk =   0.0370370
        k(    7) = (   0.1666667   0.0000000  -0.3333333), wk =   0.0370370
        k(    8) = (   0.1666667   0.3333333   0.0000000), wk =   0.0740741
        k(    9) = (   0.1666667   0.3333333   0.3333333), wk =   0.0740741
        k(   10) = (   0.1666667   0.3333333  -0.3333333), wk =   0.0740741
        k(   11) = (   0.3333333   0.0000000   0.0000000), wk =   0.0370370
        k(   12) = (   0.3333333   0.0000000   0.3333333), wk =   0.0370370
        k(   13) = (   0.3333333   0.0000000  -0.3333333), wk =   0.0370370
        k(   14) = (   0.3333333   0.3333333   0.0000000), wk =   0.0740741
        k(   15) = (   0.3333333   0.3333333   0.3333333), wk =   0.0740741
        k(   16) = (   0.3333333   0.3333333  -0.3333333), wk =   0.0740741
        k(   17) = (  -0.5000000   0.0000000   0.0000000), wk =   0.0185185
        k(   18) = (  -0.5000000   0.0000000   0.3333333), wk =   0.0370370
        k(   19) = (  -0.5000000   0.3333333   0.0000000), wk =   0.0370370
        k(   20) = (  -0.5000000   0.3333333   0.3333333), wk =   0.0740741

     Dense  grid:   605369 G-vectors     FFT dimensions: (  72, 125, 144)

     Smooth grid:   214013 G-vectors     FFT dimensions: (  50,  90, 100)

     Dynamical RAM for                 wfc:      10.14 MB

     Dynamical RAM for     wfc (w. buffer):     415.56 MB

     Dynamical RAM for           str. fact:      10.78 MB

     Dynamical RAM for           local pot:       0.00 MB

     Dynamical RAM for          nlocal pot:      29.25 MB

     Dynamical RAM for                qrad:      12.30 MB

     Dynamical RAM for          rho,v,vnew:      19.12 MB

     Dynamical RAM for               rhoin:       6.37 MB

     Dynamical RAM for            rho*nmix:      49.27 MB

     Dynamical RAM for           G-vectors:       6.05 MB

     Dynamical RAM for          h,s,v(r/c):       4.07 MB

     Dynamical RAM for          <psi|beta>:       0.98 MB

     Dynamical RAM for                 psi:      20.27 MB

     Dynamical RAM for                hpsi:      20.27 MB

     Dynamical RAM for                spsi:      20.27 MB

     Dynamical RAM for      wfcinit/wfcrot:      24.94 MB

     Dynamical RAM for           addusdens:     324.84 MB

     Dynamical RAM for          addusforce:     395.85 MB

     Estimated static dynamical RAM per process >     521.64 MB

     Estimated max dynamical RAM per process >     966.75 MB

     Estimated total dynamical RAM >       5.66 GB

     Check: negative core charge=   -0.000003
     Generating pointlists ...
     new r_m :   0.1343 (alat units)  1.3518 (a.u.) for type    1
     new r_m :   0.1570 (alat units)  1.5799 (a.u.) for type    2
     new r_m :   0.0748 (alat units)  0.7529 (a.u.) for type    3
     new r_m :   0.2149 (alat units)  2.1630 (a.u.) for type    4
     new r_m :   0.1575 (alat units)  1.5847 (a.u.) for type    5
     new r_m :   0.0748 (alat units)  0.7529 (a.u.) for type    6
     new r_m :   0.1254 (alat units)  1.2623 (a.u.) for type    7

     Initial potential from superposition of free atoms

     starting charge     247.9492, renormalised to     248.0000
     Starting wfcs are  178 randomized atomic wfcs
     Checking if some PAW data can be deallocated... 
       PAW data deallocated on    5 nodes for type:  1
       PAW data deallocated on    5 nodes for type:  2
       PAW data deallocated on    5 nodes for type:  3
       PAW data deallocated on    5 nodes for type:  4
       PAW data deallocated on    5 nodes for type:  5
       PAW data deallocated on    1 nodes for type:  6
       PAW data deallocated on    4 nodes for type:  7

     total cpu time spent up to now is      349.5 secs

     Self-consistent Calculation

     iteration #  1     ecut=    60.00 Ry     beta= 0.70
     Davidson diagonalization with overlap

---- Real-time Memory Report at c_bands before calling an iterative solver
           578 MiB given to the printing process from OS
             0 MiB allocation reported by mallinfo(arena+hblkhd)
          1291 MiB available memory on the node where the printing process lives
------------------
     ethr =  1.00E-02,  avg # of iterations =  5.2

     total cpu time spent up to now is     1343.5 secs

     total energy              =   -2335.62880635 Ry
     estimated scf accuracy    <      13.84960287 Ry

     total magnetization       =    -0.00 Bohr mag/cell
     absolute magnetization    =     0.41 Bohr mag/cell

     iteration #  2     ecut=    60.00 Ry     beta= 0.70
     Davidson diagonalization with overlap

---- Real-time Memory Report at c_bands before calling an iterative solver
           886 MiB given to the printing process from OS
             0 MiB allocation reported by mallinfo(arena+hblkhd)
          1833 MiB available memory on the node where the printing process lives
------------------
     ethr =  5.58E-03,  avg # of iterations =  7.8

     total cpu time spent up to now is     2888.9 secs

     total energy              =   -2328.85576951 Ry
     estimated scf accuracy    <      84.10352127 Ry

     total magnetization       =     0.03 Bohr mag/cell
     absolute magnetization    =     1.03 Bohr mag/cell

     iteration #  3     ecut=    60.00 Ry     beta= 0.70
     Davidson diagonalization with overlap

---- Real-time Memory Report at c_bands before calling an iterative solver
           889 MiB given to the printing process from OS
             0 MiB allocation reported by mallinfo(arena+hblkhd)
          1813 MiB available memory on the node where the printing process lives
------------------
     ethr =  5.58E-03,  avg # of iterations =  8.0

     total cpu time spent up to now is     3888.3 secs

     total energy              =   -2341.48349664 Ry
     estimated scf accuracy    <      15.36553823 Ry

     total magnetization       =     0.25 Bohr mag/cell
     absolute magnetization    =     0.86 Bohr mag/cell

     iteration #  4     ecut=    60.00 Ry     beta= 0.70
     Davidson diagonalization with overlap

---- Real-time Memory Report at c_bands before calling an iterative solver
           891 MiB given to the printing process from OS
             0 MiB allocation reported by mallinfo(arena+hblkhd)
          1806 MiB available memory on the node where the printing process lives
------------------
     ethr =  5.58E-03,  avg # of iterations =  2.0

     total cpu time spent up to now is     4743.4 secs

     total energy              =   -2343.41484067 Ry
     estimated scf accuracy    <       2.84076074 Ry

     total magnetization       =     0.00 Bohr mag/cell
     absolute magnetization    =     0.57 Bohr mag/cell

     iteration #  5     ecut=    60.00 Ry     beta= 0.70
     Davidson diagonalization with overlap

---- Real-time Memory Report at c_bands before calling an iterative solver
           893 MiB given to the printing process from OS
             0 MiB allocation reported by mallinfo(arena+hblkhd)
          1782 MiB available memory on the node where the printing process lives
------------------
     ethr =  1.15E-03,  avg # of iterations = 12.3

     total cpu time spent up to now is     6056.8 secs

     total energy              =   -2344.10942804 Ry
     estimated scf accuracy    <       1.33999168 Ry

     total magnetization       =     0.00 Bohr mag/cell
     absolute magnetization    =     0.31 Bohr mag/cell

     iteration #  6     ecut=    60.00 Ry     beta= 0.70
     Davidson diagonalization with overlap

---- Real-time Memory Report at c_bands before calling an iterative solver
           896 MiB given to the printing process from OS
             0 MiB allocation reported by mallinfo(arena+hblkhd)
          1785 MiB available memory on the node where the printing process lives
------------------
     ethr =  5.40E-04,  avg # of iterations =  6.0

     total cpu time spent up to now is     7021.5 secs

     total energy              =   -2344.07446543 Ry
     estimated scf accuracy    <       0.71039594 Ry

     total magnetization       =    -0.00 Bohr mag/cell
     absolute magnetization    =     0.21 Bohr mag/cell

     iteration #  7     ecut=    60.00 Ry     beta= 0.70
     Davidson diagonalization with overlap

---- Real-time Memory Report at c_bands before calling an iterative solver
           898 MiB given to the printing process from OS
             0 MiB allocation reported by mallinfo(arena+hblkhd)
          1759 MiB available memory on the node where the printing process lives
------------------
     ethr =  2.86E-04,  avg # of iterations = 14.1

     total cpu time spent up to now is     8300.4 secs

     total energy              =   -2344.24459942 Ry
     estimated scf accuracy    <       0.32783486 Ry

     total magnetization       =     0.00 Bohr mag/cell
     absolute magnetization    =     0.11 Bohr mag/cell

     iteration #  8     ecut=    60.00 Ry     beta= 0.70
     Davidson diagonalization with overlap

---- Real-time Memory Report at c_bands before calling an iterative solver
           900 MiB given to the printing process from OS
             0 MiB allocation reported by mallinfo(arena+hblkhd)
          1770 MiB available memory on the node where the printing process lives
------------------
     ethr =  1.32E-04,  avg # of iterations =  2.1

     total cpu time spent up to now is     9149.9 secs

     total energy              =   -2344.22050514 Ry
     estimated scf accuracy    <       0.30156986 Ry

     total magnetization       =     0.00 Bohr mag/cell
     absolute magnetization    =     0.10 Bohr mag/cell

     iteration #  9     ecut=    60.00 Ry     beta= 0.70
     Davidson diagonalization with overlap

---- Real-time Memory Report at c_bands before calling an iterative solver
           900 MiB given to the printing process from OS
             0 MiB allocation reported by mallinfo(arena+hblkhd)
          1747 MiB available memory on the node where the printing process lives
------------------
     ethr =  1.22E-04,  avg # of iterations =  2.0

     total cpu time spent up to now is     9980.4 secs

     total energy              =   -2344.14522350 Ry
     estimated scf accuracy    <       0.19635082 Ry

     total magnetization       =     0.00 Bohr mag/cell
     absolute magnetization    =     0.08 Bohr mag/cell

     iteration # 10     ecut=    60.00 Ry     beta= 0.70
     Davidson diagonalization with overlap

---- Real-time Memory Report at c_bands before calling an iterative solver
           901 MiB given to the printing process from OS
             0 MiB allocation reported by mallinfo(arena+hblkhd)
          1746 MiB available memory on the node where the printing process lives
------------------
     ethr =  7.92E-05,  avg # of iterations =  6.7

     total cpu time spent up to now is    11059.1 secs

     total energy              =   -2344.18120538 Ry
     estimated scf accuracy    <       0.12554827 Ry

     total magnetization       =    -0.00 Bohr mag/cell
     absolute magnetization    =     0.05 Bohr mag/cell

     iteration # 11     ecut=    60.00 Ry     beta= 0.70
     Davidson diagonalization with overlap

---- Real-time Memory Report at c_bands before calling an iterative solver
           901 MiB given to the printing process from OS
             0 MiB allocation reported by mallinfo(arena+hblkhd)
          1752 MiB available memory on the node where the printing process lives
------------------
     ethr =  5.06E-05,  avg # of iterations =  2.0

     total cpu time spent up to now is    11906.8 secs

     total energy              =   -2344.17193701 Ry
     estimated scf accuracy    <       0.03521982 Ry

     total magnetization       =    -0.00 Bohr mag/cell
     absolute magnetization    =     0.04 Bohr mag/cell

     iteration # 12     ecut=    60.00 Ry     beta= 0.70
     Davidson diagonalization with overlap

---- Real-time Memory Report at c_bands before calling an iterative solver
           901 MiB given to the printing process from OS
             0 MiB allocation reported by mallinfo(arena+hblkhd)
          1752 MiB available memory on the node where the printing process lives
------------------
     c_bands:  1 eigenvalues not converged
     c_bands:  1 eigenvalues not converged
     c_bands:  1 eigenvalues not converged
     c_bands:  2 eigenvalues not converged
     c_bands:  1 eigenvalues not converged
     c_bands:  1 eigenvalues not converged
     c_bands:  1 eigenvalues not converged
     c_bands:  1 eigenvalues not converged
     c_bands:  1 eigenvalues not converged
     c_bands:  1 eigenvalues not converged
     c_bands:  3 eigenvalues not converged
     c_bands:  1 eigenvalues not converged
     c_bands:  1 eigenvalues not converged
     c_bands:  2 eigenvalues not converged
     c_bands:  1 eigenvalues not converged
     c_bands:  1 eigenvalues not converged
     c_bands:  1 eigenvalues not converged
     c_bands:  1 eigenvalues not converged
     c_bands:  1 eigenvalues not converged
     c_bands:  1 eigenvalues not converged
     c_bands:  1 eigenvalues not converged
     c_bands:  1 eigenvalues not converged
     c_bands:  1 eigenvalues not converged
     ethr =  1.42E-05,  avg # of iterations = 19.1

     total cpu time spent up to now is    13329.5 secs

     total energy              =   -2344.18557184 Ry
     estimated scf accuracy    <       0.01552442 Ry

     total magnetization       =     0.00 Bohr mag/cell
     absolute magnetization    =     0.02 Bohr mag/cell

     iteration # 13     ecut=    60.00 Ry     beta= 0.70
     Davidson diagonalization with overlap

---- Real-time Memory Report at c_bands before calling an iterative solver
           901 MiB given to the printing process from OS
             0 MiB allocation reported by mallinfo(arena+hblkhd)
          1742 MiB available memory on the node where the printing process lives
------------------
     c_bands:  2 eigenvalues not converged
     c_bands:  2 eigenvalues not converged
     c_bands:  1 eigenvalues not converged
     ethr =  6.26E-06,  avg # of iterations =  6.3

     total cpu time spent up to now is    14221.6 secs

     total energy              =   -2344.18624502 Ry
     estimated scf accuracy    <       0.00288795 Ry

     total magnetization       =     0.00 Bohr mag/cell
     absolute magnetization    =     0.02 Bohr mag/cell

     iteration # 14     ecut=    60.00 Ry     beta= 0.70
     Davidson diagonalization with overlap

---- Real-time Memory Report at c_bands before calling an iterative solver
           901 MiB given to the printing process from OS
             0 MiB allocation reported by mallinfo(arena+hblkhd)
          1756 MiB available memory on the node where the printing process lives
------------------
     c_bands:  1 eigenvalues not converged
     c_bands:  1 eigenvalues not converged
     c_bands:  2 eigenvalues not converged
     c_bands:  1 eigenvalues not converged
     c_bands:  1 eigenvalues not converged
     c_bands:  2 eigenvalues not converged
     c_bands:  3 eigenvalues not converged
     c_bands:  1 eigenvalues not converged
     c_bands:  1 eigenvalues not converged
     c_bands:  1 eigenvalues not converged
     c_bands:  3 eigenvalues not converged
     c_bands:  2 eigenvalues not converged
     c_bands:  1 eigenvalues not converged
     c_bands:  2 eigenvalues not converged
     c_bands:  2 eigenvalues not converged
     c_bands:  1 eigenvalues not converged
     c_bands:  1 eigenvalues not converged
     ethr =  1.16E-06,  avg # of iterations = 15.6

     total cpu time spent up to now is    15860.2 secs

     total energy              =   -2344.18801697 Ry
     estimated scf accuracy    <       0.00383846 Ry

     total magnetization       =     0.00 Bohr mag/cell
     absolute magnetization    =     0.01 Bohr mag/cell

     iteration # 15     ecut=    60.00 Ry     beta= 0.70
     Davidson diagonalization with overlap

---- Real-time Memory Report at c_bands before calling an iterative solver
           901 MiB given to the printing process from OS
             0 MiB allocation reported by mallinfo(arena+hblkhd)
          1752 MiB available memory on the node where the printing process lives
------------------
     c_bands:  1 eigenvalues not converged
     c_bands:  2 eigenvalues not converged
     c_bands:  1 eigenvalues not converged
     ethr =  1.16E-06,  avg # of iterations =  5.2

     total cpu time spent up to now is    16695.5 secs

     total energy              =   -2344.18774855 Ry
     estimated scf accuracy    <       0.00211448 Ry

     total magnetization       =    -0.00 Bohr mag/cell
     absolute magnetization    =     0.01 Bohr mag/cell

     iteration # 16     ecut=    60.00 Ry     beta= 0.70
     Davidson diagonalization with overlap

---- Real-time Memory Report at c_bands before calling an iterative solver
           901 MiB given to the printing process from OS
             0 MiB allocation reported by mallinfo(arena+hblkhd)
          1750 MiB available memory on the node where the printing process lives
------------------
     c_bands:  1 eigenvalues not converged
     ethr =  8.53E-07,  avg # of iterations =  2.8

     total cpu time spent up to now is    17540.9 secs

     total energy              =   -2344.18757477 Ry
     estimated scf accuracy    <       0.00076257 Ry

     total magnetization       =     0.00 Bohr mag/cell
     absolute magnetization    =     0.01 Bohr mag/cell

     iteration # 17     ecut=    60.00 Ry     beta= 0.70
     Davidson diagonalization with overlap

---- Real-time Memory Report at c_bands before calling an iterative solver
           901 MiB given to the printing process from OS
             0 MiB allocation reported by mallinfo(arena+hblkhd)
          1746 MiB available memory on the node where the printing process lives
------------------
     c_bands:  1 eigenvalues not converged
     ethr =  3.07E-07,  avg # of iterations =  5.6

     total cpu time spent up to now is    18573.4 secs

     total energy              =   -2344.18778939 Ry
     estimated scf accuracy    <       0.00001175 Ry

     total magnetization       =     0.00 Bohr mag/cell
     absolute magnetization    =     0.00 Bohr mag/cell

     iteration # 18     ecut=    60.00 Ry     beta= 0.70
     Davidson diagonalization with overlap

---- Real-time Memory Report at c_bands before calling an iterative solver
           901 MiB given to the printing process from OS
             0 MiB allocation reported by mallinfo(arena+hblkhd)
          1768 MiB available memory on the node where the printing process lives
------------------
     ethr =  4.74E-09,  avg # of iterations = 15.9

     total cpu time spent up to now is    22144.5 secs

     total energy              =   -2344.18785688 Ry
     estimated scf accuracy    <       0.00004261 Ry

     total magnetization       =    -0.00 Bohr mag/cell
     absolute magnetization    =     0.00 Bohr mag/cell

     iteration # 19     ecut=    60.00 Ry     beta= 0.70
     Davidson diagonalization with overlap

---- Real-time Memory Report at c_bands before calling an iterative solver
           901 MiB given to the printing process from OS
             0 MiB allocation reported by mallinfo(arena+hblkhd)
          1769 MiB available memory on the node where the printing process lives
------------------
     ethr =  4.74E-09,  avg # of iterations =  1.4

     total cpu time spent up to now is    22903.2 secs

     total energy              =   -2344.18784252 Ry
     estimated scf accuracy    <       0.00003785 Ry

     total magnetization       =     0.00 Bohr mag/cell
     absolute magnetization    =     0.00 Bohr mag/cell

     iteration # 20     ecut=    60.00 Ry     beta= 0.70
     Davidson diagonalization with overlap

---- Real-time Memory Report at c_bands before calling an iterative solver
           901 MiB given to the printing process from OS
             0 MiB allocation reported by mallinfo(arena+hblkhd)
          1776 MiB available memory on the node where the printing process lives
------------------
     ethr =  4.74E-09,  avg # of iterations =  5.4

     total cpu time spent up to now is    24055.4 secs

     total energy              =   -2344.18784706 Ry
     estimated scf accuracy    <       0.00000284 Ry

     total magnetization       =     0.00 Bohr mag/cell
     absolute magnetization    =     0.00 Bohr mag/cell

     iteration # 21     ecut=    60.00 Ry     beta= 0.70
     Davidson diagonalization with overlap

---- Real-time Memory Report at c_bands before calling an iterative solver
           901 MiB given to the printing process from OS
             0 MiB allocation reported by mallinfo(arena+hblkhd)
          1776 MiB available memory on the node where the printing process lives
------------------
     ethr =  1.14E-09,  avg # of iterations =  5.0

     Magnetic moment per site  (integrated on atomic sphere of radius R)
     atom   1 (R=0.215)  charge=  7.5407  magn=  0.0000
     atom   2 (R=0.215)  charge=  7.5422  magn=  0.0000
     atom   3 (R=0.157)  charge=  8.1073  magn= -0.0000
     atom   4 (R=0.157)  charge=  8.1085  magn= -0.0000
     atom   5 (R=0.157)  charge=  8.1098  magn=  0.0000
     atom   6 (R=0.157)  charge=  8.1079  magn= -0.0000
     atom   7 (R=0.125)  charge=  0.5485  magn=  0.0000
     atom   8 (R=0.125)  charge=  0.5485  magn=  0.0000
     atom   9 (R=0.125)  charge=  0.5425  magn= -0.0000
     atom  10 (R=0.125)  charge=  0.5425  magn= -0.0000
     atom  11 (R=0.125)  charge=  0.5420  magn=  0.0000
     atom  12 (R=0.125)  charge=  0.5420  magn=  0.0000
     atom  13 (R=0.134)  charge=  0.3330  magn=  0.0000
     atom  14 (R=0.134)  charge=  0.3330  magn=  0.0000
     atom  15 (R=0.075)  charge=  1.9247  magn= -0.0000
     atom  16 (R=0.075)  charge=  1.9247  magn= -0.0000
     atom  17 (R=0.075)  charge=  1.9387  magn=  0.0000
     atom  18 (R=0.075)  charge=  1.9387  magn=  0.0000
     atom  19 (R=0.075)  charge=  1.9388  magn= -0.0000
     atom  20 (R=0.075)  charge=  1.9388  magn= -0.0000
     atom  21 (R=0.075)  charge=  1.9224  magn= -0.0000
     atom  22 (R=0.075)  charge=  1.9224  magn= -0.0000
     atom  23 (R=0.075)  charge=  1.9373  magn= -0.0000
     atom  24 (R=0.075)  charge=  1.9373  magn= -0.0000
     atom  25 (R=0.075)  charge=  1.9466  magn=  0.0000
     atom  26 (R=0.075)  charge=  1.9466  magn=  0.0000
     atom  27 (R=0.075)  charge=  1.9439  magn=  0.0000
     atom  28 (R=0.075)  charge=  1.9439  magn=  0.0000
     atom  29 (R=0.075)  charge=  1.9453  magn=  0.0000
     atom  30 (R=0.075)  charge=  1.9453  magn=  0.0000
     atom  31 (R=0.075)  charge=  1.9401  magn= -0.0000
     atom  32 (R=0.075)  charge=  1.9401  magn= -0.0000
     atom  33 (R=0.075)  charge=  1.9397  magn= -0.0000
     atom  34 (R=0.075)  charge=  1.9397  magn= -0.0000
     atom  35 (R=0.075)  charge=  1.9412  magn= -0.0000
     atom  36 (R=0.075)  charge=  1.9412  magn= -0.0000
     atom  37 (R=0.075)  charge=  1.9306  magn= -0.0000
     atom  38 (R=0.075)  charge=  1.9306  magn= -0.0000
     atom  39 (R=0.075)  charge=  0.3941  magn=  0.0000
     atom  40 (R=0.075)  charge=  0.3941  magn=  0.0000
     atom  41 (R=0.075)  charge=  0.4059  magn=  0.0000
     atom  42 (R=0.075)  charge=  0.4059  magn=  0.0000
     atom  43 (R=0.157)  charge=  8.6250  magn=  0.0001

     total cpu time spent up to now is    25211.0 secs

     End of self-consistent calculation

 ------ SPIN UP ------------


          k = 0.0000 0.0000 0.0000 ( 26779 PWs)   bands (ev):

   -68.7543 -68.5942 -67.4713 -67.2256 -53.2152 -35.5140 -35.5070 -35.4970
   -35.3771 -35.3424 -35.3163 -34.2544 -34.2064 -34.2025 -34.0162 -34.0057
   -33.9081 -29.4601 -29.4487 -29.2529 -23.9274 -23.6329 -15.5598 -15.4999
   -15.1619 -14.9755 -14.5355 -14.5068 -14.1100 -14.0954 -13.9287 -13.9074
   -13.5098 -13.4285 -13.3772 -13.1888 -13.0733 -12.9430 -12.8260 -12.8065
   -12.6489 -12.5139 -12.3066 -11.9326 -11.5787 -11.4375  -7.4875  -7.3934
    -7.3873  -7.1550  -7.1201  -7.1172  -4.7928  -4.7523  -3.3565  -2.8819
    -2.8000  -2.5618  -1.9848  -1.7025  -1.6165  -1.5331  -1.3695  -1.0355
    -0.9797  -0.6819  -0.6241  -0.4521  -0.4480  -0.0481  -0.0208   0.0410
     0.0570   0.2601   0.2772   0.3528   0.3816   0.5110   0.5284   0.7043
     0.7311   0.8594   0.9378   1.0038   1.1534   1.1641   1.2099   1.2521
     1.4357   1.5182   1.6766   1.6973   1.8253   1.8426   1.9264   1.9438
     2.0272   2.0753   2.1640   2.3523   2.4233   2.4450   2.5149   2.5319
     2.5452   2.5603   2.6929   2.7284   2.8090   2.8171   2.8615   2.8867
     3.0246   3.0596   3.2974   3.3455   3.3773   3.5310   3.6239   3.7050
     4.5011   4.8164   5.0942   5.4732   6.0935   6.5792   6.7608   8.1144
     8.3475   8.8991   9.7297  10.4700  10.9736  11.2782  11.4558  11.6093
    11.8920  11.9415  12.3076  12.4386  12.5303  12.6821  12.6938  12.7061
    12.7886  13.0287  13.1063  13.1739  13.2506

     occupation numbers 
     1.0000   1.0000   1.0000   1.0000   1.0000   1.0000   1.0000   1.0000
     1.0000   1.0000   1.0000   1.0000   1.0000   1.0000   1.0000   1.0000
     1.0000   1.0000   1.0000   1.0000   1.0000   1.0000   1.0000   1.0000
     1.0000   1.0000   1.0000   1.0000   1.0000   1.0000   1.0000   1.0000
     1.0000   1.0000   1.0000   1.0000   1.0000   1.0000   1.0000   1.0000
     1.0000   1.0000   1.0000   1.0000   1.0000   1.0000   1.0000   1.0000
     1.0000   1.0000   1.0000   1.0000   1.0000   1.0000   1.0000   1.0000
     1.0000   1.0000   1.0000   1.0000   1.0000   1.0000   1.0000   1.0000
     1.0000   1.0000   1.0000   1.0000   1.0000   1.0000   1.0000   1.0000
     1.0000   1.0000   1.0000   1.0000   1.0000   1.0000   1.0000   1.0000
     1.0000   1.0000   1.0000   1.0000   1.0000   1.0000   1.0000   1.0000
     1.0000   1.0000   1.0000   1.0000   1.0000   1.0000   1.0000   1.0000
     1.0000   1.0000   1.0000   1.0000   1.0000   1.0000   1.0000   1.0000
     1.0000   1.0000   1.0000   1.0000   1.0000   1.0000   1.0000   1.0000
     1.0000   1.0000   1.0000   1.0000   1.0000   1.0000   1.0000   1.0000
     1.0000   1.0000   1.0000   1.0000   0.0000   0.0000   0.0000   0.0000
     0.0000   0.0000   0.0000   0.0000   0.0000   0.0000   0.0000   0.0000
     0.0000   0.0000   0.0000   0.0000   0.0000   0.0000   0.0000   0.0000
     0.0000   0.0000   0.0000   0.0000   0.0000

          k = 0.0000 0.0000 0.1730 ( 26756 PWs)   bands (ev):

   -68.7543 -68.5942 -67.4713 -67.2256 -53.2152 -35.5140 -35.5070 -35.4970
   -35.3771 -35.3424 -35.3163 -34.2544 -34.2064 -34.2025 -34.0162 -34.0057
   -33.9081 -29.4601 -29.4487 -29.2529 -23.9274 -23.6329 -15.5504 -15.5108
   -15.1603 -14.9757 -14.5288 -14.5137 -14.1102 -14.0951 -13.9268 -13.9096
   -13.5043 -13.4404 -13.3665 -13.1935 -13.0712 -12.9448 -12.8285 -12.8038
   -12.6442 -12.5177 -12.3064 -11.9333 -11.5789 -11.4375  -7.4875  -7.3934
    -7.3872  -7.1550  -7.1200  -7.1172  -4.7890  -4.7564  -3.3517  -2.8624
    -2.8214  -2.5662  -1.9517  -1.7253  -1.6124  -1.5460  -1.3269  -1.0488
    -0.9703  -0.7914  -0.6082  -0.4665  -0.4266  -0.0843  -0.0254   0.0465
     0.0550   0.2679   0.2937   0.3716   0.4188   0.4738   0.5664   0.6662
     0.7669   0.8746   0.9374   0.9978   1.0966   1.1579   1.2532   1.3154
     1.4860   1.5341   1.6763   1.6963   1.8074   1.8500   1.8783   1.9009
     2.0735   2.1066   2.1627   2.2923   2.3847   2.4287   2.4915   2.5122
     2.5501   2.6216   2.6980   2.7851   2.8014   2.8283   2.8756   2.9174
     2.9735   3.0004   3.2910   3.3402   3.3885   3.5209   3.5638   3.7592
     4.5014   4.8178   5.0984   5.4720   6.0945   6.5800   6.7583   8.1045
     8.6190   8.9026   9.3247  10.5531  11.0105  11.1635  11.5042  11.5303
    12.0480  12.1489  12.2736  12.4376  12.5164  12.5519  12.7129  12.7320
    12.7862  13.0543  13.1584  13.1974  13.2277

     occupation numbers 
     1.0000   1.0000   1.0000   1.0000   1.0000   1.0000   1.0000   1.0000
     1.0000   1.0000   1.0000   1.0000   1.0000   1.0000   1.0000   1.0000
     1.0000   1.0000   1.0000   1.0000   1.0000   1.0000   1.0000   1.0000
     1.0000   1.0000   1.0000   1.0000   1.0000   1.0000   1.0000   1.0000
     1.0000   1.0000   1.0000   1.0000   1.0000   1.0000   1.0000   1.0000
     1.0000   1.0000   1.0000   1.0000   1.0000   1.0000   1.0000   1.0000
     1.0000   1.0000   1.0000   1.0000   1.0000   1.0000   1.0000   1.0000
     1.0000   1.0000   1.0000   1.0000   1.0000   1.0000   1.0000   1.0000
     1.0000   1.0000   1.0000   1.0000   1.0000   1.0000   1.0000   1.0000
     1.0000   1.0000   1.0000   1.0000   1.0000   1.0000   1.0000   1.0000
     1.0000   1.0000   1.0000   1.0000   1.0000   1.0000   1.0000   1.0000
     1.0000   1.0000   1.0000   1.0000   1.0000   1.0000   1.0000   1.0000
     1.0000   1.0000   1.0000   1.0000   1.0000   1.0000   1.0000   1.0000
     1.0000   1.0000   1.0000   1.0000   1.0000   1.0000   1.0000   1.0000
     1.0000   1.0000   1.0000   1.0000   1.0000   1.0000   1.0000   1.0000
     1.0000   1.0000   1.0000   1.0000   0.0000   0.0000   0.0000   0.0000
     0.0000   0.0000   0.0000   0.0000   0.0000   0.0000   0.0000   0.0000
     0.0000   0.0000   0.0000   0.0000   0.0000   0.0000   0.0000   0.0000
     0.0000   0.0000   0.0000   0.0000   0.0000

          k = 0.0000 0.1920 0.0000 ( 26787 PWs)   bands (ev):

   -68.7543 -68.5942 -67.4713 -67.2256 -53.2152 -35.5140 -35.5070 -35.4970
   -35.3771 -35.3424 -35.3163 -34.2544 -34.2064 -34.2025 -34.0162 -34.0057
   -33.9081 -29.4601 -29.4487 -29.2529 -23.9274 -23.6329 -15.5506 -15.4942
   -15.1744 -14.9789 -14.5643 -14.5460 -14.1098 -14.0952 -13.8073 -13.7807
   -13.5781 -13.5357 -13.4157 -13.1802 -13.0644 -12.9382 -12.8258 -12.8067
   -12.6441 -12.5118 -12.3037 -11.9322 -11.5788 -11.4373  -7.4875  -7.3935
    -7.3869  -7.1552  -7.1201  -7.1173  -4.7506  -4.7091  -3.3562  -3.0478
    -2.9714  -2.5634  -1.8607  -1.5842  -1.5800  -1.4319  -1.3994  -1.0932
    -0.8998  -0.7170  -0.6245  -0.4605  -0.3860  -0.1756  -0.0941   0.0255
     0.0358   0.1949   0.2774   0.3245   0.4206   0.4695   0.5758   0.6912
     0.8681   0.8828   1.0098   1.0209   1.1655   1.2394   1.2524   1.2967
     1.4375   1.5289   1.6362   1.6585   1.7748   1.8668   1.9063   1.9358
     1.9918   2.0161   2.2188   2.3194   2.4218   2.4534   2.4726   2.5382
     2.5444   2.5733   2.6931   2.7053   2.7989   2.8224   2.8757   2.9087
     2.9915   3.0665   3.2661   3.3533   3.3759   3.5351   3.6205   3.7033
     4.4809   4.8051   5.0288   5.4582   6.1045   6.5814   6.7585   8.0790
     8.6762   8.9091   9.8485   9.8980  10.9199  11.0720  11.6691  11.9137
    11.9519  12.0348  12.2645  12.3704  12.4404  12.6560  12.7223  12.7296
    12.8792  12.8907  13.1027  13.1088  13.3232

     occupation numbers 
     1.0000   1.0000   1.0000   1.0000   1.0000   1.0000   1.0000   1.0000
     1.0000   1.0000   1.0000   1.0000   1.0000   1.0000   1.0000   1.0000
     1.0000   1.0000   1.0000   1.0000   1.0000   1.0000   1.0000   1.0000
     1.0000   1.0000   1.0000   1.0000   1.0000   1.0000   1.0000   1.0000
     1.0000   1.0000   1.0000   1.0000   1.0000   1.0000   1.0000   1.0000
     1.0000   1.0000   1.0000   1.0000   1.0000   1.0000   1.0000   1.0000
     1.0000   1.0000   1.0000   1.0000   1.0000   1.0000   1.0000   1.0000
     1.0000   1.0000   1.0000   1.0000   1.0000   1.0000   1.0000   1.0000
     1.0000   1.0000   1.0000   1.0000   1.0000   1.0000   1.0000   1.0000
     1.0000   1.0000   1.0000   1.0000   1.0000   1.0000   1.0000   1.0000
     1.0000   1.0000   1.0000   1.0000   1.0000   1.0000   1.0000   1.0000
     1.0000   1.0000   1.0000   1.0000   1.0000   1.0000   1.0000   1.0000
     1.0000   1.0000   1.0000   1.0000   1.0000   1.0000   1.0000   1.0000
     1.0000   1.0000   1.0000   1.0000   1.0000   1.0000   1.0000   1.0000
     1.0000   1.0000   1.0000   1.0000   1.0000   1.0000   1.0000   1.0000
     1.0000   1.0000   1.0000   1.0000   0.0000   0.0000   0.0000   0.0000
     0.0000   0.0000   0.0000   0.0000   0.0000   0.0000   0.0000   0.0000
     0.0000   0.0000   0.0000   0.0000   0.0000   0.0000   0.0000   0.0000
     0.0000   0.0000   0.0000   0.0000   0.0000

          k = 0.0000 0.1920 0.1730 ( 26783 PWs)   bands (ev):

   -68.7543 -68.5942 -67.4713 -67.2256 -53.2152 -35.5140 -35.5070 -35.4970
   -35.3771 -35.3424 -35.3163 -34.2544 -34.2064 -34.2025 -34.0162 -34.0057
   -33.9081 -29.4601 -29.4487 -29.2529 -23.9274 -23.6329 -15.5409 -15.5053
   -15.1730 -14.9792 -14.5626 -14.5479 -14.1101 -14.0950 -13.8018 -13.7868
   -13.5694 -13.5466 -13.4093 -13.1850 -13.0618 -12.9400 -12.8288 -12.8038
   -12.6394 -12.5156 -12.3035 -11.9328 -11.5789 -11.4372  -7.4875  -7.3935
    -7.3869  -7.1552  -7.1200  -7.1173  -4.7447  -4.7153  -3.3520  -3.0305
    -2.9895  -2.5685  -1.8242  -1.5854  -1.5800  -1.4579  -1.3734  -1.1314
    -0.8750  -0.7097  -0.6844  -0.4870  -0.3761  -0.1680  -0.1261  -0.0020
     0.0301   0.2342   0.2856   0.3273   0.3978   0.4989   0.6364   0.6765
     0.8680   0.9243   0.9931   1.0423   1.1603   1.2264   1.2756   1.3220
     1.4671   1.5119   1.6318   1.6634   1.7377   1.7998   1.8950   1.9694
     2.0106   2.0994   2.1970   2.2941   2.3786   2.3963   2.4672   2.5055
     2.5595   2.6074   2.7057   2.7432   2.8222   2.8430   2.8697   2.9302
     2.9700   3.0096   3.2700   3.3245   3.3974   3.5241   3.5604   3.7535
     4.4832   4.8073   5.0391   5.4562   6.1058   6.5824   6.7555   8.0606
     8.8442   8.9917   9.5309  10.0257  10.6305  11.0818  11.7033  11.9254
    12.0693  12.2464  12.2856  12.4054  12.5121  12.5433  12.7099  12.7887
    12.8340  12.9086  13.0951  13.1910  13.2513

     occupation numbers 
     1.0000   1.0000   1.0000   1.0000   1.0000   1.0000   1.0000   1.0000
     1.0000   1.0000   1.0000   1.0000   1.0000   1.0000   1.0000   1.0000
     1.0000   1.0000   1.0000   1.0000   1.0000   1.0000   1.0000   1.0000
     1.0000   1.0000   1.0000   1.0000   1.0000   1.0000   1.0000   1.0000
     1.0000   1.0000   1.0000   1.0000   1.0000   1.0000   1.0000   1.0000
     1.0000   1.0000   1.0000   1.0000   1.0000   1.0000   1.0000   1.0000
     1.0000   1.0000   1.0000   1.0000   1.0000   1.0000   1.0000   1.0000
     1.0000   1.0000   1.0000   1.0000   1.0000   1.0000   1.0000   1.0000
     1.0000   1.0000   1.0000   1.0000   1.0000   1.0000   1.0000   1.0000
     1.0000   1.0000   1.0000   1.0000   1.0000   1.0000   1.0000   1.0000
     1.0000   1.0000   1.0000   1.0000   1.0000   1.0000   1.0000   1.0000
     1.0000   1.0000   1.0000   1.0000   1.0000   1.0000   1.0000   1.0000
     1.0000   1.0000   1.0000   1.0000   1.0000   1.0000   1.0000   1.0000
     1.0000   1.0000   1.0000   1.0000   1.0000   1.0000   1.0000   1.0000
     1.0000   1.0000   1.0000   1.0000   1.0000   1.0000   1.0000   1.0000
     1.0000   1.0000   1.0000   1.0000   0.0000   0.0000   0.0000   0.0000
     0.0000   0.0000   0.0000   0.0000   0.0000   0.0000   0.0000   0.0000
     0.0000   0.0000   0.0000   0.0000   0.0000   0.0000   0.0000   0.0000
     0.0000   0.0000   0.0000   0.0000   0.0000

          k = 0.1667 0.0000 0.0298 ( 26772 PWs)   bands (ev):

   -68.7543 -68.5942 -67.4713 -67.2256 -53.2152 -35.5142 -35.5068 -35.4970
   -35.3771 -35.3424 -35.3162 -34.2544 -34.2064 -34.2025 -34.0162 -34.0057
   -33.9081 -29.4601 -29.4486 -29.2531 -23.9273 -23.6328 -15.5014 -15.4412
   -15.1495 -14.9812 -14.5705 -14.5429 -14.2274 -14.2077 -13.8342 -13.8132
   -13.4995 -13.4260 -13.3693 -13.1977 -13.0744 -12.9435 -12.8846 -12.8620
   -12.6351 -12.5023 -12.2766 -11.9558 -11.5819 -11.4426  -7.4897  -7.3917
    -7.3867  -7.1556  -7.1196  -7.1168  -4.6338  -4.5886  -3.3384  -2.8475
    -2.7576  -2.5874  -2.1712  -1.9960  -1.5308  -1.3522  -1.2912  -0.9850
    -0.9204  -0.6924  -0.6272  -0.4480  -0.3900  -0.1540  -0.0411   0.0124
     0.0602   0.2283   0.3016   0.3175   0.3794   0.4114   0.4715   0.6651
     0.7755   0.8820   0.9783   1.0177   1.1214   1.1834   1.2570   1.3161
     1.4182   1.5197   1.5842   1.6991   1.8061   1.8665   1.8957   1.9328
     2.0365   2.1112   2.1564   2.3235   2.3988   2.4080   2.4719   2.5274
     2.5527   2.6412   2.6674   2.7103   2.7706   2.8005   2.8466   2.8889
     2.9832   3.0393   3.2515   3.2991   3.3829   3.4552   3.5975   3.7122
     4.4656   4.7860   5.1033   5.4573   6.1017   6.5957   6.7316   8.1161
     8.5708   8.9327   9.8988  10.5596  11.1111  11.3975  11.4947  11.7424
    11.8888  11.9774  12.2678  12.3221  12.4745  12.6109  12.6558  12.8848
    12.9012  13.0617  13.1211  13.1421  13.2252

     occupation numbers 
     1.0000   1.0000   1.0000   1.0000   1.0000   1.0000   1.0000   1.0000
     1.0000   1.0000   1.0000   1.0000   1.0000   1.0000   1.0000   1.0000
     1.0000   1.0000   1.0000   1.0000   1.0000   1.0000   1.0000   1.0000
     1.0000   1.0000   1.0000   1.0000   1.0000   1.0000   1.0000   1.0000
     1.0000   1.0000   1.0000   1.0000   1.0000   1.0000   1.0000   1.0000
     1.0000   1.0000   1.0000   1.0000   1.0000   1.0000   1.0000   1.0000
     1.0000   1.0000   1.0000   1.0000   1.0000   1.0000   1.0000   1.0000
     1.0000   1.0000   1.0000   1.0000   1.0000   1.0000   1.0000   1.0000
     1.0000   1.0000   1.0000   1.0000   1.0000   1.0000   1.0000   1.0000
     1.0000   1.0000   1.0000   1.0000   1.0000   1.0000   1.0000   1.0000
     1.0000   1.0000   1.0000   1.0000   1.0000   1.0000   1.0000   1.0000
     1.0000   1.0000   1.0000   1.0000   1.0000   1.0000   1.0000   1.0000
     1.0000   1.0000   1.0000   1.0000   1.0000   1.0000   1.0000   1.0000
     1.0000   1.0000   1.0000   1.0000   1.0000   1.0000   1.0000   1.0000
     1.0000   1.0000   1.0000   1.0000   1.0000   1.0000   1.0000   1.0000
     1.0000   1.0000   1.0000   1.0000   0.0000   0.0000   0.0000   0.0000
     0.0000   0.0000   0.0000   0.0000   0.0000   0.0000   0.0000   0.0000
     0.0000   0.0000   0.0000   0.0000   0.0000   0.0000   0.0000   0.0000
     0.0000   0.0000   0.0000   0.0000   0.0000

          k = 0.1667 0.0000 0.2028 ( 26774 PWs)   bands (ev):

   -68.7543 -68.5942 -67.4713 -67.2256 -53.2152 -35.5142 -35.5068 -35.4970
   -35.3771 -35.3424 -35.3162 -34.2544 -34.2064 -34.2025 -34.0162 -34.0057
   -33.9081 -29.4601 -29.4486 -29.2531 -23.9273 -23.6328 -15.4902 -15.4544
   -15.1476 -14.9815 -14.5661 -14.5474 -14.2265 -14.2087 -13.8332 -13.8144
   -13.4927 -13.4392 -13.3579 -13.2034 -13.0715 -12.9467 -12.8826 -12.8634
   -12.6294 -12.5071 -12.2757 -11.9567 -11.5821 -11.4425  -7.4897  -7.3916
    -7.3867  -7.1556  -7.1196  -7.1168  -4.6350  -4.5875  -3.3334  -2.8342
    -2.7733  -2.5924  -2.1374  -2.0283  -1.5032  -1.3553  -1.2643  -1.0018
    -0.9153  -0.7963  -0.6045  -0.4705  -0.3662  -0.1575  -0.0787   0.0267
     0.0435   0.2296   0.3061   0.3458   0.4090   0.4232   0.4741   0.6392
     0.8347   0.9136   0.9328   1.0045   1.0843   1.1736   1.3164   1.3616
     1.4764   1.5114   1.5615   1.6949   1.8086   1.8506   1.8905   1.9071
     2.0494   2.1313   2.1659   2.2711   2.3522   2.4077   2.4239   2.5353
     2.5907   2.6309   2.6963   2.7322   2.7664   2.8268   2.8727   2.9190
     2.9427   2.9833   3.2686   3.2826   3.3766   3.4526   3.5454   3.7555
     4.4650   4.7894   5.1071   5.4586   6.1020   6.5961   6.7294   8.1097
     8.6924   9.1586   9.4150  10.6303  11.1471  11.2666  11.5294  11.6553
    11.8780  12.1817  12.2874  12.4288  12.4992  12.6119  12.7194  12.8323
    12.9119  13.0108  13.0701  13.1834  13.2520

     occupation numbers 
     1.0000   1.0000   1.0000   1.0000   1.0000   1.0000   1.0000   1.0000
     1.0000   1.0000   1.0000   1.0000   1.0000   1.0000   1.0000   1.0000
     1.0000   1.0000   1.0000   1.0000   1.0000   1.0000   1.0000   1.0000
     1.0000   1.0000   1.0000   1.0000   1.0000   1.0000   1.0000   1.0000
     1.0000   1.0000   1.0000   1.0000   1.0000   1.0000   1.0000   1.0000
     1.0000   1.0000   1.0000   1.0000   1.0000   1.0000   1.0000   1.0000
     1.0000   1.0000   1.0000   1.0000   1.0000   1.0000   1.0000   1.0000
     1.0000   1.0000   1.0000   1.0000   1.0000   1.0000   1.0000   1.0000
     1.0000   1.0000   1.0000   1.0000   1.0000   1.0000   1.0000   1.0000
     1.0000   1.0000   1.0000   1.0000   1.0000   1.0000   1.0000   1.0000
     1.0000   1.0000   1.0000   1.0000   1.0000   1.0000   1.0000   1.0000
     1.0000   1.0000   1.0000   1.0000   1.0000   1.0000   1.0000   1.0000
     1.0000   1.0000   1.0000   1.0000   1.0000   1.0000   1.0000   1.0000
     1.0000   1.0000   1.0000   1.0000   1.0000   1.0000   1.0000   1.0000
     1.0000   1.0000   1.0000   1.0000   1.0000   1.0000   1.0000   1.0000
     1.0000   1.0000   1.0000   1.0000   0.0000   0.0000   0.0000   0.0000
     0.0000   0.0000   0.0000   0.0000   0.0000   0.0000   0.0000   0.0000
     0.0000   0.0000   0.0000   0.0000   0.0000   0.0000   0.0000   0.0000
     0.0000   0.0000   0.0000   0.0000   0.0000

          k = 0.1667 0.0000-0.1432 ( 26772 PWs)   bands (ev):

   -68.7543 -68.5942 -67.4713 -67.2256 -53.2152 -35.5142 -35.5068 -35.4970
   -35.3771 -35.3424 -35.3162 -34.2544 -34.2064 -34.2025 -34.0162 -34.0057
   -33.9081 -29.4601 -29.4486 -29.2531 -23.9273 -23.6328 -15.4944 -15.4496
   -15.1480 -14.9815 -14.5634 -14.5503 -14.2245 -14.2107 -13.8311 -13.8167
   -13.4946 -13.4371 -13.3584 -13.2022 -13.0721 -12.9460 -12.8832 -12.8632
   -12.6305 -12.5064 -12.2760 -11.9563 -11.5820 -11.4425  -7.4897  -7.3916
    -7.3867  -7.1557  -7.1196  -7.1168  -4.6184  -4.6043  -3.3344  -2.8262
    -2.7819  -2.5903  -2.1536  -2.0133  -1.5061  -1.3641  -1.2667  -0.9962
    -0.9144  -0.7680  -0.6201  -0.4615  -0.3779  -0.1259  -0.0920   0.0205
     0.0579   0.2257   0.3083   0.3266   0.3875   0.4257   0.4801   0.6684
     0.7781   0.9028   0.9623   1.0410   1.1195   1.2206   1.2486   1.3390
     1.4104   1.5206   1.5579   1.6961   1.8055   1.8539   1.9155   1.9608
     1.9702   2.1449   2.1560   2.2785   2.3683   2.4290   2.4625   2.4962
     2.5827   2.6319   2.7085   2.7172   2.7798   2.8049   2.8670   2.9055
     2.9816   3.0126   3.2590   3.3050   3.3384   3.4592   3.5244   3.7637
     4.4649   4.7906   5.1056   5.4568   6.1028   6.5954   6.7320   8.1085
     8.7609   8.8743   9.6705  10.6747  11.1679  11.2633  11.5452  11.6274
    11.9186  12.1759  12.2883  12.3513  12.4011  12.6273  12.6994  12.7803
    12.8493  13.0319  13.0654  13.2378  13.3221

     occupation numbers 
     1.0000   1.0000   1.0000   1.0000   1.0000   1.0000   1.0000   1.0000
     1.0000   1.0000   1.0000   1.0000   1.0000   1.0000   1.0000   1.0000
     1.0000   1.0000   1.0000   1.0000   1.0000   1.0000   1.0000   1.0000
     1.0000   1.0000   1.0000   1.0000   1.0000   1.0000   1.0000   1.0000
     1.0000   1.0000   1.0000   1.0000   1.0000   1.0000   1.0000   1.0000
     1.0000   1.0000   1.0000   1.0000   1.0000   1.0000   1.0000   1.0000
     1.0000   1.0000   1.0000   1.0000   1.0000   1.0000   1.0000   1.0000
     1.0000   1.0000   1.0000   1.0000   1.0000   1.0000   1.0000   1.0000
     1.0000   1.0000   1.0000   1.0000   1.0000   1.0000   1.0000   1.0000
     1.0000   1.0000   1.0000   1.0000   1.0000   1.0000   1.0000   1.0000
     1.0000   1.0000   1.0000   1.0000   1.0000   1.0000   1.0000   1.0000
     1.0000   1.0000   1.0000   1.0000   1.0000   1.0000   1.0000   1.0000
     1.0000   1.0000   1.0000   1.0000   1.0000   1.0000   1.0000   1.0000
     1.0000   1.0000   1.0000   1.0000   1.0000   1.0000   1.0000   1.0000
     1.0000   1.0000   1.0000   1.0000   1.0000   1.0000   1.0000   1.0000
     1.0000   1.0000   1.0000   1.0000   0.0000   0.0000   0.0000   0.0000
     0.0000   0.0000   0.0000   0.0000   0.0000   0.0000   0.0000   0.0000
     0.0000   0.0000   0.0000   0.0000   0.0000   0.0000   0.0000   0.0000
     0.0000   0.0000   0.0000   0.0000   0.0000

          k = 0.1667 0.1920 0.0298 ( 26762 PWs)   bands (ev):

   -68.7543 -68.5942 -67.4713 -67.2256 -53.2152 -35.5141 -35.5068 -35.4970
   -35.3771 -35.3424 -35.3162 -34.2544 -34.2064 -34.2025 -34.0162 -34.0057
   -33.9081 -29.4601 -29.4486 -29.2531 -23.9273 -23.6328 -15.4919 -15.4356
   -15.1619 -14.9842 -14.5970 -14.5769 -14.2054 -14.1878 -13.7558 -13.7268
   -13.5583 -13.5144 -13.4006 -13.1889 -13.0645 -12.9396 -12.8828 -12.8622
   -12.6316 -12.5011 -12.2747 -11.9556 -11.5819 -11.4424  -7.4898  -7.3917
    -7.3864  -7.1558  -7.1197  -7.1169  -4.5946  -4.5485  -3.3378  -3.0268
    -2.9557  -2.5891  -1.9906  -1.8013  -1.5185  -1.3731  -1.3245  -0.9904
    -0.8277  -0.6709  -0.6143  -0.4904  -0.3634  -0.2310  -0.1021  -0.0192
     0.0494   0.1876   0.2462   0.2967   0.3267   0.4420   0.5629   0.6993
     0.8448   0.9105   0.9795   1.0506   1.1693   1.2258   1.2420   1.3445
     1.4260   1.4909   1.5071   1.6314   1.7797   1.8824   1.9231   1.9680
     2.0167   2.0622   2.1790   2.3140   2.3847   2.4290   2.4799   2.5371
     2.5595   2.6257   2.6908   2.7352   2.7694   2.7795   2.8534   2.8961
     2.9902   3.0319   3.2161   3.2665   3.3965   3.4586   3.5986   3.6998
     4.4531   4.7812   5.0578   5.4441   6.1119   6.5976   6.7278   8.0833
     8.7607   9.0293  10.0312  10.0529  11.0508  11.1290  11.6823  11.9587
    11.9806  12.0823  12.2361  12.3442  12.4422  12.5648  12.6076  12.8293
    12.9586  13.0248  13.1233  13.1650  13.2840

     occupation numbers 
     1.0000   1.0000   1.0000   1.0000   1.0000   1.0000   1.0000   1.0000
     1.0000   1.0000   1.0000   1.0000   1.0000   1.0000   1.0000   1.0000
     1.0000   1.0000   1.0000   1.0000   1.0000   1.0000   1.0000   1.0000
     1.0000   1.0000   1.0000   1.0000   1.0000   1.0000   1.0000   1.0000
     1.0000   1.0000   1.0000   1.0000   1.0000   1.0000   1.0000   1.0000
     1.0000   1.0000   1.0000   1.0000   1.0000   1.0000   1.0000   1.0000
     1.0000   1.0000   1.0000   1.0000   1.0000   1.0000   1.0000   1.0000
     1.0000   1.0000   1.0000   1.0000   1.0000   1.0000   1.0000   1.0000
     1.0000   1.0000   1.0000   1.0000   1.0000   1.0000   1.0000   1.0000
     1.0000   1.0000   1.0000   1.0000   1.0000   1.0000   1.0000   1.0000
     1.0000   1.0000   1.0000   1.0000   1.0000   1.0000   1.0000   1.0000
     1.0000   1.0000   1.0000   1.0000   1.0000   1.0000   1.0000   1.0000
     1.0000   1.0000   1.0000   1.0000   1.0000   1.0000   1.0000   1.0000
     1.0000   1.0000   1.0000   1.0000   1.0000   1.0000   1.0000   1.0000
     1.0000   1.0000   1.0000   1.0000   1.0000   1.0000   1.0000   1.0000
     1.0000   1.0000   1.0000   1.0000   0.0000   0.0000   0.0000   0.0000
     0.0000   0.0000   0.0000   0.0000   0.0000   0.0000   0.0000   0.0000
     0.0000   0.0000   0.0000   0.0000   0.0000   0.0000   0.0000   0.0000
     0.0000   0.0000   0.0000   0.0000   0.0000

          k = 0.1667 0.1920 0.2028 ( 26761 PWs)   bands (ev):

   -68.7543 -68.5942 -67.4713 -67.2256 -53.2152 -35.5141 -35.5068 -35.4970
   -35.3771 -35.3424 -35.3162 -34.2544 -34.2064 -34.2025 -34.0162 -34.0057
   -33.9081 -29.4601 -29.4486 -29.2531 -23.9273 -23.6328 -15.4801 -15.4491
   -15.1601 -14.9845 -14.5975 -14.5765 -14.2043 -14.1890 -13.7532 -13.7298
   -13.5496 -13.5256 -13.3928 -13.1950 -13.0617 -12.9412 -12.8837 -12.8616
   -12.6261 -12.5058 -12.2739 -11.9565 -11.5820 -11.4424  -7.4899  -7.3917
    -7.3864  -7.1558  -7.1196  -7.1169  -4.5936  -4.5497  -3.3335  -3.0094
    -2.9738  -2.5947  -1.9649  -1.8212  -1.4910  -1.3543  -1.3348  -1.0351
    -0.8040  -0.6878  -0.6391  -0.5237  -0.3456  -0.2314  -0.1068  -0.0543
     0.0283   0.2270   0.2369   0.2808   0.3304   0.4857   0.6025   0.6873
     0.8679   0.9461   0.9916   1.0326   1.1591   1.1988   1.2880   1.3718
     1.4408   1.4511   1.5217   1.6066   1.7772   1.8563   1.9192   1.9830
     2.0421   2.1032   2.1723   2.2715   2.3514   2.3900   2.4351   2.5379
     2.5979   2.6321   2.7072   2.7337   2.7783   2.8045   2.8706   2.9339
     2.9561   2.9955   3.2358   3.2481   3.3899   3.4503   3.5469   3.7420
     4.4535   4.7852   5.0661   5.4442   6.1125   6.5981   6.7253   8.0716
     8.7825   9.3023   9.6206  10.2273  10.7563  11.1151  11.7114  11.9546
    12.0427  12.1595  12.3282  12.4063  12.5547  12.6025  12.6585  12.8673
    12.9010  12.9957  13.0993  13.1296  13.2280

     occupation numbers 
     1.0000   1.0000   1.0000   1.0000   1.0000   1.0000   1.0000   1.0000
     1.0000   1.0000   1.0000   1.0000   1.0000   1.0000   1.0000   1.0000
     1.0000   1.0000   1.0000   1.0000   1.0000   1.0000   1.0000   1.0000
     1.0000   1.0000   1.0000   1.0000   1.0000   1.0000   1.0000   1.0000
     1.0000   1.0000   1.0000   1.0000   1.0000   1.0000   1.0000   1.0000
     1.0000   1.0000   1.0000   1.0000   1.0000   1.0000   1.0000   1.0000
     1.0000   1.0000   1.0000   1.0000   1.0000   1.0000   1.0000   1.0000
     1.0000   1.0000   1.0000   1.0000   1.0000   1.0000   1.0000   1.0000
     1.0000   1.0000   1.0000   1.0000   1.0000   1.0000   1.0000   1.0000
     1.0000   1.0000   1.0000   1.0000   1.0000   1.0000   1.0000   1.0000
     1.0000   1.0000   1.0000   1.0000   1.0000   1.0000   1.0000   1.0000
     1.0000   1.0000   1.0000   1.0000   1.0000   1.0000   1.0000   1.0000
     1.0000   1.0000   1.0000   1.0000   1.0000   1.0000   1.0000   1.0000
     1.0000   1.0000   1.0000   1.0000   1.0000   1.0000   1.0000   1.0000
     1.0000   1.0000   1.0000   1.0000   1.0000   1.0000   1.0000   1.0000
     1.0000   1.0000   1.0000   1.0000   0.0000   0.0000   0.0000   0.0000
     0.0000   0.0000   0.0000   0.0000   0.0000   0.0000   0.0000   0.0000
     0.0000   0.0000   0.0000   0.0000   0.0000   0.0000   0.0000   0.0000
     0.0000   0.0000   0.0000   0.0000   0.0000

          k = 0.1667 0.1920-0.1432 ( 26775 PWs)   bands (ev):

   -68.7543 -68.5942 -67.4713 -67.2256 -53.2152 -35.5142 -35.5068 -35.4970
   -35.3771 -35.3424 -35.3162 -34.2544 -34.2064 -34.2025 -34.0162 -34.0057
   -33.9081 -29.4601 -29.4486 -29.2531 -23.9273 -23.6328 -15.4848 -15.4439
   -15.1605 -14.9845 -14.5938 -14.5803 -14.2029 -14.1904 -13.7512 -13.7322
   -13.5508 -13.5242 -13.3939 -13.1931 -13.0619 -12.9411 -12.8831 -12.8625
   -12.6271 -12.5052 -12.2741 -11.9561 -11.5820 -11.4424  -7.4899  -7.3917
    -7.3863  -7.1558  -7.1196  -7.1169  -4.5773  -4.5661  -3.3344  -3.0114
    -2.9719  -2.5933  -1.9752  -1.8132  -1.4942  -1.3737  -1.3195  -1.0251
    -0.8099  -0.6698  -0.6522  -0.5123  -0.3559  -0.2184  -0.1114  -0.0442
     0.0342   0.2180   0.2373   0.2864   0.3273   0.4885   0.5745   0.6975
     0.8762   0.9263   0.9941   1.0487   1.1808   1.2089   1.2386   1.3496
     1.4080   1.4753   1.5193   1.6293   1.8058   1.8632   1.9189   1.9738
     2.0077   2.0981   2.1650   2.2576   2.3550   2.4188   2.4771   2.5269
     2.5704   2.6499   2.7115   2.7350   2.7612   2.8244   2.8744   2.9021
     2.9821   3.0036   3.2264   3.2772   3.3547   3.4608   3.5308   3.7515
     4.4525   4.7843   5.0624   5.4426   6.1131   6.5974   6.7284   8.0679
     8.8188   9.1176   9.8053  10.1885  10.8422  11.1629  11.7283  11.9347
    12.0036  12.1523  12.3134  12.3758  12.4287  12.5848  12.7016  12.7800
    12.9430  13.0393  13.0894  13.1046  13.2447

     occupation numbers 
     1.0000   1.0000   1.0000   1.0000   1.0000   1.0000   1.0000   1.0000
     1.0000   1.0000   1.0000   1.0000   1.0000   1.0000   1.0000   1.0000
     1.0000   1.0000   1.0000   1.0000   1.0000   1.0000   1.0000   1.0000
     1.0000   1.0000   1.0000   1.0000   1.0000   1.0000   1.0000   1.0000
     1.0000   1.0000   1.0000   1.0000   1.0000   1.0000   1.0000   1.0000
     1.0000   1.0000   1.0000   1.0000   1.0000   1.0000   1.0000   1.0000
     1.0000   1.0000   1.0000   1.0000   1.0000   1.0000   1.0000   1.0000
     1.0000   1.0000   1.0000   1.0000   1.0000   1.0000   1.0000   1.0000
     1.0000   1.0000   1.0000   1.0000   1.0000   1.0000   1.0000   1.0000
     1.0000   1.0000   1.0000   1.0000   1.0000   1.0000   1.0000   1.0000
     1.0000   1.0000   1.0000   1.0000   1.0000   1.0000   1.0000   1.0000
     1.0000   1.0000   1.0000   1.0000   1.0000   1.0000   1.0000   1.0000
     1.0000   1.0000   1.0000   1.0000   1.0000   1.0000   1.0000   1.0000
     1.0000   1.0000   1.0000   1.0000   1.0000   1.0000   1.0000   1.0000
     1.0000   1.0000   1.0000   1.0000   1.0000   1.0000   1.0000   1.0000
     1.0000   1.0000   1.0000   1.0000   0.0000   0.0000   0.0000   0.0000
     0.0000   0.0000   0.0000   0.0000   0.0000   0.0000   0.0000   0.0000
     0.0000   0.0000   0.0000   0.0000   0.0000   0.0000   0.0000   0.0000
     0.0000   0.0000   0.0000   0.0000   0.0000

          k = 0.3333 0.0000 0.0596 ( 26753 PWs)   bands (ev):

   -68.7543 -68.5942 -67.4713 -67.2256 -53.2152 -35.5144 -35.5064 -35.4970
   -35.3773 -35.3425 -35.3161 -34.2544 -34.2064 -34.2026 -34.0161 -34.0058
   -33.9081 -29.4602 -29.4486 -29.2533 -23.9271 -23.6326 -15.3402 -15.2760
   -15.1178 -14.9963 -14.7507 -14.7238 -14.3022 -14.2768 -13.7326 -13.7061
   -13.4730 -13.4219 -13.3565 -13.2261 -13.0820 -12.9987 -12.9800 -12.9321
   -12.6085 -12.4880 -12.2052 -12.0200 -11.5891 -11.4527  -7.4942  -7.3880
    -7.3857  -7.1571  -7.1184  -7.1162  -4.2115  -4.1530  -3.3045  -3.0236
    -2.9141  -2.6468  -2.2520  -2.1559  -1.3632  -1.2948  -1.2200  -0.9282
    -0.7865  -0.6893  -0.6682  -0.4720  -0.2560  -0.2105  -0.1124  -0.0283
     0.0891   0.1451   0.1941   0.2833   0.3206   0.3721   0.4922   0.6024
     0.7978   0.8340   0.9490   1.0116   1.0629   1.1952   1.2655   1.3405
     1.3729   1.4541   1.5231   1.7069   1.8188   1.8826   1.9265   1.9852
     2.0383   2.1328   2.1749   2.2753   2.3483   2.3652   2.4723   2.4929
     2.5376   2.5512   2.6584   2.7179   2.7645   2.8218   2.8685   2.9102
     2.9370   2.9918   3.1337   3.1539   3.2737   3.4442   3.5563   3.7370
     4.3965   4.7205   5.1230   5.4507   6.1159   6.6266   6.6733   8.1216
     8.6825   9.4668  10.2403  10.7260  11.3832  11.4570  11.4918  11.7413
    11.9966  12.0147  12.0998  12.2746  12.5565  12.6724  12.7895  12.8847
    12.9356  12.9470  13.0764  13.1275  13.3276

     occupation numbers 
     1.0000   1.0000   1.0000   1.0000   1.0000   1.0000   1.0000   1.0000
     1.0000   1.0000   1.0000   1.0000   1.0000   1.0000   1.0000   1.0000
     1.0000   1.0000   1.0000   1.0000   1.0000   1.0000   1.0000   1.0000
     1.0000   1.0000   1.0000   1.0000   1.0000   1.0000   1.0000   1.0000
     1.0000   1.0000   1.0000   1.0000   1.0000   1.0000   1.0000   1.0000
     1.0000   1.0000   1.0000   1.0000   1.0000   1.0000   1.0000   1.0000
     1.0000   1.0000   1.0000   1.0000   1.0000   1.0000   1.0000   1.0000
     1.0000   1.0000   1.0000   1.0000   1.0000   1.0000   1.0000   1.0000
     1.0000   1.0000   1.0000   1.0000   1.0000   1.0000   1.0000   1.0000
     1.0000   1.0000   1.0000   1.0000   1.0000   1.0000   1.0000   1.0000
     1.0000   1.0000   1.0000   1.0000   1.0000   1.0000   1.0000   1.0000
     1.0000   1.0000   1.0000   1.0000   1.0000   1.0000   1.0000   1.0000
     1.0000   1.0000   1.0000   1.0000   1.0000   1.0000   1.0000   1.0000
     1.0000   1.0000   1.0000   1.0000   1.0000   1.0000   1.0000   1.0000
     1.0000   1.0000   1.0000   1.0000   1.0000   1.0000   1.0000   1.0000
     1.0000   1.0000   1.0000   1.0000   0.0000   0.0000   0.0000   0.0000
     0.0000   0.0000   0.0000   0.0000   0.0000   0.0000   0.0000   0.0000
     0.0000   0.0000   0.0000   0.0000   0.0000   0.0000   0.0000   0.0000
     0.0000   0.0000   0.0000   0.0000   0.0000

          k = 0.3333 0.0000 0.2326 ( 26737 PWs)   bands (ev):

   -68.7543 -68.5942 -67.4713 -67.2256 -53.2152 -35.5144 -35.5064 -35.4970
   -35.3773 -35.3425 -35.3161 -34.2544 -34.2063 -34.2026 -34.0161 -34.0058
   -33.9082 -29.4602 -29.4486 -29.2533 -23.9271 -23.6326 -15.3287 -15.2908
   -15.1144 -14.9967 -14.7493 -14.7253 -14.2978 -14.2813 -13.7304 -13.7087
   -13.4641 -13.4355 -13.3460 -13.2317 -13.0777 -13.0043 -12.9763 -12.9344
   -12.6027 -12.4934 -12.2040 -12.0211 -11.5891 -11.4526  -7.4943  -7.3880
    -7.3857  -7.1571  -7.1184  -7.1162  -4.2131  -4.1514  -3.2999  -3.0091
    -2.9316  -2.6518  -2.2274  -2.1815  -1.3377  -1.2743  -1.2117  -0.9416
    -0.8240  -0.7246  -0.6383  -0.5012  -0.2380  -0.2265  -0.1352  -0.0122
     0.0763   0.1450   0.1737   0.3076   0.3496   0.3738   0.4961   0.6154
     0.8242   0.8540   0.9037   1.0667   1.0932   1.1678   1.2184   1.3050
     1.3536   1.5089   1.5674   1.7139   1.7725   1.9065   1.9246   2.0096
     2.0291   2.0824   2.1731   2.2609   2.3075   2.3634   2.4472   2.4925
     2.5428   2.5727   2.7165   2.7420   2.7562   2.8479   2.8654   2.8923
     2.9455   2.9955   3.1327   3.1539   3.2715   3.4167   3.5086   3.7708
     4.3975   4.7251   5.1242   5.4522   6.1155   6.6260   6.6737   8.1185
     8.6937   9.7397   9.8688  10.7685  11.3304  11.4404  11.5364  11.7556
    11.9365  11.9851  12.0667  12.4198  12.6191  12.7158  12.7442  12.8464
    12.9168  12.9832  13.0446  13.2058  13.3154

     occupation numbers 
     1.0000   1.0000   1.0000   1.0000   1.0000   1.0000   1.0000   1.0000
     1.0000   1.0000   1.0000   1.0000   1.0000   1.0000   1.0000   1.0000
     1.0000   1.0000   1.0000   1.0000   1.0000   1.0000   1.0000   1.0000
     1.0000   1.0000   1.0000   1.0000   1.0000   1.0000   1.0000   1.0000
     1.0000   1.0000   1.0000   1.0000   1.0000   1.0000   1.0000   1.0000
     1.0000   1.0000   1.0000   1.0000   1.0000   1.0000   1.0000   1.0000
     1.0000   1.0000   1.0000   1.0000   1.0000   1.0000   1.0000   1.0000
     1.0000   1.0000   1.0000   1.0000   1.0000   1.0000   1.0000   1.0000
     1.0000   1.0000   1.0000   1.0000   1.0000   1.0000   1.0000   1.0000
     1.0000   1.0000   1.0000   1.0000   1.0000   1.0000   1.0000   1.0000
     1.0000   1.0000   1.0000   1.0000   1.0000   1.0000   1.0000   1.0000
     1.0000   1.0000   1.0000   1.0000   1.0000   1.0000   1.0000   1.0000
     1.0000   1.0000   1.0000   1.0000   1.0000   1.0000   1.0000   1.0000
     1.0000   1.0000   1.0000   1.0000   1.0000   1.0000   1.0000   1.0000
[...]
     atom    6 type  5   force =     0.00000000    0.00000000    0.00000000
     atom    7 type  7   force =     0.00000000    0.00000000    0.00000000
     atom    8 type  7   force =     0.00000000    0.00000000    0.00000000
     atom    9 type  7   force =     0.00000000    0.00000000    0.00000000
     atom   10 type  7   force =     0.00000000    0.00000000    0.00000000
     atom   11 type  7   force =     0.00000000    0.00000000    0.00000000
     atom   12 type  7   force =     0.00000000    0.00000000    0.00000000
     atom   13 type  1   force =     0.00000000    0.00000000    0.00000000
     atom   14 type  1   force =     0.00000000    0.00000000    0.00000000
     atom   15 type  6   force =     0.00000000    0.00000000    0.00000000
     atom   16 type  6   force =     0.00000000    0.00000000    0.00000000
     atom   17 type  6   force =     0.00000000    0.00000000    0.00000000
     atom   18 type  6   force =     0.00000000    0.00000000    0.00000000
     atom   19 type  6   force =     0.00000000    0.00000000    0.00000000
     atom   20 type  6   force =     0.00000000    0.00000000    0.00000000
     atom   21 type  6   force =     0.00000000    0.00000000    0.00000000
     atom   22 type  6   force =     0.00000000    0.00000000    0.00000000
     atom   23 type  6   force =     0.00000000    0.00000000    0.00000000
     atom   24 type  6   force =     0.00000000    0.00000000    0.00000000
     atom   25 type  6   force =     0.00000000    0.00000000    0.00000000
     atom   26 type  6   force =     0.00000000    0.00000000    0.00000000
     atom   27 type  6   force =     0.00000000    0.00000000    0.00000000
     atom   28 type  6   force =     0.00000000    0.00000000    0.00000000
     atom   29 type  6   force =     0.00000000    0.00000000    0.00000000
     atom   30 type  6   force =     0.00000000    0.00000000    0.00000000
     atom   31 type  6   force =     0.00000000    0.00000000    0.00000000
     atom   32 type  6   force =     0.00000000    0.00000000    0.00000000
     atom   33 type  6   force =     0.00000000    0.00000000    0.00000000
     atom   34 type  6   force =     0.00000000    0.00000000    0.00000000
     atom   35 type  6   force =     0.00000000    0.00000000    0.00000000
     atom   36 type  6   force =     0.00000000    0.00000000    0.00000000
     atom   37 type  6   force =     0.00000000    0.00000000    0.00000000
     atom   38 type  6   force =     0.00000000    0.00000000    0.00000000
     atom   39 type  3   force =     0.00000000    0.00000000    0.00000000
     atom   40 type  3   force =     0.00000000    0.00000000    0.00000000
     atom   41 type  3   force =     0.00000000    0.00000000    0.00000000
     atom   42 type  3   force =     0.00000000    0.00000000    0.00000000
     atom   43 type  2   force =     0.00000000    0.00000000    0.00000000
     The SCF correction term to forces
     atom    1 type  4   force =     0.00000000   -0.00002325   -0.00000000
     atom    2 type  4   force =    -0.00000000    0.00000865    0.00000000
     atom    3 type  5   force =    -0.00000000   -0.00016359    0.00000000
     atom    4 type  5   force =    -0.00000000    0.00004323    0.00000000
     atom    5 type  5   force =     0.00000000   -0.00009772   -0.00000000
     atom    6 type  5   force =    -0.00000000   -0.00002001    0.00000000
     atom    7 type  7   force =    -0.00001711    0.00003015   -0.00005629
     atom    8 type  7   force =     0.00001711    0.00003015    0.00005629
     atom    9 type  7   force =     0.00000769   -0.00001581   -0.00005047
     atom   10 type  7   force =    -0.00000769   -0.00001581    0.00005047
     atom   11 type  7   force =     0.00000957   -0.00003740    0.00004661
     atom   12 type  7   force =    -0.00000957   -0.00003740   -0.00004661
     atom   13 type  1   force =    -0.00000778    0.00001883   -0.00004069
     atom   14 type  1   force =     0.00000778    0.00001883    0.00004069
     atom   15 type  6   force =    -0.00005937    0.00000486   -0.00026517
     atom   16 type  6   force =     0.00005938    0.00000486    0.00026516
     atom   17 type  6   force =     0.00001534    0.00004772   -0.00006800
     atom   18 type  6   force =    -0.00001534    0.00004772    0.00006800
     atom   19 type  6   force =    -0.00000894   -0.00004072    0.00006943
     atom   20 type  6   force =     0.00000894   -0.00004072   -0.00006943
     atom   21 type  6   force =    -0.00001224    0.00000015   -0.00004094
     atom   22 type  6   force =     0.00001223    0.00000015    0.00004095
     atom   23 type  6   force =    -0.00013767    0.00003505    0.00015755
     atom   24 type  6   force =     0.00013768    0.00003505   -0.00015755
     atom   25 type  6   force =     0.00002881    0.00016645    0.00020171
     atom   26 type  6   force =    -0.00002881    0.00016645   -0.00020172
     atom   27 type  6   force =    -0.00000217   -0.00003414   -0.00006738
     atom   28 type  6   force =     0.00000217   -0.00003414    0.00006738
     atom   29 type  6   force =    -0.00000795   -0.00005343    0.00004321
     atom   30 type  6   force =     0.00000795   -0.00005343   -0.00004321
     atom   31 type  6   force =     0.00000127   -0.00003021    0.00004457
     atom   32 type  6   force =    -0.00000127   -0.00003021   -0.00004457
     atom   33 type  6   force =    -0.00008229   -0.00003798   -0.00012053
     atom   34 type  6   force =     0.00008229   -0.00003798    0.00012053
     atom   35 type  6   force =     0.00001295   -0.00001026    0.00007513
     atom   36 type  6   force =    -0.00001296   -0.00001026   -0.00007513
     atom   37 type  6   force =     0.00004774    0.00001338   -0.00001369
     atom   38 type  6   force =    -0.00004774    0.00001338    0.00001368
     atom   39 type  3   force =     0.00000039   -0.00000352    0.00002816
     atom   40 type  3   force =    -0.00000039   -0.00000352   -0.00002816
     atom   41 type  3   force =     0.00000348    0.00000882   -0.00002089
     atom   42 type  3   force =    -0.00000348    0.00000882    0.00002089
     atom   43 type  2   force =    -0.00000000    0.00016097    0.00000000

     DFT-D3 dispersion contribution to forces:
     atom    1 type  4   force =     0.00000001    0.00112132   -0.00000000
     atom    2 type  4   force =     0.00000000   -0.00105032    0.00000000
     atom    3 type  5   force =    -0.00000000    0.00091894    0.00000000
     atom    4 type  5   force =    -0.00000000   -0.00093032   -0.00000000
     atom    5 type  5   force =     0.00000000   -0.00107868   -0.00000000
     atom    6 type  5   force =     0.00000000    0.00187240   -0.00000000
     atom    7 type  7   force =     0.00093406    0.00003672    0.00061028
     atom    8 type  7   force =    -0.00093406    0.00003672   -0.00061028
     atom    9 type  7   force =     0.00007306   -0.00034733    0.00046179
     atom   10 type  7   force =    -0.00007306   -0.00034733   -0.00046179
     atom   11 type  7   force =     0.00000467    0.00010918   -0.00033583
     atom   12 type  7   force =    -0.00000466    0.00010918    0.00033583
     atom   13 type  1   force =     0.00047546   -0.00027982   -0.00190407
     atom   14 type  1   force =    -0.00047546   -0.00027982    0.00190408
     atom   15 type  6   force =     0.00018590   -0.00002602    0.00040881
     atom   16 type  6   force =    -0.00018589   -0.00002602   -0.00040881
     atom   17 type  6   force =     0.00000769   -0.00012529   -0.00037167
     atom   18 type  6   force =    -0.00000769   -0.00012529    0.00037167
     atom   19 type  6   force =    -0.00000988   -0.00002580    0.00037076
     atom   20 type  6   force =     0.00000988   -0.00002580   -0.00037076
     atom   21 type  6   force =     0.00009921   -0.00003892    0.00015627
     atom   22 type  6   force =    -0.00009921   -0.00003892   -0.00015627
     atom   23 type  6   force =    -0.00018477    0.00101448    0.00044667
     atom   24 type  6   force =     0.00018478    0.00101448   -0.00044667
     atom   25 type  6   force =     0.00086313    0.00003602    0.00011963
     atom   26 type  6   force =    -0.00086313    0.00003602   -0.00011963
     atom   27 type  6   force =     0.00034912   -0.00056771    0.00003726
     atom   28 type  6   force =    -0.00034912   -0.00056772   -0.00003725
     atom   29 type  6   force =    -0.00020045    0.00030350   -0.00006811
     atom   30 type  6   force =     0.00020045    0.00030350    0.00006812
     atom   31 type  6   force =     0.00094584   -0.00039245    0.00037093
     atom   32 type  6   force =    -0.00094584   -0.00039245   -0.00037093
     atom   33 type  6   force =     0.00067923   -0.00052973   -0.00014210
     atom   34 type  6   force =    -0.00067923   -0.00052973    0.00014210
     atom   35 type  6   force =     0.00001674    0.00013781   -0.00060533
     atom   36 type  6   force =    -0.00001674    0.00013781    0.00060533
     atom   37 type  6   force =    -0.00016107   -0.00001757   -0.00048530
     atom   38 type  6   force =     0.00016107   -0.00001757    0.00048530
     atom   39 type  3   force =    -0.00003832    0.00036649   -0.00040907
     atom   40 type  3   force =     0.00003832    0.00036648    0.00040907
     atom   41 type  3   force =    -0.00020814    0.00004446    0.00019874
     atom   42 type  3   force =     0.00020814    0.00004446   -0.00019874
     atom   43 type  2   force =    -0.00000000   -0.00024937   -0.00000000

     Total force =     0.186893     Total SCF correction =     0.000768

     DFT-D3 dispersion Force =     0.005685
     Energy error            =      6.5E-02 Ry
     Gradient error          =      7.8E-02 Ry/Bohr

     number of scf cycles    =   2
     number of bfgs steps    =   1

     energy             old  =   -2344.1878477756 Ry
     energy             new  =   -2344.2526240027 Ry

     CASE: energy            _new < energy            _old

     new trust radius        =       0.2401782852 bohr
     new conv_thr            =       0.0000007777 Ry


ATOMIC_POSITIONS (crystal)
K                0.0000000000        0.4896582530        0.0000000000
K                0.5000001190        0.0073394555        0.0000000000
Mg               0.0000001800        0.0043392369        0.4999998810
Mg               0.0000001800        0.6728621987        0.4999998810
Mg               0.5000002980        0.4924686996        0.4999998810
Mg               0.5000002980        0.8453311013        0.4999998810
Si               0.0849164318        0.1645831417        0.2271243362
Si               0.9150841792        0.1645831417        0.7728754408
Si               0.9341676316        0.8344587118        0.7660673226
Si               0.0658329644        0.8344587118        0.2339324084
Si               0.5648890605        0.6678493551        0.2315477796
Si               0.4351115055        0.6678493551        0.7684519664
Al               0.4147369111        0.3288695295        0.7720371488
Al               0.5852636559        0.3288695295        0.2279626132
O                0.1116268652        0.1757323361        0.3877762855
O                0.8883737008        0.1757323361        0.6122234465
O                0.8746780810        0.8300081581        0.6091772953
O                0.1253225300        0.8300081581        0.3908224367
O                0.6253370715        0.6654631562        0.3901520566
O                0.3746635245        0.6654631562        0.6098477044
O                0.3322877339        0.3399852754        0.5983369558
O                0.6677128921        0.3399852754        0.4016627762
O                0.3399566597        0.2060662025        0.1699458546
O                0.6600438773        0.2060662025        0.8300538324
O                0.0035281232        0.9978194412        0.1726906031
O                0.9964724728        0.9978194412        0.8273091439
O                0.6882772503        0.7714545872        0.8260084411
O                0.3117233167        0.7714545872        0.1739913209
O                0.8153529357        0.7346695413        0.1734096669
O                0.1846476753        0.7346695413        0.8265901091
O                0.5029551440        0.5075765165        0.1685485910
O                0.4970453930        0.5075765165        0.8314511850
O                0.1420011315        0.2745640412        0.8359985328
O                0.8579994945        0.2745640412        0.1640011982
O                0.1284752028        0.4993715502        0.3972951251
O                0.8715254232        0.4993715502        0.6027046369
O                0.6402383124        0.9936965144        0.3984568190
O                0.3597623436        0.9936965144        0.6015429430
H                0.0997991908        0.4950276148        0.3039427883
H                0.9002014722        0.4950276148        0.6960569137
H                0.5967669574        0.0149554448        0.3063246376
H                0.4032336386        0.0149554448        0.6936751544
Ti               0.0000001800        0.3111257688        0.4999998810



     Writing config-only to output data dir ./temp/phl-ti1-ti2-v6.save/ :
     XML data file
     NEW-OLD atomic charge density approx. for the potential

     Check: negative core charge=   -0.000003
     Generating pointlists ...
     new r_m :   0.1456 (alat units)  1.4652 (a.u.) for type    2
     new r_m :   0.1517 (alat units)  1.5270 (a.u.) for type    5

     total cpu time spent up to now is    42385.7 secs

     Self-consistent Calculation

     iteration #  1     ecut=    60.00 Ry     beta= 0.70
     Davidson diagonalization with overlap

---- Real-time Memory Report at c_bands before calling an iterative solver
           906 MiB given to the printing process from OS
             0 MiB allocation reported by mallinfo(arena+hblkhd)
          1903 MiB available memory on the node where the printing process lives
------------------
     c_bands:  1 eigenvalues not converged
     c_bands:  5 eigenvalues not converged
     ethr =  1.00E-06,  avg # of iterations = 22.4

     negative rho (up, down):  1.802E-04 1.802E-04

     total cpu time spent up to now is    49160.4 secs

     total energy              =   -2344.21771775 Ry
     estimated scf accuracy    <       0.11733098 Ry

     total magnetization       =    -0.00 Bohr mag/cell
     absolute magnetization    =     0.00 Bohr mag/cell

     iteration #  2     ecut=    60.00 Ry     beta= 0.70
     Davidson diagonalization with overlap

---- Real-time Memory Report at c_bands before calling an iterative solver
           906 MiB given to the printing process from OS
             0 MiB allocation reported by mallinfo(arena+hblkhd)
          1869 MiB available memory on the node where the printing process lives
------------------
     c_bands:  1 eigenvalues not converged
     c_bands:  1 eigenvalues not converged
     c_bands:  1 eigenvalues not converged
     c_bands:  1 eigenvalues not converged
     ethr =  4.73E-05,  avg # of iterations = 10.2

     negative rho (up, down):  5.137E-05 5.140E-05

     total cpu time spent up to now is    50453.5 secs

     total energy              =   -2344.23475303 Ry
     estimated scf accuracy    <       0.34170616 Ry

     total magnetization       =    -0.00 Bohr mag/cell
     absolute magnetization    =     0.00 Bohr mag/cell

     iteration #  3     ecut=    60.00 Ry     beta= 0.70
     Davidson diagonalization with overlap

---- Real-time Memory Report at c_bands before calling an iterative solver
           906 MiB given to the printing process from OS
             0 MiB allocation reported by mallinfo(arena+hblkhd)
          1832 MiB available memory on the node where the printing process lives
------------------
     ethr =  4.73E-05,  avg # of iterations =  6.7

     total cpu time spent up to now is    51410.5 secs

     total energy              =   -2344.28652338 Ry
     estimated scf accuracy    <       0.01050410 Ry

     total magnetization       =    -0.00 Bohr mag/cell
     absolute magnetization    =     0.00 Bohr mag/cell

     iteration #  4     ecut=    60.00 Ry     beta= 0.70
     Davidson diagonalization with overlap

---- Real-time Memory Report at c_bands before calling an iterative solver
           906 MiB given to the printing process from OS
             0 MiB allocation reported by mallinfo(arena+hblkhd)
          1818 MiB available memory on the node where the printing process lives
------------------
     c_bands:  1 eigenvalues not converged
     c_bands:  1 eigenvalues not converged
     c_bands:  1 eigenvalues not converged
     c_bands:  1 eigenvalues not converged
     c_bands:  2 eigenvalues not converged
     c_bands:  1 eigenvalues not converged
     c_bands:  1 eigenvalues not converged
     c_bands:  1 eigenvalues not converged
     ethr =  4.24E-06,  avg # of iterations = 13.1

     total cpu time spent up to now is    52958.8 secs

     total energy              =   -2344.29180436 Ry
     estimated scf accuracy    <       0.00545181 Ry

     total magnetization       =     0.00 Bohr mag/cell
     absolute magnetization    =     0.00 Bohr mag/cell

     iteration #  5     ecut=    60.00 Ry     beta= 0.70
     Davidson diagonalization with overlap

---- Real-time Memory Report at c_bands before calling an iterative solver
           906 MiB given to the printing process from OS
             0 MiB allocation reported by mallinfo(arena+hblkhd)
          1828 MiB available memory on the node where the printing process lives
------------------
     c_bands:  1 eigenvalues not converged
     c_bands:  2 eigenvalues not converged
     ethr =  2.20E-06,  avg # of iterations =  2.9

     total cpu time spent up to now is    53819.9 secs

     total energy              =   -2344.29257878 Ry
     estimated scf accuracy    <       0.00054738 Ry

     total magnetization       =    -0.00 Bohr mag/cell
     absolute magnetization    =     0.00 Bohr mag/cell

     iteration #  6     ecut=    60.00 Ry     beta= 0.70
     Davidson diagonalization with overlap

---- Real-time Memory Report at c_bands before calling an iterative solver
           906 MiB given to the printing process from OS
             0 MiB allocation reported by mallinfo(arena+hblkhd)
          1792 MiB available memory on the node where the printing process lives
------------------
     c_bands:  2 eigenvalues not converged
     c_bands:  2 eigenvalues not converged
     c_bands:  1 eigenvalues not converged
     ethr =  2.21E-07,  avg # of iterations =  6.8

     total cpu time spent up to now is    55219.4 secs

     total energy              =   -2344.29300420 Ry
     estimated scf accuracy    <       0.00041505 Ry

     total magnetization       =    -0.00 Bohr mag/cell
     absolute magnetization    =     0.00 Bohr mag/cell

     iteration #  7     ecut=    60.00 Ry     beta= 0.70
     Davidson diagonalization with overlap

---- Real-time Memory Report at c_bands before calling an iterative solver
           906 MiB given to the printing process from OS
             0 MiB allocation reported by mallinfo(arena+hblkhd)
          1785 MiB available memory on the node where the printing process lives
------------------
     ethr =  1.67E-07,  avg # of iterations =  2.0

     total cpu time spent up to now is    56062.5 secs

     total energy              =   -2344.29298793 Ry
     estimated scf accuracy    <       0.00011788 Ry

     total magnetization       =     0.00 Bohr mag/cell
     absolute magnetization    =     0.00 Bohr mag/cell

     iteration #  8     ecut=    60.00 Ry     beta= 0.70
     Davidson diagonalization with overlap

---- Real-time Memory Report at c_bands before calling an iterative solver
           906 MiB given to the printing process from OS
             0 MiB allocation reported by mallinfo(arena+hblkhd)
          1765 MiB available memory on the node where the printing process lives
------------------
