
     Program PWSCF v.7.3.1 starts on 20Jan2025 at 15:16:49 

     This program is part of the open-source Quantum ESPRESSO suite
     for quantum simulation of materials; please cite
         "P. Giannozzi et al., J. Phys.:Condens. Matter 21 395502 (2009);
         "P. Giannozzi et al., J. Phys.:Condens. Matter 29 465901 (2017);
         "P. Giannozzi et al., J. Chem. Phys. 152 154105 (2020);
          URL http://www.quantum-espresso.org", 
     in publications or presentations arising from this work. More details at
     http://www.quantum-espresso.org/quote

     Parallel version (MPI), running on     6 processors

     MPI processes distributed on     1 nodes
     11626 MiB available memory on the printing compute node when the environment starts

     Reading input from vc_relax.in

     Current dimensions of program PWSCF are:
     Max number of different atomic species (ntypx) = 10
     Max number of k-points (npk) =  40000
     Max angular momentum in pseudopotentials (lmaxx) =  4
     file Al.pbe-n-kjpaw_psl.1.0.0.UPF: wavefunction(s)  3S 3P renormalized
     file Fe.pbe-spn-kjpaw_psl.1.0.0.UPF: wavefunction(s)  3P 3D renormalized
     file H.pbe-kjpaw_psl.1.0.0.UPF: wavefunction(s)  1S renormalized
     file K.pbe-spn-kjpaw_psl.1.0.0.UPF: wavefunction(s)  3S renormalized
     file Mg.pbe-spnl-kjpaw_psl.1.0.0.UPF: wavefunction(s)  2P renormalized
     file O.pbe-n-kjpaw_psl.1.0.0.UPF: wavefunction(s)  2S 2P renormalized
     file Si.pbe-n-kjpaw_psl.1.0.0.UPF: wavefunction(s)  3S 3P renormalized

     R & G space division:  proc/nbgrp/npool/nimage =       6
     Subspace diagonalization in iterative solution of the eigenvalue problem:
     one sub-group per band group will be used
     custom distributed-memory algorithm (size of sub-group:  2*  2 procs)


     Parallelization info
     --------------------
     sticks:   dense  smooth     PW     G-vecs:    dense   smooth      PW
     Min        1105     554    150                97744    34578    4918
     Max        1106     555    151                97745    34580    4920
     Sum        6633    3329    905               586467   207475   29511

     Using Slab Decomposition



     bravais-lattice index     =          -12
     lattice parameter (alat)  =      10.0136  a.u.
     unit-cell volume          =    3303.4414 (a.u.)^3
     number of atoms/cell      =           44
     number of atomic types    =            7
     number of electrons       =       262.00
     number of Kohn-Sham states=          157
     kinetic-energy cutoff     =      60.0000  Ry
     charge density cutoff     =     480.0000  Ry
     scf convergence threshold =      1.0E-06
     mixing beta               =       0.7000
     number of iterations used =            8  plain     mixing
     energy convergence thresh.=      1.0E-04
     force convergence thresh. =      1.0E-03
     press convergence thresh. =      5.0E-01
     Exchange-correlation= SLA  PW   PBX  PBC
                           (   1   4   3   4   0   0   0)
     nstep                     =           50


     celldm(1)=  10.013640  celldm(2)=   1.735306  celldm(3)=   1.926511
     celldm(4)=   0.000000  celldm(5)=  -0.177565  celldm(6)=   0.000000

     crystal axes: (cart. coord. in units of alat)
               a(1) = (   1.000000   0.000000   0.000000 )  
               a(2) = (   0.000000   1.735306   0.000000 )  
               a(3) = (  -0.342081   0.000000   1.895896 )  

     reciprocal axes: (cart. coord. in units 2 pi/alat)
               b(1) = (  1.000000 -0.000000  0.180432 )  
               b(2) = (  0.000000  0.576267 -0.000000 )  
               b(3) = (  0.000000  0.000000  0.527455 )  


     PseudoPot. # 1 for Al read from file:
     ./../../../pseudos/Al.pbe-n-kjpaw_psl.1.0.0.UPF
     MD5 check sum: 502b6b27b9c6270cab5dd1084b96fa6d
     Pseudo is Projector augmented-wave + core cor, Zval =  3.0
     Generated using &quot;atomic&quot; code by A. Dal Corso  v.6.3
     Shape of augmentation charge: PSQ
     Using radial grid of 1135 points,  6 beta functions with: 
                l(1) =   0
                l(2) =   0
                l(3) =   1
                l(4) =   1
                l(5) =   2
                l(6) =   2
     Q(r) pseudized with 0 coefficients 


     PseudoPot. # 2 for Fe read from file:
     ./../../../pseudos/Fe.pbe-spn-kjpaw_psl.1.0.0.UPF
     MD5 check sum: fc81f059e5c5069939230b1155715ae8
     Pseudo is Projector augmented-wave + core cor, Zval = 16.0
     Generated using &quot;atomic&quot; code by A. Dal Corso  v.6.3
     Shape of augmentation charge: PSQ
     Using radial grid of 1191 points,  6 beta functions with: 
                l(1) =   0
                l(2) =   0
                l(3) =   1
                l(4) =   1
                l(5) =   2
                l(6) =   2
     Q(r) pseudized with 0 coefficients 


     PseudoPot. # 3 for H  read from file:
     ./../../../pseudos/H.pbe-kjpaw_psl.1.0.0.UPF
     MD5 check sum: d81a744832360e4a8af0b0b5b123bc2a
     Pseudo is Projector augmented-wave, Zval =  1.0
     Generated using &quot;atomic&quot; code by A. Dal Corso  v.6.3MaX
     Shape of augmentation charge: PSQ
     Using radial grid of  929 points,  2 beta functions with: 
                l(1) =   0
                l(2) =   0
     Q(r) pseudized with 0 coefficients 


     PseudoPot. # 4 for K  read from file:
     ./../../../pseudos/K.pbe-spn-kjpaw_psl.1.0.0.UPF
     MD5 check sum: 34cc42130a09071ebe376fd42eb21491
     Pseudo is Projector augmented-wave + core cor, Zval =  9.0
     Generated using &quot;atomic&quot; code by A. Dal Corso  v.6.2.2
     Shape of augmentation charge: PSQ
     Using radial grid of 1165 points,  6 beta functions with: 
                l(1) =   0
                l(2) =   0
                l(3) =   1
                l(4) =   1
                l(5) =   2
                l(6) =   2
     Q(r) pseudized with 0 coefficients 


     PseudoPot. # 5 for Mg read from file:
     ./../../../pseudos/Mg.pbe-spnl-kjpaw_psl.1.0.0.UPF
     MD5 check sum: fda14e0d92a6a9a5ebed782e5a4b3067
     Pseudo is Projector augmented-wave + core cor, Zval = 10.0
     Generated using &quot;atomic&quot; code by A. Dal Corso  v.6.3
     Shape of augmentation charge: PSQ
     Using radial grid of 1129 points,  4 beta functions with: 
                l(1) =   0
                l(2) =   0
                l(3) =   1
                l(4) =   1
     Q(r) pseudized with 0 coefficients 


     PseudoPot. # 6 for O  read from file:
     ./../../../pseudos/O.pbe-n-kjpaw_psl.1.0.0.UPF
     MD5 check sum: e99d9cef9b487d1ca56f5b95ecd0fd7a
     Pseudo is Projector augmented-wave + core cor, Zval =  6.0
     Generated using &quot;atomic&quot; code by A. Dal Corso  v.6.3
     Shape of augmentation charge: PSQ
     Using radial grid of 1095 points,  4 beta functions with: 
                l(1) =   0
                l(2) =   0
                l(3) =   1
                l(4) =   1
     Q(r) pseudized with 0 coefficients 


     PseudoPot. # 7 for Si read from file:
     ./../../../pseudos/Si.pbe-n-kjpaw_psl.1.0.0.UPF
     MD5 check sum: c39c59da582df4a0d9f10159256ea34e
     Pseudo is Projector augmented-wave + core cor, Zval =  4.0
     Generated using &quot;atomic&quot; code by A. Dal Corso  v.6.3
     Shape of augmentation charge: PSQ
     Using radial grid of 1141 points,  6 beta functions with: 
                l(1) =   0
                l(2) =   0
                l(3) =   1
                l(4) =   1
                l(5) =   2
                l(6) =   2
     Q(r) pseudized with 0 coefficients 


     atomic species   valence    mass     pseudopotential
     Al                3.00    26.98154     Al( 1.00)
     Fe               16.00    55.84500     Fe( 1.00)
     H                 1.00     1.00794     H ( 1.00)
     K                 9.00    39.09830     K ( 1.00)
     Mg               10.00    24.30500     Mg( 1.00)
     O                 6.00    15.99940     O ( 1.00)
     Si                4.00    28.08550     Si( 1.00)

     Starting magnetic structure 
     atomic species   magnetization
     Al              0.000
     Fe              0.300
     H               0.000
     K               0.000
     Mg              0.000
     O               0.000
     Si              0.000

      2 Sym. Ops. (no inversion) found


                                    s                        frac. trans.

      isym =  1     identity                                     

 cryst.   s( 1) = (     1          0          0      )
                  (     0          1          0      )
                  (     0          0          1      )

 cart.    s( 1) = (  1.0000000  0.0000000 -0.0000000 )
                  (  0.0000000  1.0000000  0.0000000 )
                  (  0.0000000  0.0000000  1.0000000 )


      isym =  2     180 deg rotation - cart. axis [0,1,0]        

 cryst.   s( 2) = (    -1          0          0      )
                  (     0          1          0      )
                  (     0          0         -1      )

 cart.    s( 2) = ( -1.0000000  0.0000000  0.0000000 )
                  (  0.0000000  1.0000000  0.0000000 )
                  (  0.0000000  0.0000000 -1.0000000 )


     point group C_2  (2)   
     there are  2 classes
     the character table:

       E     C2   
A      1.00  1.00
B      1.00 -1.00

     the symmetry operations in each class and the name of the first element:

     E        1
          identity                                               
     C2       2
          180 deg rotation - cart. axis [0,1,0]                  

   Cartesian axes

     site n.     atom                  positions (alat units)
         1        K      tau(   1) = (   0.0000000   0.8557423   0.0000000  )
         2        K      tau(   2) = (   0.5000000   0.0064404   0.0000000  )
         3        Mg     tau(   3) = (  -0.1710407   0.0077025   0.9479482  )
         4        Mg     tau(   4) = (  -0.1710407   0.5726035   0.9479482  )
         5        Mg     tau(   5) = (   0.3289593   0.8548503   0.9479482  )
         6        Mg     tau(   6) = (   0.3289593   1.4489038   0.9479482  )
         7        Mg     tau(   7) = (   0.3289593   0.2984157   0.9479482  )
         8        Si     tau(   8) = (   0.0074834   0.2867109   0.4202106  )
         9        Si     tau(   9) = (   0.6504353   0.2867109   1.4756859  )
        10        Si     tau(  10) = (   0.6730964   1.4491048   1.4646485  )
        11        Si     tau(  11) = (  -0.0151777   1.4491048   0.4312479  )
        12        Si     tau(  12) = (   0.4823544   1.1562662   0.4264580  )
        13        Si     tau(  13) = (   0.1755643   1.1562662   1.4694384  )
        14        Al     tau(  14) = (   0.1500068   0.5743001   1.4722646  )
        15        Al     tau(  15) = (   0.5079119   0.5743001   0.4236318  )
        16        O      tau(  16) = (  -0.0040541   0.2828099   0.7282598  )
        17        O      tau(  17) = (   0.6619728   0.2828099   1.1676367  )
        18        O      tau(  18) = (   0.6634981   1.4520095   1.1590155  )
        19        O      tau(  19) = (  -0.0055794   1.4520095   0.7368809  )
        20        O      tau(  20) = (   0.4802881   1.1601149   0.7329838  )
        21        O      tau(  21) = (   0.1776306   1.1601149   1.1629126  )
        22        O      tau(  22) = (   0.1541044   0.5773399   1.1456050  )
        23        O      tau(  23) = (   0.5038143   0.5773399   0.7502913  )
        24        O      tau(  24) = (   0.2876625   0.3499134   0.3118985  )
        25        O      tau(  25) = (   0.3702562   0.3499134   1.5839978  )
        26        O      tau(  26) = (   0.9359917   1.7316834   0.3143192  )
        27        O      tau(  27) = (  -0.2780730   1.7316834   1.5815772  )
        28        O      tau(  28) = (   0.4028463   1.3442806   1.5808683  )
        29        O      tau(  29) = (   0.2550724   1.3442806   0.3150281  )
        30        O      tau(  30) = (   0.7550078   1.2708197   0.3189730  )
        31        O      tau(  31) = (  -0.0970891   1.2708197   1.5769234  )
        32        O      tau(  32) = (   0.4402862   0.8802735   0.3036527  )
        33        O      tau(  33) = (   0.2176325   0.8802735   1.5922438  )
        34        O      tau(  34) = (  -0.1458655   0.4821484   1.5953475  )
        35        O      tau(  35) = (   0.8037842   0.4821484   0.3005489  )
        36        O      tau(  36) = (  -0.0025240   0.8655989   0.7459654  )
        37        O      tau(  37) = (   0.6604427   0.8655989   1.1499311  )
        38        O      tau(  38) = (   0.4971433   1.7340410   0.7530460  )
        39        O      tau(  39) = (   0.1607754   1.7340410   1.1428503  )
        40        H      tau(  40) = (  -0.0145099   0.8644445   0.5639698  )
        41        H      tau(  41) = (   0.6724287   0.8644445   1.3319265  )
        42        H      tau(  42) = (   0.4906808   0.0286065   0.5732552  )
        43        H      tau(  43) = (   0.1672379   0.0286065   1.3226413  )
        44        Fe     tau(  44) = (  -0.1710407   1.1511360   0.9479482  )

     --------------------------------------------
     DFT-D3 Dispersion Correction (3-body terms):
     --------------------------------------------
       Reference C6 values for interpolation: 

         atom   Coordination number   C6
         H          0.912             6.05
         H          0.000            15.18
         O          0.000            31.01
         O          0.993            25.63
         O          1.989            20.74
         Mg         0.000          1366.75
         Mg         0.963           902.54
         Mg         1.950           351.12
         Al         0.000          1081.08
         Al         0.965           875.51
         Al         1.931           513.50
         Al         2.915           307.19
         Si         0.000           635.71
         Si         0.951           540.53
         Si         1.944           466.25
         Si         2.941           443.01
         Si         3.868           299.55
         K          0.000          9967.00
         K          0.977           676.04
         Fe         0.000           982.67
         Fe         1.648           409.99
         Fe         9.138           219.01

       Values used:

         atom   Coordination number  R0_AB[au]  C6      C8
         K         13.746            4.007    676.04 129074.98
         K         13.981            4.007    676.04 129074.98
         Mg        11.521            3.292    351.12  31436.69
         Mg        11.929            3.292    351.12  31436.69
         Mg        11.400            3.292    351.12  31436.69
         Mg        11.044            3.292    351.12  31436.69
         Mg        12.250            3.292    351.12  31436.69
         Si         6.974            3.583    299.55  21425.58
         Si         6.974            3.583    299.55  21425.58
         Si         6.361            3.583    299.55  21425.58
         Si         6.361            3.583    299.55  21425.58
         Si         6.434            3.583    299.55  21425.58
         Si         6.434            3.583    299.55  21425.58
         Al         7.852            3.789    307.19  29441.29
         Al         7.852            3.789    307.19  29441.29
         O          3.935            2.345     20.74    418.58
         O          3.935            2.345     20.74    418.58
         O          3.639            2.345     20.74    418.58
         O          3.639            2.345     20.74    418.58
         O          3.567            2.345     20.74    418.58
         O          3.567            2.345     20.74    418.58
         O          3.987            2.345     20.74    418.58
         O          3.987            2.345     20.74    418.58
         O          3.185            2.345     20.74    418.58
         O          3.185            2.345     20.74    418.58
         O          3.168            2.345     20.74    418.58
         O          3.168            2.345     20.74    418.58
         O          3.093            2.345     20.74    418.58
         O          3.093            2.345     20.74    418.58
         O          3.056            2.345     20.74    418.58
         O          3.056            2.345     20.74    418.58
         O          3.206            2.345     20.74    418.58
         O          3.206            2.345     20.74    418.58
         O          3.250            2.345     20.74    418.58
         O          3.250            2.345     20.74    418.58
         O          3.820            2.345     20.74    418.58
         O          3.820            2.345     20.74    418.58
         O          3.999            2.345     20.74    418.58
         O          3.999            2.345     20.74    418.58
         H          1.305            2.062      6.07     73.34
         H          1.305            2.062      6.07     73.34
         H          1.303            2.062      6.07     73.35
         H          1.303            2.062      6.07     73.35
         Fe         7.232            3.252    219.01  20487.87

         Molecular C6 ( Ry / a.u.^6 ) =    165304.99


   Crystallographic axes

     site n.     atom                  positions (cryst. coord.)
         1        K      tau(   1) = (  0.0000000  0.4931362  0.0000000  )
         2        K      tau(   2) = (  0.5000000  0.0037114  0.0000000  )
         3        Mg     tau(   3) = (  0.0000000  0.0044387  0.5000000  )
         4        Mg     tau(   4) = (  0.0000000  0.3299726  0.5000000  )
         5        Mg     tau(   5) = (  0.5000000  0.4926222  0.5000000  )
         6        Mg     tau(   6) = (  0.5000000  0.8349557  0.5000000  )
         7        Mg     tau(   7) = (  0.5000000  0.1719672  0.5000000  )
         8        Si     tau(   8) = (  0.0833030  0.1652221  0.2216422  )
         9        Si     tau(   9) = (  0.9166970  0.1652221  0.7783579  )
        10        Si     tau(  10) = (  0.9373665  0.8350716  0.7725362  )
        11        Si     tau(  11) = (  0.0626334  0.8350716  0.2274638  )
        12        Si     tau(  12) = (  0.5593013  0.6663183  0.2249374  )
        13        Si     tau(  13) = (  0.4406987  0.6663183  0.7750626  )
        14        Al     tau(  14) = (  0.4156511  0.3309503  0.7765533  )
        15        Al     tau(  15) = (  0.5843489  0.3309503  0.2234467  )
        16        O      tau(  16) = (  0.1273476  0.1629741  0.3841242  )
        17        O      tau(  17) = (  0.8726524  0.1629741  0.6158758  )
        18        O      tau(  18) = (  0.8726222  0.8367454  0.6113285  )
        19        O      tau(  19) = (  0.1273778  0.8367454  0.3886715  )
        20        O      tau(  20) = (  0.6125422  0.6685361  0.3866160  )
        21        O      tau(  21) = (  0.3874578  0.6685361  0.6133841  )
        22        O      tau(  22) = (  0.3608088  0.3327020  0.6042551  )
        23        O      tau(  23) = (  0.6391912  0.3327020  0.3957449  )
        24        O      tau(  24) = (  0.3439391  0.2016436  0.1645124  )
        25        O      tau(  25) = (  0.6560609  0.2016436  0.8354875  )
        26        O      tau(  26) = (  0.9927051  0.9979123  0.1657892  )
        27        O      tau(  27) = (  0.0072949  0.9979123  0.8342108  )
        28        O      tau(  28) = (  0.6880863  0.7746648  0.8338369  )
        29        O      tau(  29) = (  0.3119137  0.7746648  0.1661631  )
        30        O      tau(  30) = (  0.8125609  0.7323317  0.1682439  )
        31        O      tau(  31) = (  0.1874391  0.7323317  0.8317561  )
        32        O      tau(  32) = (  0.4950750  0.5072727  0.1601631  )
        33        O      tau(  33) = (  0.5049250  0.5072727  0.8398369  )
        34        O      tau(  34) = (  0.1419870  0.2778463  0.8414740  )
        35        O      tau(  35) = (  0.8580130  0.2778463  0.1585260  )
        36        O      tau(  36) = (  0.1320724  0.4988163  0.3934632  )
        37        O      tau(  37) = (  0.8679277  0.4988163  0.6065369  )
        38        O      tau(  38) = (  0.6330172  0.9992709  0.3971979  )
        39        O      tau(  39) = (  0.3669827  0.9992709  0.6028021  )
        40        H      tau(  40) = (  0.0872485  0.4981510  0.2974687  )
        41        H      tau(  41) = (  0.9127515  0.4981510  0.7025313  )
        42        H      tau(  42) = (  0.5941147  0.0164850  0.3023663  )
        43        H      tau(  43) = (  0.4058853  0.0164850  0.6976337  )
        44        Fe     tau(  44) = (  0.0000000  0.6633619  0.5000000  )

     number of k points=    20  Gaussian smearing, width (Ry)=  0.0010
                       cart. coord. in units 2pi/alat
        k(    1) = (   0.0000000   0.0000000   0.0000000), wk =   0.0185185
        k(    2) = (   0.0000000   0.0000000   0.1758183), wk =   0.0370370
        k(    3) = (   0.0000000   0.1920891   0.0000000), wk =   0.0370370
        k(    4) = (   0.0000000   0.1920891   0.1758183), wk =   0.0740741
        k(    5) = (   0.1666667   0.0000000   0.0300721), wk =   0.0370370
        k(    6) = (   0.1666667   0.0000000   0.2058904), wk =   0.0370370
        k(    7) = (   0.1666667   0.0000000  -0.1457462), wk =   0.0370370
        k(    8) = (   0.1666667   0.1920891   0.0300721), wk =   0.0740741
        k(    9) = (   0.1666667   0.1920891   0.2058904), wk =   0.0740741
        k(   10) = (   0.1666667   0.1920891  -0.1457462), wk =   0.0740741
        k(   11) = (   0.3333333   0.0000000   0.0601442), wk =   0.0370370
        k(   12) = (   0.3333333   0.0000000   0.2359625), wk =   0.0370370
        k(   13) = (   0.3333333   0.0000000  -0.1156742), wk =   0.0370370
        k(   14) = (   0.3333333   0.1920891   0.0601442), wk =   0.0740741
        k(   15) = (   0.3333333   0.1920891   0.2359625), wk =   0.0740741
        k(   16) = (   0.3333333   0.1920891  -0.1156742), wk =   0.0740741
        k(   17) = (  -0.5000000   0.0000000  -0.0902162), wk =   0.0185185
        k(   18) = (  -0.5000000   0.0000000   0.0856021), wk =   0.0370370
        k(   19) = (  -0.5000000   0.1920891  -0.0902162), wk =   0.0370370
        k(   20) = (  -0.5000000   0.1920891   0.0856021), wk =   0.0740741

                       cryst. coord.
        k(    1) = (   0.0000000   0.0000000   0.0000000), wk =   0.0185185
        k(    2) = (   0.0000000   0.0000000   0.3333333), wk =   0.0370370
        k(    3) = (   0.0000000   0.3333333   0.0000000), wk =   0.0370370
        k(    4) = (   0.0000000   0.3333333   0.3333333), wk =   0.0740741
        k(    5) = (   0.1666667   0.0000000  -0.0000000), wk =   0.0370370
        k(    6) = (   0.1666667   0.0000000   0.3333333), wk =   0.0370370
        k(    7) = (   0.1666667   0.0000000  -0.3333333), wk =   0.0370370
        k(    8) = (   0.1666667   0.3333333  -0.0000000), wk =   0.0740741
        k(    9) = (   0.1666667   0.3333333   0.3333333), wk =   0.0740741
        k(   10) = (   0.1666667   0.3333333  -0.3333333), wk =   0.0740741
        k(   11) = (   0.3333333   0.0000000  -0.0000000), wk =   0.0370370
        k(   12) = (   0.3333333   0.0000000   0.3333333), wk =   0.0370370
        k(   13) = (   0.3333333   0.0000000  -0.3333333), wk =   0.0370370
        k(   14) = (   0.3333333   0.3333333  -0.0000000), wk =   0.0740741
        k(   15) = (   0.3333333   0.3333333   0.3333333), wk =   0.0740741
        k(   16) = (   0.3333333   0.3333333  -0.3333333), wk =   0.0740741
        k(   17) = (  -0.5000000   0.0000000   0.0000000), wk =   0.0185185
        k(   18) = (  -0.5000000   0.0000000   0.3333333), wk =   0.0370370
        k(   19) = (  -0.5000000   0.3333333   0.0000000), wk =   0.0370370
        k(   20) = (  -0.5000000   0.3333333   0.3333333), wk =   0.0740741

     Dense  grid:   586467 G-vectors     FFT dimensions: (  72, 125, 135)

     Smooth grid:   207475 G-vectors     FFT dimensions: (  50,  90,  96)

     Dynamical RAM for                 wfc:      10.35 MB

     Dynamical RAM for     wfc (w. buffer):     424.41 MB

     Dynamical RAM for           str. fact:      10.44 MB

     Dynamical RAM for           local pot:       0.00 MB

     Dynamical RAM for          nlocal pot:      28.88 MB

     Dynamical RAM for                qrad:      24.61 MB

     Dynamical RAM for          rho,v,vnew:      18.42 MB

     Dynamical RAM for               rhoin:       6.14 MB

     Dynamical RAM for            rho*nmix:      47.73 MB

     Dynamical RAM for           G-vectors:       5.86 MB

     Dynamical RAM for          h,s,v(r/c):       1.13 MB

     Dynamical RAM for          <psi|beta>:       1.05 MB

     Dynamical RAM for                 psi:      20.70 MB

     Dynamical RAM for                hpsi:      20.70 MB

     Dynamical RAM for                spsi:      20.70 MB

     Dynamical RAM for      wfcinit/wfcrot:      24.90 MB

     Dynamical RAM for           addusdens:     314.70 MB

     Dynamical RAM for          addusforce:     383.50 MB

     Dynamical RAM for         addusstress:     302.02 MB

     Estimated static dynamical RAM per process >     540.17 MB

     Estimated max dynamical RAM per process >     971.40 MB

     Estimated total dynamical RAM >       5.69 GB

     Check: negative core charge=   -0.000004
     Generating pointlists ...
     new r_m :   0.1348 (alat units)  1.3495 (a.u.) for type    1
     new r_m :   0.1601 (alat units)  1.6037 (a.u.) for type    2
     new r_m :   0.0752 (alat units)  0.7533 (a.u.) for type    3
     new r_m :   0.2105 (alat units)  2.1076 (a.u.) for type    4
     new r_m :   0.1570 (alat units)  1.5719 (a.u.) for type    5
     new r_m :   0.0752 (alat units)  0.7533 (a.u.) for type    6
     new r_m :   0.1258 (alat units)  1.2598 (a.u.) for type    7

     Initial potential from superposition of free atoms

     starting charge     261.9493, renormalised to     262.0000
     Starting wfcs are  183 randomized atomic wfcs
     Checking if some PAW data can be deallocated... 
       PAW data deallocated on    5 nodes for type:  1
       PAW data deallocated on    5 nodes for type:  2
       PAW data deallocated on    5 nodes for type:  3
       PAW data deallocated on    5 nodes for type:  4
       PAW data deallocated on    5 nodes for type:  5
       PAW data deallocated on    1 nodes for type:  6
       PAW data deallocated on    4 nodes for type:  7

     total cpu time spent up to now is      179.4 secs

     Self-consistent Calculation

     iteration #  1     ecut=    60.00 Ry     beta= 0.70
     Davidson diagonalization with overlap

---- Real-time Memory Report at c_bands before calling an iterative solver
           613 MiB given to the printing process from OS
             0 MiB allocation reported by mallinfo(arena+hblkhd)
          8883 MiB available memory on the node where the printing process lives
------------------
     ethr =  1.00E-02,  avg # of iterations =  5.9

     total cpu time spent up to now is      695.1 secs

     total energy              =   -2623.65796340 Ry
     estimated scf accuracy    <      12.46286050 Ry

     total magnetization       =     4.00 Bohr mag/cell
     absolute magnetization    =     4.05 Bohr mag/cell

     iteration #  2     ecut=    60.00 Ry     beta= 0.70
     Davidson diagonalization with overlap

---- Real-time Memory Report at c_bands before calling an iterative solver
           902 MiB given to the printing process from OS
             0 MiB allocation reported by mallinfo(arena+hblkhd)
          7930 MiB available memory on the node where the printing process lives
------------------
     ethr =  4.76E-03,  avg # of iterations =  5.0

     total cpu time spent up to now is     1478.2 secs

     total energy              =   -2628.08253085 Ry
     estimated scf accuracy    <      14.02250159 Ry

     total magnetization       =     3.00 Bohr mag/cell
     absolute magnetization    =     3.31 Bohr mag/cell

     iteration #  3     ecut=    60.00 Ry     beta= 0.70
     Davidson diagonalization with overlap

---- Real-time Memory Report at c_bands before calling an iterative solver
           904 MiB given to the printing process from OS
             0 MiB allocation reported by mallinfo(arena+hblkhd)
          7821 MiB available memory on the node where the printing process lives
------------------
     ethr =  4.76E-03,  avg # of iterations =  2.0

     total cpu time spent up to now is     1885.7 secs

     total energy              =   -2628.04145750 Ry
     estimated scf accuracy    <      32.79188346 Ry

     total magnetization       =     0.08 Bohr mag/cell
     absolute magnetization    =     0.66 Bohr mag/cell

     iteration #  4     ecut=    60.00 Ry     beta= 0.70
     Davidson diagonalization with overlap

---- Real-time Memory Report at c_bands before calling an iterative solver
           907 MiB given to the printing process from OS
             0 MiB allocation reported by mallinfo(arena+hblkhd)
          7801 MiB available memory on the node where the printing process lives
------------------
     ethr =  4.76E-03,  avg # of iterations =  2.0

     negative rho (up, down):  0.000E+00 6.811E-06

     total cpu time spent up to now is     2289.9 secs

     total energy              =   -2630.60768065 Ry
     estimated scf accuracy    <       0.92006152 Ry

     total magnetization       =     4.00 Bohr mag/cell
     absolute magnetization    =     4.28 Bohr mag/cell

     iteration #  5     ecut=    60.00 Ry     beta= 0.70
     Davidson diagonalization with overlap

---- Real-time Memory Report at c_bands before calling an iterative solver
           909 MiB given to the printing process from OS
             0 MiB allocation reported by mallinfo(arena+hblkhd)
          7970 MiB available memory on the node where the printing process lives
------------------
     c_bands:  2 eigenvalues not converged
     ethr =  3.51E-04,  avg # of iterations = 10.5

     negative rho (up, down):  0.000E+00 1.675E-04

     total cpu time spent up to now is     3064.9 secs

     total energy              =   -2631.17671073 Ry
     estimated scf accuracy    <       0.11851529 Ry

     total magnetization       =     4.00 Bohr mag/cell
     absolute magnetization    =     4.09 Bohr mag/cell

     iteration #  6     ecut=    60.00 Ry     beta= 0.70
     Davidson diagonalization with overlap

---- Real-time Memory Report at c_bands before calling an iterative solver
           911 MiB given to the printing process from OS
             0 MiB allocation reported by mallinfo(arena+hblkhd)
          8037 MiB available memory on the node where the printing process lives
------------------
     c_bands:  2 eigenvalues not converged
     c_bands:  2 eigenvalues not converged
     c_bands:  3 eigenvalues not converged
     c_bands:  1 eigenvalues not converged
     c_bands:  1 eigenvalues not converged
     c_bands:  1 eigenvalues not converged
     c_bands:  1 eigenvalues not converged
     c_bands:  1 eigenvalues not converged
     c_bands:  2 eigenvalues not converged
     c_bands:  1 eigenvalues not converged
     c_bands:  1 eigenvalues not converged
     c_bands:  1 eigenvalues not converged
     c_bands:  2 eigenvalues not converged
     c_bands:  3 eigenvalues not converged
     c_bands:  1 eigenvalues not converged
     ethr =  4.52E-05,  avg # of iterations = 17.5

     negative rho (up, down):  0.000E+00 3.885E-04

     total cpu time spent up to now is     3909.1 secs

     total energy              =   -2631.22506811 Ry
     estimated scf accuracy    <       0.05064935 Ry

     total magnetization       =     4.00 Bohr mag/cell
     absolute magnetization    =     4.05 Bohr mag/cell

     iteration #  7     ecut=    60.00 Ry     beta= 0.70
     Davidson diagonalization with overlap

---- Real-time Memory Report at c_bands before calling an iterative solver
           913 MiB given to the printing process from OS
             0 MiB allocation reported by mallinfo(arena+hblkhd)
          7949 MiB available memory on the node where the printing process lives
------------------
     c_bands:  1 eigenvalues not converged
     c_bands:  1 eigenvalues not converged
     c_bands:  1 eigenvalues not converged
     c_bands:  1 eigenvalues not converged
     c_bands:  1 eigenvalues not converged
     c_bands:  1 eigenvalues not converged
     c_bands:  1 eigenvalues not converged
     c_bands:  1 eigenvalues not converged
     c_bands:  2 eigenvalues not converged
     c_bands:  1 eigenvalues not converged
     c_bands:  1 eigenvalues not converged
     c_bands:  1 eigenvalues not converged
     c_bands:  1 eigenvalues not converged
     ethr =  1.93E-05,  avg # of iterations = 13.7

     negative rho (up, down):  0.000E+00 4.378E-04

     total cpu time spent up to now is     4474.9 secs

     total energy              =   -2631.22962796 Ry
     estimated scf accuracy    <       0.01347464 Ry

     total magnetization       =     4.00 Bohr mag/cell
     absolute magnetization    =     4.05 Bohr mag/cell

     iteration #  8     ecut=    60.00 Ry     beta= 0.70
     Davidson diagonalization with overlap

---- Real-time Memory Report at c_bands before calling an iterative solver
           916 MiB given to the printing process from OS
             0 MiB allocation reported by mallinfo(arena+hblkhd)
          7882 MiB available memory on the node where the printing process lives
------------------
     c_bands:  2 eigenvalues not converged
     c_bands:  1 eigenvalues not converged
     c_bands:  1 eigenvalues not converged
     c_bands:  2 eigenvalues not converged
     ethr =  5.14E-06,  avg # of iterations = 10.6

     negative rho (up, down):  0.000E+00 4.556E-04

     total cpu time spent up to now is     5118.0 secs

     total energy              =   -2631.23334211 Ry
     estimated scf accuracy    <       0.00155902 Ry

     total magnetization       =     4.00 Bohr mag/cell
     absolute magnetization    =     4.04 Bohr mag/cell

     iteration #  9     ecut=    60.00 Ry     beta= 0.70
     Davidson diagonalization with overlap

---- Real-time Memory Report at c_bands before calling an iterative solver
           918 MiB given to the printing process from OS
             0 MiB allocation reported by mallinfo(arena+hblkhd)
          7895 MiB available memory on the node where the printing process lives
------------------
     ethr =  5.95E-07,  avg # of iterations =  9.8

     negative rho (up, down):  0.000E+00 4.590E-04

     total cpu time spent up to now is     5997.1 secs

     total energy              =   -2631.23471182 Ry
     estimated scf accuracy    <       0.00048407 Ry

     total magnetization       =     4.00 Bohr mag/cell
     absolute magnetization    =     4.04 Bohr mag/cell

     iteration # 10     ecut=    60.00 Ry     beta= 0.70
     Davidson diagonalization with overlap

---- Real-time Memory Report at c_bands before calling an iterative solver
           921 MiB given to the printing process from OS
             0 MiB allocation reported by mallinfo(arena+hblkhd)
          7764 MiB available memory on the node where the printing process lives
------------------
     ethr =  1.85E-07,  avg # of iterations =  5.1

     negative rho (up, down):  0.000E+00 4.589E-04

     total cpu time spent up to now is     6484.5 secs

     total energy              =   -2631.23475557 Ry
     estimated scf accuracy    <       0.00018938 Ry

     total magnetization       =     4.00 Bohr mag/cell
     absolute magnetization    =     4.04 Bohr mag/cell

     iteration # 11     ecut=    60.00 Ry     beta= 0.70
     Davidson diagonalization with overlap

---- Real-time Memory Report at c_bands before calling an iterative solver
           921 MiB given to the printing process from OS
             0 MiB allocation reported by mallinfo(arena+hblkhd)
          7990 MiB available memory on the node where the printing process lives
------------------
     ethr =  7.23E-08,  avg # of iterations =  5.4

     negative rho (up, down):  0.000E+00 4.607E-04

     total cpu time spent up to now is     7104.8 secs

     total energy              =   -2631.23482723 Ry
     estimated scf accuracy    <       0.00004949 Ry

     total magnetization       =     4.00 Bohr mag/cell
     absolute magnetization    =     4.04 Bohr mag/cell

     iteration # 12     ecut=    60.00 Ry     beta= 0.70
     Davidson diagonalization with overlap

---- Real-time Memory Report at c_bands before calling an iterative solver
           921 MiB given to the printing process from OS
             0 MiB allocation reported by mallinfo(arena+hblkhd)
          7940 MiB available memory on the node where the printing process lives
------------------
     ethr =  1.89E-08,  avg # of iterations =  4.7

     negative rho (up, down):  0.000E+00 4.610E-04

     total cpu time spent up to now is     7650.5 secs

     total energy              =   -2631.23482719 Ry
     estimated scf accuracy    <       0.00002154 Ry

     total magnetization       =     4.00 Bohr mag/cell
     absolute magnetization    =     4.04 Bohr mag/cell

     iteration # 13     ecut=    60.00 Ry     beta= 0.70
     Davidson diagonalization with overlap

---- Real-time Memory Report at c_bands before calling an iterative solver
           921 MiB given to the printing process from OS
             0 MiB allocation reported by mallinfo(arena+hblkhd)
          7722 MiB available memory on the node where the printing process lives
------------------
     ethr =  8.22E-09,  avg # of iterations =  6.5

     negative rho (up, down):  0.000E+00 4.620E-04

     total cpu time spent up to now is     8193.7 secs

     total energy              =   -2631.23483498 Ry
     estimated scf accuracy    <       0.00003270 Ry

     total magnetization       =     4.00 Bohr mag/cell
     absolute magnetization    =     4.04 Bohr mag/cell

     iteration # 14     ecut=    60.00 Ry     beta= 0.70
     Davidson diagonalization with overlap

---- Real-time Memory Report at c_bands before calling an iterative solver
           921 MiB given to the printing process from OS
             0 MiB allocation reported by mallinfo(arena+hblkhd)
          7555 MiB available memory on the node where the printing process lives
------------------
     ethr =  8.22E-09,  avg # of iterations =  5.0

     negative rho (up, down):  0.000E+00 4.620E-04

     Magnetic moment per site  (integrated on atomic sphere of radius R)
     atom   1 (R=0.210)  charge=  7.4764  magn=  0.0000
     atom   2 (R=0.210)  charge=  7.4800  magn=  0.0001
     atom   3 (R=0.157)  charge=  8.1038  magn=  0.0002
     atom   4 (R=0.157)  charge=  8.1061  magn=  0.0004
     atom   5 (R=0.157)  charge=  8.1036  magn= -0.0000
     atom   6 (R=0.157)  charge=  8.1011  magn= -0.0001
     atom   7 (R=0.157)  charge=  8.1044  magn= -0.0000
     atom   8 (R=0.126)  charge=  0.5475  magn= -0.0000
     atom   9 (R=0.126)  charge=  0.5475  magn= -0.0000
     atom  10 (R=0.126)  charge=  0.5409  magn=  0.0011
     atom  11 (R=0.126)  charge=  0.5409  magn=  0.0011
     atom  12 (R=0.126)  charge=  0.5409  magn=  0.0012
     atom  13 (R=0.126)  charge=  0.5409  magn=  0.0012
     atom  14 (R=0.135)  charge=  0.3349  magn=  0.0000
     atom  15 (R=0.135)  charge=  0.3349  magn=  0.0000
     atom  16 (R=0.075)  charge=  1.9427  magn=  0.0005
     atom  17 (R=0.075)  charge=  1.9427  magn=  0.0005
     atom  18 (R=0.075)  charge=  1.9399  magn=  0.0174
     atom  19 (R=0.075)  charge=  1.9399  magn=  0.0174
     atom  20 (R=0.075)  charge=  1.9402  magn=  0.0161
     atom  21 (R=0.075)  charge=  1.9402  magn=  0.0161
     atom  22 (R=0.075)  charge=  1.9383  magn=  0.0004
     atom  23 (R=0.075)  charge=  1.9383  magn=  0.0004
     atom  24 (R=0.075)  charge=  1.9447  magn=  0.0001
     atom  25 (R=0.075)  charge=  1.9447  magn=  0.0001
     atom  26 (R=0.075)  charge=  1.9485  magn=  0.0008
     atom  27 (R=0.075)  charge=  1.9485  magn=  0.0008
     atom  28 (R=0.075)  charge=  1.9482  magn=  0.0013
     atom  29 (R=0.075)  charge=  1.9482  magn=  0.0013
     atom  30 (R=0.075)  charge=  1.9454  magn= -0.0000
     atom  31 (R=0.075)  charge=  1.9454  magn= -0.0000
     atom  32 (R=0.075)  charge=  1.9404  magn=  0.0005
     atom  33 (R=0.075)  charge=  1.9404  magn=  0.0005
     atom  34 (R=0.075)  charge=  1.9443  magn=  0.0002
     atom  35 (R=0.075)  charge=  1.9443  magn=  0.0002
     atom  36 (R=0.075)  charge=  1.9385  magn=  0.0252
     atom  37 (R=0.075)  charge=  1.9385  magn=  0.0252
     atom  38 (R=0.075)  charge=  1.9436  magn=  0.0002
     atom  39 (R=0.075)  charge=  1.9436  magn=  0.0002
     atom  40 (R=0.075)  charge=  0.4008  magn=  0.0014
     atom  41 (R=0.075)  charge=  0.4008  magn=  0.0014
     atom  42 (R=0.075)  charge=  0.4000  magn=  0.0000
     atom  43 (R=0.075)  charge=  0.4000  magn=  0.0000
     atom  44 (R=0.160)  charge= 13.3555  magn=  3.3241

     total cpu time spent up to now is     8620.8 secs

     End of self-consistent calculation

 ------ SPIN UP ------------


          k = 0.0000 0.0000 0.0000 ( 25927 PWs)   bands (ev):

   -81.7088 -67.4423 -67.3598 -67.0148 -66.9428 -66.9403 -48.8052 -47.2780
   -47.2122 -34.2151 -34.1912 -34.1806 -34.1261 -34.1188 -34.0922 -33.7786
   -33.7661 -33.7613 -33.7201 -33.7181 -33.7004 -33.6878 -33.6796 -33.6554
   -22.9277 -22.9191 -15.0407 -14.9855 -14.0847 -14.0368 -13.5892 -13.5641
   -13.3922 -13.2388 -13.2167 -13.0904 -12.9590 -12.8201 -12.7788 -12.7367
   -12.7181 -12.6982 -12.4705 -12.3522 -12.2235 -12.2051 -12.1627 -12.0450
   -11.0315 -10.7899  -6.5078  -6.4859  -6.4252  -6.4217  -6.3988  -6.3940
    -4.2464  -4.1775  -2.3460  -2.2414  -1.8427  -1.3335  -1.0995  -1.0959
    -1.0515  -0.9587  -0.7196  -0.6164  -0.5089  -0.3211  -0.3115  -0.1541
    -0.0254   0.1176   0.2662   0.5304   0.5681   0.6459   0.6614   0.8124
     0.9005   1.1837   1.3229   1.3823   1.4242   1.5070   1.5100   1.6725
     1.8226   1.8873   1.9521   2.0446   2.1054   2.1632   2.1739   2.2637
     2.4477   2.4835   2.5466   2.5506   2.7035   2.7298   2.7740   2.8426
     2.8743   2.9612   3.0330   3.0420   3.0587   3.1993   3.3549   3.3888
     3.4513   3.4672   3.5742   3.6069   3.6210   3.6987   3.8156   3.8553
     3.8644   3.9807   3.9942   4.0709   4.1838   4.3571   4.4283   4.5099
     4.5884   4.8260   6.1534   6.4644   6.5057   9.1087  10.6160  11.2376
    11.6214  11.9054  12.1390  12.2516  12.4954  12.6023  13.0264  13.1149
    13.1536  13.2920  13.3349  13.4509  13.5979  13.6737  13.7483  13.8408
    13.8739  14.1043  14.2428  14.3299  14.3489

     occupation numbers 
     1.0000   1.0000   1.0000   1.0000   1.0000   1.0000   1.0000   1.0000
     1.0000   1.0000   1.0000   1.0000   1.0000   1.0000   1.0000   1.0000
     1.0000   1.0000   1.0000   1.0000   1.0000   1.0000   1.0000   1.0000
     1.0000   1.0000   1.0000   1.0000   1.0000   1.0000   1.0000   1.0000
     1.0000   1.0000   1.0000   1.0000   1.0000   1.0000   1.0000   1.0000
     1.0000   1.0000   1.0000   1.0000   1.0000   1.0000   1.0000   1.0000
     1.0000   1.0000   1.0000   1.0000   1.0000   1.0000   1.0000   1.0000
     1.0000   1.0000   1.0000   1.0000   1.0000   1.0000   1.0000   1.0000
     1.0000   1.0000   1.0000   1.0000   1.0000   1.0000   1.0000   1.0000
     1.0000   1.0000   1.0000   1.0000   1.0000   1.0000   1.0000   1.0000
     1.0000   1.0000   1.0000   1.0000   1.0000   1.0000   1.0000   1.0000
     1.0000   1.0000   1.0000   1.0000   1.0000   1.0000   1.0000   1.0000
     1.0000   1.0000   1.0000   1.0000   1.0000   1.0000   1.0000   1.0000
     1.0000   1.0000   1.0000   1.0000   1.0000   1.0000   1.0000   1.0000
     1.0000   1.0000   1.0000   1.0000   1.0000   1.0000   1.0000   1.0000
     1.0000   1.0000   1.0000   1.0000   1.0000   1.0000   1.0000   1.0000
     1.0000   1.0000   1.0000   1.0000   1.0000   0.0000   0.0000   0.0000
     0.0000   0.0000   0.0000   0.0000   0.0000   0.0000   0.0000   0.0000
     0.0000   0.0000   0.0000   0.0000   0.0000   0.0000   0.0000   0.0000
     0.0000   0.0000   0.0000   0.0000   0.0000

          k = 0.0000 0.0000 0.1758 ( 25971 PWs)   bands (ev):

   -81.7088 -67.4423 -67.3598 -67.0148 -66.9428 -66.9403 -48.8053 -47.2780
   -47.2122 -34.2151 -34.1912 -34.1806 -34.1262 -34.1188 -34.0922 -33.7786
   -33.7661 -33.7614 -33.7201 -33.7181 -33.7004 -33.6878 -33.6796 -33.6554
   -22.9277 -22.9191 -15.0274 -14.9998 -14.0734 -14.0488 -13.5898 -13.5634
   -13.3841 -13.2591 -13.2060 -13.0848 -12.9608 -12.8108 -12.7893 -12.7423
   -12.7098 -12.7037 -12.4596 -12.3603 -12.2303 -12.1935 -12.1601 -12.0522
   -11.0311 -10.7906  -6.5079  -6.4859  -6.4252  -6.4217  -6.3986  -6.3940
    -4.2370  -4.1875  -2.3221  -2.2702  -1.8099  -1.3221  -1.1161  -1.0725
    -1.0412  -0.9865  -0.7310  -0.5890  -0.5377  -0.3566  -0.2838  -0.2197
    -0.0158   0.1654   0.2074   0.4642   0.5697   0.6396   0.6461   0.8392
     0.9497   1.2577   1.2640   1.3959   1.4330   1.5128   1.5415   1.6810
     1.8414   1.8999   2.0465   2.1129   2.1164   2.1709   2.1859   2.2543
     2.3546   2.4938   2.5216   2.5617   2.6587   2.6973   2.7508   2.7919
     2.8572   2.9007   3.0008   3.1013   3.1435   3.2099   3.3422   3.3906
     3.4338   3.4743   3.4969   3.5989   3.7087   3.7520   3.7866   3.8447
     3.8714   3.9302   3.9595   4.0705   4.2080   4.3680   4.4281   4.5095
     4.5877   4.8277   6.1504   6.4665   6.5035   9.4219  10.1404  11.3393
    11.6531  11.7513  12.1600  12.2217  12.6763  12.7724  13.0221  13.0778
    13.1666  13.2922  13.3425  13.4578  13.5082  13.6884  13.7652  13.8010
    13.9018  14.0528  14.1440  14.3282  14.3385

     occupation numbers 
     1.0000   1.0000   1.0000   1.0000   1.0000   1.0000   1.0000   1.0000
     1.0000   1.0000   1.0000   1.0000   1.0000   1.0000   1.0000   1.0000
     1.0000   1.0000   1.0000   1.0000   1.0000   1.0000   1.0000   1.0000
     1.0000   1.0000   1.0000   1.0000   1.0000   1.0000   1.0000   1.0000
     1.0000   1.0000   1.0000   1.0000   1.0000   1.0000   1.0000   1.0000
     1.0000   1.0000   1.0000   1.0000   1.0000   1.0000   1.0000   1.0000
     1.0000   1.0000   1.0000   1.0000   1.0000   1.0000   1.0000   1.0000
     1.0000   1.0000   1.0000   1.0000   1.0000   1.0000   1.0000   1.0000
     1.0000   1.0000   1.0000   1.0000   1.0000   1.0000   1.0000   1.0000
     1.0000   1.0000   1.0000   1.0000   1.0000   1.0000   1.0000   1.0000
     1.0000   1.0000   1.0000   1.0000   1.0000   1.0000   1.0000   1.0000
     1.0000   1.0000   1.0000   1.0000   1.0000   1.0000   1.0000   1.0000
     1.0000   1.0000   1.0000   1.0000   1.0000   1.0000   1.0000   1.0000
     1.0000   1.0000   1.0000   1.0000   1.0000   1.0000   1.0000   1.0000
     1.0000   1.0000   1.0000   1.0000   1.0000   1.0000   1.0000   1.0000
     1.0000   1.0000   1.0000   1.0000   1.0000   1.0000   1.0000   1.0000
     1.0000   1.0000   1.0000   1.0000   1.0000   0.0000   0.0000   0.0000
     0.0000   0.0000   0.0000   0.0000   0.0000   0.0000   0.0000   0.0000
     0.0000   0.0000   0.0000   0.0000   0.0000   0.0000   0.0000   0.0000
     0.0000   0.0000   0.0000   0.0000   0.0000

          k = 0.0000 0.1921 0.0000 ( 25933 PWs)   bands (ev):

   -81.7088 -67.4423 -67.3598 -67.0148 -66.9428 -66.9403 -48.8053 -47.2780
   -47.2122 -34.2151 -34.1912 -34.1806 -34.1261 -34.1188 -34.0922 -33.7786
   -33.7660 -33.7614 -33.7201 -33.7181 -33.7004 -33.6878 -33.6796 -33.6554
   -22.9276 -22.9191 -15.0359 -14.9808 -14.1186 -14.0668 -13.5891 -13.5641
   -13.3292 -13.1861 -13.1367 -13.0971 -12.9695 -12.8770 -12.8590 -12.7485
   -12.7342 -12.6807 -12.4639 -12.3492 -12.2232 -12.2036 -12.1581 -12.0416
   -11.0302 -10.7893  -6.5027  -6.4914  -6.4244  -6.4186  -6.4014  -6.3951
    -4.2091  -4.1397  -2.4874  -2.3752  -1.7941  -1.3916  -1.0495  -1.0433
    -0.9190  -0.9173  -0.6827  -0.6594  -0.5829  -0.2646  -0.2436  -0.1442
    -0.0788   0.1194   0.2481   0.5182   0.5557   0.6147   0.6288   0.7808
     0.9305   1.1976   1.2233   1.3307   1.4315   1.5616   1.5751   1.6432
     1.8934   1.9223   2.0103   2.0815   2.0902   2.1706   2.2478   2.3367
     2.4264   2.4944   2.5057   2.5484   2.6680   2.6832   2.7725   2.8330
     2.9350   2.9587   3.0216   3.0249   3.1405   3.2026   3.2888   3.4360
     3.4459   3.4688   3.5200   3.5892   3.6471   3.6784   3.8240   3.8531
     3.8660   3.9629   3.9820   4.1018   4.1592   4.2407   4.3312   4.5155
     4.5720   4.8370   6.1513   6.4685   6.4727   9.5084  10.4783  10.8272
    11.4895  11.8450  12.3099  12.5612  12.5957  12.6600  12.9788  13.0276
    13.2118  13.2995  13.3315  13.4427  13.5084  13.6535  13.6735  13.7658
    13.8064  13.8664  14.3529  14.4049  14.5378

     occupation numbers 
     1.0000   1.0000   1.0000   1.0000   1.0000   1.0000   1.0000   1.0000
     1.0000   1.0000   1.0000   1.0000   1.0000   1.0000   1.0000   1.0000
     1.0000   1.0000   1.0000   1.0000   1.0000   1.0000   1.0000   1.0000
     1.0000   1.0000   1.0000   1.0000   1.0000   1.0000   1.0000   1.0000
     1.0000   1.0000   1.0000   1.0000   1.0000   1.0000   1.0000   1.0000
     1.0000   1.0000   1.0000   1.0000   1.0000   1.0000   1.0000   1.0000
     1.0000   1.0000   1.0000   1.0000   1.0000   1.0000   1.0000   1.0000
     1.0000   1.0000   1.0000   1.0000   1.0000   1.0000   1.0000   1.0000
     1.0000   1.0000   1.0000   1.0000   1.0000   1.0000   1.0000   1.0000
     1.0000   1.0000   1.0000   1.0000   1.0000   1.0000   1.0000   1.0000
     1.0000   1.0000   1.0000   1.0000   1.0000   1.0000   1.0000   1.0000
     1.0000   1.0000   1.0000   1.0000   1.0000   1.0000   1.0000   1.0000
     1.0000   1.0000   1.0000   1.0000   1.0000   1.0000   1.0000   1.0000
     1.0000   1.0000   1.0000   1.0000   1.0000   1.0000   1.0000   1.0000
     1.0000   1.0000   1.0000   1.0000   1.0000   1.0000   1.0000   1.0000
     1.0000   1.0000   1.0000   1.0000   1.0000   1.0000   1.0000   1.0000
     1.0000   1.0000   1.0000   1.0000   1.0000   0.0000   0.0000   0.0000
     0.0000   0.0000   0.0000   0.0000   0.0000   0.0000   0.0000   0.0000
     0.0000   0.0000   0.0000   0.0000   0.0000   0.0000   0.0000   0.0000
     0.0000   0.0000   0.0000   0.0000   0.0000

          k = 0.0000 0.1921 0.1758 ( 25924 PWs)   bands (ev):

   -81.7088 -67.4423 -67.3598 -67.0148 -66.9428 -66.9403 -48.8052 -47.2780
   -47.2122 -34.2152 -34.1912 -34.1806 -34.1261 -34.1188 -34.0922 -33.7786
   -33.7660 -33.7614 -33.7201 -33.7181 -33.7004 -33.6878 -33.6796 -33.6554
   -22.9276 -22.9191 -15.0226 -14.9950 -14.1061 -14.0802 -13.5898 -13.5634
   -13.3243 -13.1796 -13.1548 -13.0841 -12.9736 -12.8779 -12.8571 -12.7506
   -12.7299 -12.6868 -12.4539 -12.3570 -12.2297 -12.1930 -12.1544 -12.0488
   -11.0298 -10.7900  -6.5028  -6.4914  -6.4244  -6.4185  -6.4013  -6.3951
    -4.1976  -4.1518  -2.4618  -2.4040  -1.7654  -1.3802  -1.0479  -1.0421
    -0.9560  -0.8828  -0.6902  -0.6488  -0.6050  -0.3003  -0.2366  -0.1943
    -0.0481   0.1446   0.1737   0.4848   0.5504   0.5992   0.6371   0.7959
     0.9784   1.1373   1.2437   1.3766   1.4957   1.5644   1.6200   1.7237
     1.8330   1.9539   2.0477   2.0694   2.1410   2.1844   2.2689   2.3110
     2.3763   2.4657   2.4937   2.5563   2.6263   2.6807   2.7361   2.7760
     2.9050   2.9464   3.0086   3.0738   3.1368   3.2333   3.3160   3.3823
     3.4466   3.4645   3.5311   3.5822   3.6705   3.7089   3.8045   3.8360
     3.8649   3.9499   3.9663   4.1081   4.1436   4.2501   4.3555   4.5236
     4.5706   4.8392   6.1477   6.4683   6.4709   9.7774  10.4120  10.6733
    11.1809  11.8353  12.2887  12.5897  12.7302  12.8693  13.0322  13.0990
    13.1709  13.3107  13.3997  13.4645  13.5411  13.6131  13.6355  13.7258
    13.8104  13.9794  14.2662  14.3469  14.4607

     occupation numbers 
     1.0000   1.0000   1.0000   1.0000   1.0000   1.0000   1.0000   1.0000
     1.0000   1.0000   1.0000   1.0000   1.0000   1.0000   1.0000   1.0000
     1.0000   1.0000   1.0000   1.0000   1.0000   1.0000   1.0000   1.0000
     1.0000   1.0000   1.0000   1.0000   1.0000   1.0000   1.0000   1.0000
     1.0000   1.0000   1.0000   1.0000   1.0000   1.0000   1.0000   1.0000
     1.0000   1.0000   1.0000   1.0000   1.0000   1.0000   1.0000   1.0000
     1.0000   1.0000   1.0000   1.0000   1.0000   1.0000   1.0000   1.0000
     1.0000   1.0000   1.0000   1.0000   1.0000   1.0000   1.0000   1.0000
     1.0000   1.0000   1.0000   1.0000   1.0000   1.0000   1.0000   1.0000
     1.0000   1.0000   1.0000   1.0000   1.0000   1.0000   1.0000   1.0000
     1.0000   1.0000   1.0000   1.0000   1.0000   1.0000   1.0000   1.0000
     1.0000   1.0000   1.0000   1.0000   1.0000   1.0000   1.0000   1.0000
     1.0000   1.0000   1.0000   1.0000   1.0000   1.0000   1.0000   1.0000
     1.0000   1.0000   1.0000   1.0000   1.0000   1.0000   1.0000   1.0000
     1.0000   1.0000   1.0000   1.0000   1.0000   1.0000   1.0000   1.0000
     1.0000   1.0000   1.0000   1.0000   1.0000   1.0000   1.0000   1.0000
     1.0000   1.0000   1.0000   1.0000   1.0000   0.0000   0.0000   0.0000
     0.0000   0.0000   0.0000   0.0000   0.0000   0.0000   0.0000   0.0000
     0.0000   0.0000   0.0000   0.0000   0.0000   0.0000   0.0000   0.0000
     0.0000   0.0000   0.0000   0.0000   0.0000

          k = 0.1667 0.0000 0.0301 ( 25941 PWs)   bands (ev):

   -81.7088 -67.4423 -67.3598 -67.0148 -66.9427 -66.9405 -48.8052 -47.2780
   -47.2122 -34.2150 -34.1914 -34.1805 -34.1260 -34.1189 -34.0922 -33.7784
   -33.7663 -33.7613 -33.7223 -33.7148 -33.7012 -33.6873 -33.6798 -33.6559
   -22.9275 -22.9189 -14.9823 -14.9283 -14.1057 -14.0603 -13.6992 -13.6668
   -13.3380 -13.1786 -13.1565 -13.0721 -12.9661 -12.8205 -12.7745 -12.7565
   -12.7202 -12.6907 -12.4813 -12.3736 -12.2898 -12.2391 -12.1470 -12.0318
   -11.0282 -10.7948  -6.5078  -6.4901  -6.4236  -6.4197  -6.3991  -6.3904
    -4.0867  -4.0180  -2.3196  -2.2124  -1.8241  -1.3947  -1.3797  -1.2783
    -0.8404  -0.7770  -0.7363  -0.5882  -0.5504  -0.3076  -0.2638  -0.1610
    -0.0592   0.1706   0.2334   0.4976   0.5400   0.6148   0.6929   0.7422
     1.0499   1.1769   1.2910   1.3662   1.3863   1.4367   1.5514   1.6689
     1.7838   1.8704   1.9681   1.9877   2.1047   2.1377   2.2274   2.3592
     2.4156   2.4613   2.5335   2.5582   2.6815   2.6858   2.7221   2.8680
     2.9058   2.9323   3.0219   3.0939   3.1260   3.2197   3.2696   3.3348
     3.3992   3.4542   3.5614   3.6047   3.6788   3.6895   3.7892   3.8213
     3.8566   3.9210   3.9801   4.0363   4.1586   4.3560   4.4111   4.4670
     4.5438   4.8547   6.1283   6.4621   6.5054   9.4322  10.7900  11.3159
    11.7448  11.9507  12.1763  12.3935  12.5579  12.6240  12.9604  13.0565
    13.1529  13.2633  13.2857  13.5103  13.5682  13.6559  13.7111  13.7980
    13.8703  14.1163  14.1813  14.3089  14.3961

     occupation numbers 
     1.0000   1.0000   1.0000   1.0000   1.0000   1.0000   1.0000   1.0000
     1.0000   1.0000   1.0000   1.0000   1.0000   1.0000   1.0000   1.0000
     1.0000   1.0000   1.0000   1.0000   1.0000   1.0000   1.0000   1.0000
     1.0000   1.0000   1.0000   1.0000   1.0000   1.0000   1.0000   1.0000
     1.0000   1.0000   1.0000   1.0000   1.0000   1.0000   1.0000   1.0000
     1.0000   1.0000   1.0000   1.0000   1.0000   1.0000   1.0000   1.0000
     1.0000   1.0000   1.0000   1.0000   1.0000   1.0000   1.0000   1.0000
     1.0000   1.0000   1.0000   1.0000   1.0000   1.0000   1.0000   1.0000
     1.0000   1.0000   1.0000   1.0000   1.0000   1.0000   1.0000   1.0000
     1.0000   1.0000   1.0000   1.0000   1.0000   1.0000   1.0000   1.0000
     1.0000   1.0000   1.0000   1.0000   1.0000   1.0000   1.0000   1.0000
     1.0000   1.0000   1.0000   1.0000   1.0000   1.0000   1.0000   1.0000
     1.0000   1.0000   1.0000   1.0000   1.0000   1.0000   1.0000   1.0000
     1.0000   1.0000   1.0000   1.0000   1.0000   1.0000   1.0000   1.0000
     1.0000   1.0000   1.0000   1.0000   1.0000   1.0000   1.0000   1.0000
     1.0000   1.0000   1.0000   1.0000   1.0000   1.0000   1.0000   1.0000
     1.0000   1.0000   1.0000   1.0000   1.0000   0.0000   0.0000   0.0000
     0.0000   0.0000   0.0000   0.0000   0.0000   0.0000   0.0000   0.0000
     0.0000   0.0000   0.0000   0.0000   0.0000   0.0000   0.0000   0.0000
     0.0000   0.0000   0.0000   0.0000   0.0000

          k = 0.1667 0.0000 0.2059 ( 25961 PWs)   bands (ev):

   -81.7088 -67.4423 -67.3598 -67.0148 -66.9427 -66.9405 -48.8052 -47.2780
   -47.2122 -34.2150 -34.1914 -34.1805 -34.1260 -34.1189 -34.0923 -33.7784
   -33.7664 -33.7613 -33.7223 -33.7148 -33.7012 -33.6873 -33.6799 -33.6559
   -22.9275 -22.9189 -14.9657 -14.9460 -14.0957 -14.0709 -13.6955 -13.6707
   -13.3311 -13.1939 -13.1497 -13.0651 -12.9682 -12.8078 -12.7903 -12.7549
   -12.7291 -12.6848 -12.4693 -12.3842 -12.2831 -12.2453 -12.1368 -12.0409
   -11.0277 -10.7956  -6.5079  -6.4900  -6.4235  -6.4197  -6.3990  -6.3904
    -4.0828  -4.0223  -2.2986  -2.2391  -1.7884  -1.4274  -1.3646  -1.2538
    -0.8377  -0.7896  -0.7389  -0.6143  -0.5141  -0.3263  -0.2557  -0.2390
    -0.0275   0.1716   0.2179   0.4335   0.5001   0.6070   0.6953   0.7813
     1.0915   1.1976   1.2894   1.3450   1.4014   1.5203   1.5360   1.6694
     1.8230   1.9061   1.9757   2.0102   2.1333   2.1742   2.2231   2.3678
     2.4076   2.4617   2.5159   2.5612   2.6076   2.6291   2.7228   2.8140
     2.8530   2.9432   3.0001   3.1323   3.1520   3.2396   3.2595   3.3626
     3.3915   3.4485   3.4773   3.6139   3.7181   3.7568   3.7857   3.8415
     3.8426   3.8779   3.9128   4.0342   4.1991   4.3495   4.4176   4.4736
     4.5535   4.8546   6.1255   6.4624   6.5033   9.8019  10.2492  11.4073
    11.7617  11.8228  12.2256  12.3159  12.5306  12.8380  12.9544  13.1433
    13.1908  13.3317  13.3484  13.4063  13.5461  13.6546  13.7088  13.8032
    13.9071  13.9524  14.1479  14.3230  14.3966

     occupation numbers 
     1.0000   1.0000   1.0000   1.0000   1.0000   1.0000   1.0000   1.0000
     1.0000   1.0000   1.0000   1.0000   1.0000   1.0000   1.0000   1.0000
     1.0000   1.0000   1.0000   1.0000   1.0000   1.0000   1.0000   1.0000
     1.0000   1.0000   1.0000   1.0000   1.0000   1.0000   1.0000   1.0000
     1.0000   1.0000   1.0000   1.0000   1.0000   1.0000   1.0000   1.0000
     1.0000   1.0000   1.0000   1.0000   1.0000   1.0000   1.0000   1.0000
     1.0000   1.0000   1.0000   1.0000   1.0000   1.0000   1.0000   1.0000
     1.0000   1.0000   1.0000   1.0000   1.0000   1.0000   1.0000   1.0000
     1.0000   1.0000   1.0000   1.0000   1.0000   1.0000   1.0000   1.0000
     1.0000   1.0000   1.0000   1.0000   1.0000   1.0000   1.0000   1.0000
     1.0000   1.0000   1.0000   1.0000   1.0000   1.0000   1.0000   1.0000
     1.0000   1.0000   1.0000   1.0000   1.0000   1.0000   1.0000   1.0000
     1.0000   1.0000   1.0000   1.0000   1.0000   1.0000   1.0000   1.0000
     1.0000   1.0000   1.0000   1.0000   1.0000   1.0000   1.0000   1.0000
     1.0000   1.0000   1.0000   1.0000   1.0000   1.0000   1.0000   1.0000
     1.0000   1.0000   1.0000   1.0000   1.0000   1.0000   1.0000   1.0000
     1.0000   1.0000   1.0000   1.0000   1.0000   0.0000   0.0000   0.0000
     0.0000   0.0000   0.0000   0.0000   0.0000   0.0000   0.0000   0.0000
     0.0000   0.0000   0.0000   0.0000   0.0000   0.0000   0.0000   0.0000
     0.0000   0.0000   0.0000   0.0000   0.0000

          k = 0.1667 0.0000-0.1457 ( 25956 PWs)   bands (ev):

   -81.7088 -67.4423 -67.3598 -67.0148 -66.9427 -66.9405 -48.8053 -47.2780
   -47.2122 -34.2150 -34.1914 -34.1805 -34.1260 -34.1189 -34.0922 -33.7784
   -33.7664 -33.7613 -33.7223 -33.7148 -33.7012 -33.6873 -33.6798 -33.6559
   -22.9275 -22.9189 -14.9728 -14.9385 -14.0969 -14.0697 -13.6946 -13.6715
   -13.3332 -13.1849 -13.1588 -13.0639 -12.9690 -12.8143 -12.7805 -12.7531
   -12.7270 -12.6918 -12.4687 -12.3843 -12.2712 -12.2587 -12.1361 -12.0397
   -11.0276 -10.7956  -6.5080  -6.4901  -6.4235  -6.4197  -6.3990  -6.3904
    -4.0694  -4.0360  -2.2951  -2.2406  -1.8021  -1.4275  -1.3583  -1.2610
    -0.8217  -0.7950  -0.7443  -0.5870  -0.5405  -0.3065  -0.2912  -0.2063
    -0.0557   0.1854   0.2208   0.4519   0.5488   0.6188   0.6962   0.7683
     1.0532   1.1924   1.2676   1.3348   1.4374   1.4896   1.5638   1.6556
     1.8332   1.8609   1.9406   2.0353   2.0802   2.1379   2.2664   2.3255
     2.3886   2.4636   2.5132   2.5519   2.6455   2.6965   2.7628   2.8328
     2.8645   2.9847   3.0343   3.0595   3.1409   3.2425   3.2896   3.3834
     3.3862   3.4616   3.5157   3.6169   3.6537   3.7345   3.7568   3.8046
     3.8327   3.8971   3.9431   4.0181   4.2261   4.3437   4.4231   4.4591
     4.5504   4.8565   6.1281   6.4611   6.5042   9.6195  10.4825  11.4363
    11.7861  11.8411  12.2595  12.2946  12.5887  12.7905  12.9235  13.0614
    13.1871  13.2599  13.3313  13.4400  13.5465  13.5584  13.6683  13.7948
    13.8881  14.1202  14.1970  14.2754  14.4244

     occupation numbers 
     1.0000   1.0000   1.0000   1.0000   1.0000   1.0000   1.0000   1.0000
     1.0000   1.0000   1.0000   1.0000   1.0000   1.0000   1.0000   1.0000
     1.0000   1.0000   1.0000   1.0000   1.0000   1.0000   1.0000   1.0000
     1.0000   1.0000   1.0000   1.0000   1.0000   1.0000   1.0000   1.0000
     1.0000   1.0000   1.0000   1.0000   1.0000   1.0000   1.0000   1.0000
     1.0000   1.0000   1.0000   1.0000   1.0000   1.0000   1.0000   1.0000
     1.0000   1.0000   1.0000   1.0000   1.0000   1.0000   1.0000   1.0000
     1.0000   1.0000   1.0000   1.0000   1.0000   1.0000   1.0000   1.0000
     1.0000   1.0000   1.0000   1.0000   1.0000   1.0000   1.0000   1.0000
     1.0000   1.0000   1.0000   1.0000   1.0000   1.0000   1.0000   1.0000
     1.0000   1.0000   1.0000   1.0000   1.0000   1.0000   1.0000   1.0000
     1.0000   1.0000   1.0000   1.0000   1.0000   1.0000   1.0000   1.0000
     1.0000   1.0000   1.0000   1.0000   1.0000   1.0000   1.0000   1.0000
     1.0000   1.0000   1.0000   1.0000   1.0000   1.0000   1.0000   1.0000
     1.0000   1.0000   1.0000   1.0000   1.0000   1.0000   1.0000   1.0000
     1.0000   1.0000   1.0000   1.0000   1.0000   1.0000   1.0000   1.0000
     1.0000   1.0000   1.0000   1.0000   1.0000   0.0000   0.0000   0.0000
     0.0000   0.0000   0.0000   0.0000   0.0000   0.0000   0.0000   0.0000
     0.0000   0.0000   0.0000   0.0000   0.0000   0.0000   0.0000   0.0000
     0.0000   0.0000   0.0000   0.0000   0.0000

          k = 0.1667 0.1921 0.0301 ( 25937 PWs)   bands (ev):

   -81.7088 -67.4423 -67.3598 -67.0148 -66.9427 -66.9405 -48.8052 -47.2780
   -47.2122 -34.2150 -34.1914 -34.1805 -34.1260 -34.1188 -34.0922 -33.7784
   -33.7663 -33.7613 -33.7223 -33.7148 -33.7012 -33.6873 -33.6799 -33.6559
   -22.9275 -22.9190 -14.9777 -14.9238 -14.1350 -14.0860 -13.6877 -13.6585
   -13.2981 -13.1597 -13.0907 -13.0587 -12.9638 -12.8750 -12.8443 -12.7621
   -12.7319 -12.6865 -12.4770 -12.3643 -12.2844 -12.2416 -12.1443 -12.0301
   -11.0272 -10.7944  -6.5038  -6.4946  -6.4233  -6.4171  -6.4011  -6.3910
    -4.0523  -3.9832  -2.4733  -2.3614  -1.7607  -1.3785  -1.2589  -1.2158
    -0.8640  -0.7875  -0.6936  -0.6377  -0.5290  -0.2569  -0.2296  -0.1278
    -0.0580   0.1334   0.2169   0.4778   0.5215   0.6074   0.6675   0.7191
     1.0436   1.1371   1.2806   1.3318   1.3807   1.4727   1.5850   1.6704
     1.7471   1.9197   1.9461   2.0055   2.1027   2.2201   2.3073   2.3381
     2.4037   2.4669   2.5377   2.5752   2.6523   2.7102   2.8053   2.8525
     2.8838   2.9518   3.0101   3.0755   3.1754   3.2174   3.2467   3.3810
     3.4105   3.4658   3.5130   3.6013   3.6267   3.6661   3.7775   3.8103
     3.8343   3.9023   3.9871   4.0548   4.1258   4.2797   4.3356   4.5023
     4.5424   4.8704   6.1257   6.4650   6.4760   9.7811  10.6615  10.9813
    11.5824  11.9097  12.2860  12.5926  12.6575  12.6917  12.9617  13.0098
    13.1737  13.2876  13.3137  13.4559  13.5069  13.6007  13.7118  13.7539
    13.9101  13.9584  14.2799  14.4213  14.5210

     occupation numbers 
     1.0000   1.0000   1.0000   1.0000   1.0000   1.0000   1.0000   1.0000
     1.0000   1.0000   1.0000   1.0000   1.0000   1.0000   1.0000   1.0000
     1.0000   1.0000   1.0000   1.0000   1.0000   1.0000   1.0000   1.0000
     1.0000   1.0000   1.0000   1.0000   1.0000   1.0000   1.0000   1.0000
     1.0000   1.0000   1.0000   1.0000   1.0000   1.0000   1.0000   1.0000
     1.0000   1.0000   1.0000   1.0000   1.0000   1.0000   1.0000   1.0000
     1.0000   1.0000   1.0000   1.0000   1.0000   1.0000   1.0000   1.0000
     1.0000   1.0000   1.0000   1.0000   1.0000   1.0000   1.0000   1.0000
     1.0000   1.0000   1.0000   1.0000   1.0000   1.0000   1.0000   1.0000
     1.0000   1.0000   1.0000   1.0000   1.0000   1.0000   1.0000   1.0000
     1.0000   1.0000   1.0000   1.0000   1.0000   1.0000   1.0000   1.0000
     1.0000   1.0000   1.0000   1.0000   1.0000   1.0000   1.0000   1.0000
     1.0000   1.0000   1.0000   1.0000   1.0000   1.0000   1.0000   1.0000
     1.0000   1.0000   1.0000   1.0000   1.0000   1.0000   1.0000   1.0000
     1.0000   1.0000   1.0000   1.0000   1.0000   1.0000   1.0000   1.0000
     1.0000   1.0000   1.0000   1.0000   1.0000   1.0000   1.0000   1.0000
     1.0000   1.0000   1.0000   1.0000   1.0000   0.0000   0.0000   0.0000
     0.0000   0.0000   0.0000   0.0000   0.0000   0.0000   0.0000   0.0000
     0.0000   0.0000   0.0000   0.0000   0.0000   0.0000   0.0000   0.0000
     0.0000   0.0000   0.0000   0.0000   0.0000

          k = 0.1667 0.1921 0.2059 ( 25944 PWs)   bands (ev):

   -81.7088 -67.4423 -67.3598 -67.0148 -66.9427 -66.9405 -48.8052 -47.2780
   -47.2122 -34.2150 -34.1914 -34.1805 -34.1260 -34.1189 -34.0922 -33.7784
   -33.7663 -33.7613 -33.7223 -33.7148 -33.7012 -33.6873 -33.6799 -33.6559
   -22.9275 -22.9190 -14.9611 -14.9414 -14.1223 -14.0996 -13.6857 -13.6607
   -13.2935 -13.1547 -13.1081 -13.0426 -12.9679 -12.8822 -12.8374 -12.7606
   -12.7345 -12.6900 -12.4664 -12.3740 -12.2808 -12.2446 -12.1342 -12.0390
   -11.0268 -10.7952  -6.5039  -6.4946  -6.4232  -6.4171  -6.4010  -6.3910
    -4.0457  -3.9903  -2.4463  -2.3921  -1.7320  -1.3670  -1.2841  -1.1922
    -0.8813  -0.7753  -0.6878  -0.6507  -0.5185  -0.3197  -0.2059  -0.1628
    -0.0306   0.1161   0.2007   0.4405   0.4801   0.6086   0.6699   0.7327
     1.0766   1.1170   1.2739   1.3556   1.4318   1.5289   1.6168   1.7015
     1.8242   1.8591   1.9212   2.0338   2.1651   2.2239   2.2541   2.3623
     2.4293   2.4596   2.5244   2.5573   2.6146   2.6774   2.7316   2.7998
     2.8943   2.9366   3.0322   3.0830   3.1517   3.2066   3.3044   3.3826
     3.4244   3.4440   3.4988   3.5866   3.6333   3.6932   3.7805   3.8100
     3.8432   3.8983   3.9366   4.0611   4.1425   4.2793   4.3475   4.5099
     4.5516   4.8703   6.1224   6.4645   6.4738  10.0960  10.5137  10.8740
    11.2605  11.8871  12.2602  12.5972  12.7283  12.8558  13.0131  13.1079
    13.2282  13.3123  13.3864  13.4339  13.5233  13.6398  13.6994  13.7662
    13.8064  14.0057  14.1820  14.3143  14.5096

     occupation numbers 
     1.0000   1.0000   1.0000   1.0000   1.0000   1.0000   1.0000   1.0000
     1.0000   1.0000   1.0000   1.0000   1.0000   1.0000   1.0000   1.0000
     1.0000   1.0000   1.0000   1.0000   1.0000   1.0000   1.0000   1.0000
     1.0000   1.0000   1.0000   1.0000   1.0000   1.0000   1.0000   1.0000
     1.0000   1.0000   1.0000   1.0000   1.0000   1.0000   1.0000   1.0000
     1.0000   1.0000   1.0000   1.0000   1.0000   1.0000   1.0000   1.0000
     1.0000   1.0000   1.0000   1.0000   1.0000   1.0000   1.0000   1.0000
     1.0000   1.0000   1.0000   1.0000   1.0000   1.0000   1.0000   1.0000
     1.0000   1.0000   1.0000   1.0000   1.0000   1.0000   1.0000   1.0000
     1.0000   1.0000   1.0000   1.0000   1.0000   1.0000   1.0000   1.0000
     1.0000   1.0000   1.0000   1.0000   1.0000   1.0000   1.0000   1.0000
     1.0000   1.0000   1.0000   1.0000   1.0000   1.0000   1.0000   1.0000
     1.0000   1.0000   1.0000   1.0000   1.0000   1.0000   1.0000   1.0000
     1.0000   1.0000   1.0000   1.0000   1.0000   1.0000   1.0000   1.0000
     1.0000   1.0000   1.0000   1.0000   1.0000   1.0000   1.0000   1.0000
     1.0000   1.0000   1.0000   1.0000   1.0000   1.0000   1.0000   1.0000
     1.0000   1.0000   1.0000   1.0000   1.0000   0.0000   0.0000   0.0000
     0.0000   0.0000   0.0000   0.0000   0.0000   0.0000   0.0000   0.0000
     0.0000   0.0000   0.0000   0.0000   0.0000   0.0000   0.0000   0.0000
     0.0000   0.0000   0.0000   0.0000   0.0000

          k = 0.1667 0.1921-0.1457 ( 25923 PWs)   bands (ev):

   -81.7088 -67.4423 -67.3598 -67.0148 -66.9427 -66.9405 -48.8052 -47.2780
   -47.2122 -34.2150 -34.1914 -34.1805 -34.1260 -34.1188 -34.0922 -33.7784
   -33.7663 -33.7613 -33.7223 -33.7148 -33.7012 -33.6873 -33.6799 -33.6559
   -22.9275 -22.9190 -14.9683 -14.9340 -14.1252 -14.0967 -13.6836 -13.6628
   -13.2947 -13.1563 -13.1031 -13.0468 -12.9686 -12.8699 -12.8501 -12.7601
   -12.7309 -12.6923 -12.4651 -12.3740 -12.2706 -12.2569 -12.1335 -12.0381
   -11.0266 -10.7952  -6.5039  -6.4947  -6.4233  -6.4171  -6.4010  -6.3910
    -4.0340  -4.0023  -2.4477  -2.3900  -1.7425  -1.3702  -1.2840  -1.1925
    -0.8627  -0.7863  -0.6703  -0.6412  -0.5607  -0.2780  -0.2204  -0.1555
    -0.0602   0.1424   0.1784   0.4737   0.5274   0.6328   0.6543   0.7246
     1.0396   1.1093   1.2677   1.3554   1.4129   1.5371   1.6053   1.7006
     1.7461   1.8752   1.9425   2.0555   2.1168   2.2072   2.2710   2.3388
     2.3999   2.4769   2.5219   2.5724   2.6277   2.7109   2.7703   2.8047
     2.9055   2.9867   3.0351   3.0602   3.1501   3.2118   3.3015   3.3851
     3.4232   3.4493   3.5312   3.5782   3.6631   3.6947   3.7448   3.7838
     3.8233   3.8927   3.9222   4.0435   4.1868   4.2719   4.3405   4.5027
     4.5451   4.8723   6.1254   6.4621   6.4738   9.9540  10.7067  10.8093
    11.3676  11.9520  12.3037  12.5792  12.6716  12.8311  12.9602  13.0558
    13.1788  13.2692  13.4149  13.4387  13.5346  13.6147  13.6787  13.7919
    13.8494  13.9376  14.1205  14.3644  14.4823

     occupation numbers 
     1.0000   1.0000   1.0000   1.0000   1.0000   1.0000   1.0000   1.0000
     1.0000   1.0000   1.0000   1.0000   1.0000   1.0000   1.0000   1.0000
     1.0000   1.0000   1.0000   1.0000   1.0000   1.0000   1.0000   1.0000
     1.0000   1.0000   1.0000   1.0000   1.0000   1.0000   1.0000   1.0000
     1.0000   1.0000   1.0000   1.0000   1.0000   1.0000   1.0000   1.0000
     1.0000   1.0000   1.0000   1.0000   1.0000   1.0000   1.0000   1.0000
     1.0000   1.0000   1.0000   1.0000   1.0000   1.0000   1.0000   1.0000
     1.0000   1.0000   1.0000   1.0000   1.0000   1.0000   1.0000   1.0000
     1.0000   1.0000   1.0000   1.0000   1.0000   1.0000   1.0000   1.0000
     1.0000   1.0000   1.0000   1.0000   1.0000   1.0000   1.0000   1.0000
     1.0000   1.0000   1.0000   1.0000   1.0000   1.0000   1.0000   1.0000
     1.0000   1.0000   1.0000   1.0000   1.0000   1.0000   1.0000   1.0000
     1.0000   1.0000   1.0000   1.0000   1.0000   1.0000   1.0000   1.0000
     1.0000   1.0000   1.0000   1.0000   1.0000   1.0000   1.0000   1.0000
     1.0000   1.0000   1.0000   1.0000   1.0000   1.0000   1.0000   1.0000
     1.0000   1.0000   1.0000   1.0000   1.0000   1.0000   1.0000   1.0000
     1.0000   1.0000   1.0000   1.0000   1.0000   0.0000   0.0000   0.0000
     0.0000   0.0000   0.0000   0.0000   0.0000   0.0000   0.0000   0.0000
     0.0000   0.0000   0.0000   0.0000   0.0000   0.0000   0.0000   0.0000
     0.0000   0.0000   0.0000   0.0000   0.0000

          k = 0.3333 0.0000 0.0601 ( 25907 PWs)   bands (ev):

   -81.7088 -67.4423 -67.3598 -67.0147 -66.9423 -66.9409 -48.8052 -47.2780
   -47.2122 -34.2147 -34.1918 -34.1803 -34.1257 -34.1190 -34.0923 -33.7780
   -33.7670 -33.7613 -33.7236 -33.7110 -33.7031 -33.6860 -33.6807 -33.6568
   -22.9271 -22.9187 -14.8219 -14.7716 -14.2355 -14.1950 -13.8110 -13.7741
   -13.2518 -13.0911 -13.0618 -13.0213 -12.9620 -12.8556 -12.7982 -12.7740
   -12.7401 -12.6741 -12.5238 -12.4412 -12.3662 -12.2921 -12.1311 -12.0226
   -11.0225 -10.8051  -6.5083  -6.4984  -6.4200  -6.4156  -6.4003  -6.3828
    -3.6710  -3.5977  -2.4717  -2.3504  -1.7771  -1.6045  -1.4343  -1.2158
    -0.8651  -0.8036  -0.6571  -0.5992  -0.4458  -0.2515  -0.2201  -0.1639
    -0.1179   0.1417   0.3001   0.4641   0.5502   0.6261   0.6548   0.7324
     1.0402   1.1082   1.2371   1.3129   1.4113   1.4936   1.5822   1.6425
     1.7032   1.7161   1.8283   1.9646   2.0056   2.1868   2.2788   2.3440
     2.4390   2.4819   2.5318   2.5608   2.7283   2.7356   2.7855   2.8436
     2.9012   2.9695   3.0280   3.0956   3.1461   3.1679   3.2073   3.2759
     3.3829   3.4409   3.4510   3.5952   3.6400   3.6448   3.7336   3.7799
     3.8070   3.8699   3.9728   4.0393   4.0978   4.3342   4.3587   4.4259
     4.5234   4.9030   6.0776   6.4635   6.5048  10.2046  11.1990  11.4518
    11.9505  12.0409  12.2189  12.2986  12.6215  12.7169  12.7660  12.9557
    13.1145  13.1858  13.4178  13.5049  13.5492  13.6110  13.7292  13.9286
    14.0328  14.1487  14.1884  14.3043  14.4558

     occupation numbers 
     1.0000   1.0000   1.0000   1.0000   1.0000   1.0000   1.0000   1.0000
     1.0000   1.0000   1.0000   1.0000   1.0000   1.0000   1.0000   1.0000
     1.0000   1.0000   1.0000   1.0000   1.0000   1.0000   1.0000   1.0000
     1.0000   1.0000   1.0000   1.0000   1.0000   1.0000   1.0000   1.0000
     1.0000   1.0000   1.0000   1.0000   1.0000   1.0000   1.0000   1.0000
     1.0000   1.0000   1.0000   1.0000   1.0000   1.0000   1.0000   1.0000
     1.0000   1.0000   1.0000   1.0000   1.0000   1.0000   1.0000   1.0000
     1.0000   1.0000   1.0000   1.0000   1.0000   1.0000   1.0000   1.0000
     1.0000   1.0000   1.0000   1.0000   1.0000   1.0000   1.0000   1.0000
     1.0000   1.0000   1.0000   1.0000   1.0000   1.0000   1.0000   1.0000
     1.0000   1.0000   1.0000   1.0000   1.0000   1.0000   1.0000   1.0000
     1.0000   1.0000   1.0000   1.0000   1.0000   1.0000   1.0000   1.0000
     1.0000   1.0000   1.0000   1.0000   1.0000   1.0000   1.0000   1.0000
     1.0000   1.0000   1.0000   1.0000   1.0000   1.0000   1.0000   1.0000
     1.0000   1.0000   1.0000   1.0000   1.0000   1.0000   1.0000   1.0000
     1.0000   1.0000   1.0000   1.0000   1.0000   1.0000   1.0000   1.0000
     1.0000   1.0000   1.0000   1.0000   1.0000   0.0000   0.0000   0.0000
     0.0000   0.0000   0.0000   0.0000   0.0000   0.0000   0.0000   0.0000
     0.0000   0.0000   0.0000   0.0000   0.0000   0.0000   0.0000   0.0000
     0.0000   0.0000   0.0000   0.0000   0.0000

          k = 0.3333 0.0000 0.2360 ( 25948 PWs)   bands (ev):

   -81.7088 -67.4423 -67.3598 -67.0147 -66.9423 -66.9409 -48.8052 -47.2780
   -47.2122 -34.2147 -34.1919 -34.1804 -34.1258 -34.1190 -34.0923 -33.7780
   -33.7670 -33.7613 -33.7236 -33.7111 -33.7031 -33.6860 -33.6807 -33.6568
   -22.9271 -22.9187 -14.8039 -14.7906 -14.2327 -14.1978 -13.8048 -13.7807
   -13.2475 -13.0984 -13.0536 -13.0224 -12.9657 -12.8445 -12.8003 -12.7843
   -12.7435 -12.6722 -12.5113 -12.4548 -12.3478 -12.3067 -12.1203 -12.0323
   -11.0217 -10.8061  -6.5085  -6.4983  -6.4199  -6.4156  -6.4002  -6.3828
    -3.6703  -3.5986  -2.4443  -2.3821  -1.7491  -1.6425  -1.4072  -1.2019
    -0.8731  -0.8068  -0.6545  -0.6015  -0.4053  -0.2745  -0.2340  -0.1977
    -0.1031   0.0920   0.3138   0.4421   0.5385   0.5999   0.6789   0.7506
     1.0762   1.1191   1.2208   1.3182   1.3703   1.5233   1.6129   1.6388
     1.7187   1.7662   1.7929   1.9947   2.0709   2.1395   2.2383   2.3828
     2.4265   2.4905   2.5084   2.5585   2.7047   2.7199   2.7554   2.8293
     2.9156   2.9736   3.0300   3.0647   3.1452   3.1698   3.2165   3.3142
     3.4323   3.4407   3.4569   3.5951   3.6147   3.6471   3.7187   3.7625
     3.8067   3.8609   3.9307   3.9817   4.1911   4.3148   4.3859   4.4279
     4.5294   4.9008   6.0774   6.4626   6.5035  10.5362  10.7346  11.5126
    11.9334  12.0573  12.1896  12.3482  12.6058  12.6322  12.7968  12.9001
    13.1892  13.2752  13.4289  13.4443  13.5362  13.6179  13.8261  13.9405
    13.9538  14.0126  14.0803  14.4829  14.5937

     occupation numbers 
     1.0000   1.0000   1.0000   1.0000   1.0000   1.0000   1.0000   1.0000
     1.0000   1.0000   1.0000   1.0000   1.0000   1.0000   1.0000   1.0000
     1.0000   1.0000   1.0000   1.0000   1.0000   1.0000   1.0000   1.0000
     1.0000   1.0000   1.0000   1.0000   1.0000   1.0000   1.0000   1.0000
     1.0000   1.0000   1.0000   1.0000   1.0000   1.0000   1.0000   1.0000
     1.0000   1.0000   1.0000   1.0000   1.0000   1.0000   1.0000   1.0000
     1.0000   1.0000   1.0000   1.0000   1.0000   1.0000   1.0000   1.0000
     1.0000   1.0000   1.0000   1.0000   1.0000   1.0000   1.0000   1.0000
     1.0000   1.0000   1.0000   1.0000   1.0000   1.0000   1.0000   1.0000
     1.0000   1.0000   1.0000   1.0000   1.0000   1.0000   1.0000   1.0000
     1.0000   1.0000   1.0000   1.0000   1.0000   1.0000   1.0000   1.0000
     1.0000   1.0000   1.0000   1.0000   1.0000   1.0000   1.0000   1.0000
     1.0000   1.0000   1.0000   1.0000   1.0000   1.0000   1.0000   1.0000
     1.0000   1.0000   1.0000   1.0000   1.0000   1.0000   1.0000   1.0000
     1.0000   1.0000   1.0000   1.0000   1.0000   1.0000   1.0000   1.0000
     1.0000   1.0000   1.0000   1.0000   1.0000   1.0000   1.0000   1.0000
     1.0000   1.0000   1.0000   1.0000   1.0000   0.0000   0.0000   0.0000
     0.0000   0.0000   0.0000   0.0000   0.0000   0.0000   0.0000   0.0000
     0.0000   0.0000   0.0000   0.0000   0.0000   0.0000   0.0000   0.0000
     0.0000   0.0000   0.0000   0.0000   0.0000

          k = 0.3333 0.0000-0.1157 ( 25913 PWs)   bands (ev):

   -81.7088 -67.4423 -67.3598 -67.0147 -66.9423 -66.9409 -48.8052 -47.2780
   -47.2122 -34.2147 -34.1918 -34.1803 -34.1257 -34.1190 -34.0923 -33.7780
   -33.7670 -33.7613 -33.7236 -33.7111 -33.7031 -33.6860 -33.6807 -33.6568
   -22.9271 -22.9187 -14.8163 -14.7778 -14.2272 -14.2036 -13.8063 -13.7791
   -13.2497 -13.0957 -13.0610 -13.0092 -12.9741 -12.8532 -12.7916 -12.7771
   -12.7404 -12.6812 -12.5110 -12.4549 -12.3476 -12.3073 -12.1213 -12.0307
   -11.0216 -10.8060  -6.5085  -6.4985  -6.4199  -6.4156  -6.4002  -6.3828
    -3.6403  -3.6294  -2.4594  -2.3656  -1.7612  -1.6251  -1.4219  -1.2132
    -0.8643  -0.7886  -0.6491  -0.6008  -0.4496  -0.2455  -0.2158  -0.2021
    -0.1407   0.1191   0.3447   0.4288   0.5726   0.6389   0.6551   0.7337
     1.0744   1.0947   1.2134   1.3548   1.3925   1.4767   1.5872   1.6455
     1.6925   1.7243   1.8533   1.9485   1.9723   2.1709   2.3051   2.3438
     2.4022   2.4605   2.5260   2.5951   2.7206   2.7888   2.7931   2.8270
     2.9337   2.9570   3.0261   3.0718   3.1402   3.1517   3.2363   3.3490
     3.3974   3.4471   3.4884   3.5941   3.6150   3.6461   3.6818   3.7337
     3.7919   3.8659   3.9255   3.9985   4.1747   4.3374   4.3760   4.4193
     4.5270   4.9018   6.0796   6.4639   6.5044  10.2597  11.0775  11.5753
    11.8452  12.1067  12.2620  12.3861  12.5884  12.6699  12.7851  12.9294
    13.0680  13.2387  13.3123  13.5174  13.5465  13.5619  13.6415  13.9146
    14.0221  14.0988  14.1942  14.3649  14.4938

     occupation numbers 
     1.0000   1.0000   1.0000   1.0000   1.0000   1.0000   1.0000   1.0000
     1.0000   1.0000   1.0000   1.0000   1.0000   1.0000   1.0000   1.0000
     1.0000   1.0000   1.0000   1.0000   1.0000   1.0000   1.0000   1.0000
     1.0000   1.0000   1.0000   1.0000   1.0000   1.0000   1.0000   1.0000
     1.0000   1.0000   1.0000   1.0000   1.0000   1.0000   1.0000   1.0000
     1.0000   1.0000   1.0000   1.0000   1.0000   1.0000   1.0000   1.0000
     1.0000   1.0000   1.0000   1.0000   1.0000   1.0000   1.0000   1.0000
     1.0000   1.0000   1.0000   1.0000   1.0000   1.0000   1.0000   1.0000
     1.0000   1.0000   1.0000   1.0000   1.0000   1.0000   1.0000   1.0000
     1.0000   1.0000   1.0000   1.0000   1.0000   1.0000   1.0000   1.0000
     1.0000   1.0000   1.0000   1.0000   1.0000   1.0000   1.0000   1.0000
     1.0000   1.0000   1.0000   1.0000   1.0000   1.0000   1.0000   1.0000
     1.0000   1.0000   1.0000   1.0000   1.0000   1.0000   1.0000   1.0000
[...]
     atom   11 type  7   force =     0.00006847    0.00381420    0.01331226
     atom   12 type  7   force =    -0.00179609   -0.01230070    0.01156475
     atom   13 type  7   force =     0.00179609   -0.01230070   -0.01156475
     atom   14 type  1   force =    -0.00066126   -0.00198889   -0.00992561
     atom   15 type  1   force =     0.00066128   -0.00198889    0.00992555
     atom   16 type  6   force =    -0.00012076    0.00013938    0.00649902
     atom   17 type  6   force =     0.00012076    0.00013938   -0.00649902
     atom   18 type  6   force =    -0.00076327    0.00080424   -0.00672857
     atom   19 type  6   force =     0.00076329    0.00080424    0.00672857
     atom   20 type  6   force =    -0.00082479   -0.00015289    0.00662483
     atom   21 type  6   force =     0.00082479   -0.00015289   -0.00662483
     atom   22 type  6   force =     0.00009902    0.00007076   -0.00320617
     atom   23 type  6   force =    -0.00009903    0.00007076    0.00320616
     atom   24 type  6   force =     0.00457799   -0.00174712   -0.00577829
     atom   25 type  6   force =    -0.00457799   -0.00174712    0.00577826
     atom   26 type  6   force =    -0.00331182    0.00088961   -0.00718488
     atom   27 type  6   force =     0.00331184    0.00088961    0.00718484
     atom   28 type  6   force =    -0.00142630    0.00194878    0.00750853
     atom   29 type  6   force =     0.00142630    0.00194878   -0.00750854
     atom   30 type  6   force =     0.00070462   -0.00190647   -0.00727116
     atom   31 type  6   force =    -0.00070462   -0.00190646    0.00727118
     atom   32 type  6   force =    -0.00207490   -0.00356721   -0.00662098
     atom   33 type  6   force =     0.00207490   -0.00356721    0.00662099
     atom   34 type  6   force =     0.00114713    0.00411725    0.00639824
     atom   35 type  6   force =    -0.00114713    0.00411726   -0.00639822
     atom   36 type  6   force =     0.00196931   -0.00070502    0.01096898
     atom   37 type  6   force =    -0.00196930   -0.00070502   -0.01096901
     atom   38 type  6   force =    -0.00002181   -0.00130779    0.01113943
     atom   39 type  6   force =     0.00002180   -0.00130778   -0.01113940
     atom   40 type  3   force =     0.00000000    0.00000000    0.00000000
     atom   41 type  3   force =     0.00000000    0.00000000    0.00000000
     atom   42 type  3   force =     0.00000000    0.00000000    0.00000000
     atom   43 type  3   force =     0.00000000    0.00000000    0.00000000
     atom   44 type  2   force =     0.00000000   -0.00452396   -0.00000000
     The Hubbard contrib.    to forces
     atom    1 type  4   force =     0.00000000    0.00000000    0.00000000
     atom    2 type  4   force =     0.00000000    0.00000000    0.00000000
     atom    3 type  5   force =     0.00000000    0.00000000    0.00000000
     atom    4 type  5   force =     0.00000000    0.00000000    0.00000000
     atom    5 type  5   force =     0.00000000    0.00000000    0.00000000
     atom    6 type  5   force =     0.00000000    0.00000000    0.00000000
     atom    7 type  5   force =     0.00000000    0.00000000    0.00000000
     atom    8 type  7   force =     0.00000000    0.00000000    0.00000000
     atom    9 type  7   force =     0.00000000    0.00000000    0.00000000
     atom   10 type  7   force =     0.00000000    0.00000000    0.00000000
     atom   11 type  7   force =     0.00000000    0.00000000    0.00000000
     atom   12 type  7   force =     0.00000000    0.00000000    0.00000000
     atom   13 type  7   force =     0.00000000    0.00000000    0.00000000
     atom   14 type  1   force =     0.00000000    0.00000000    0.00000000
     atom   15 type  1   force =     0.00000000    0.00000000    0.00000000
     atom   16 type  6   force =     0.00000000    0.00000000    0.00000000
     atom   17 type  6   force =     0.00000000    0.00000000    0.00000000
     atom   18 type  6   force =     0.00000000    0.00000000    0.00000000
     atom   19 type  6   force =     0.00000000    0.00000000    0.00000000
     atom   20 type  6   force =     0.00000000    0.00000000    0.00000000
     atom   21 type  6   force =     0.00000000    0.00000000    0.00000000
     atom   22 type  6   force =     0.00000000    0.00000000    0.00000000
     atom   23 type  6   force =     0.00000000    0.00000000    0.00000000
     atom   24 type  6   force =     0.00000000    0.00000000    0.00000000
     atom   25 type  6   force =     0.00000000    0.00000000    0.00000000
     atom   26 type  6   force =     0.00000000    0.00000000    0.00000000
     atom   27 type  6   force =     0.00000000    0.00000000    0.00000000
     atom   28 type  6   force =     0.00000000    0.00000000    0.00000000
     atom   29 type  6   force =     0.00000000    0.00000000    0.00000000
     atom   30 type  6   force =     0.00000000    0.00000000    0.00000000
     atom   31 type  6   force =     0.00000000    0.00000000    0.00000000
     atom   32 type  6   force =     0.00000000    0.00000000    0.00000000
     atom   33 type  6   force =     0.00000000    0.00000000    0.00000000
     atom   34 type  6   force =     0.00000000    0.00000000    0.00000000
     atom   35 type  6   force =     0.00000000    0.00000000    0.00000000
     atom   36 type  6   force =     0.00000000    0.00000000    0.00000000
     atom   37 type  6   force =     0.00000000    0.00000000    0.00000000
     atom   38 type  6   force =     0.00000000    0.00000000    0.00000000
     atom   39 type  6   force =     0.00000000    0.00000000    0.00000000
     atom   40 type  3   force =     0.00000000    0.00000000    0.00000000
     atom   41 type  3   force =     0.00000000    0.00000000    0.00000000
     atom   42 type  3   force =     0.00000000    0.00000000    0.00000000
     atom   43 type  3   force =     0.00000000    0.00000000    0.00000000
     atom   44 type  2   force =     0.00000000    0.00000000    0.00000000
     The SCF correction term to forces
     atom    1 type  4   force =    -0.00000000   -0.00000877    0.00000000
     atom    2 type  4   force =     0.00000000    0.00000816   -0.00000000
     atom    3 type  5   force =    -0.00000000    0.00001424   -0.00000000
     atom    4 type  5   force =    -0.00000000   -0.00003528   -0.00000000
     atom    5 type  5   force =     0.00000000   -0.00002949    0.00000000
     atom    6 type  5   force =    -0.00000000    0.00003446    0.00000000
     atom    7 type  5   force =     0.00000000   -0.00000172   -0.00000000
     atom    8 type  7   force =     0.00000072    0.00000520    0.00000467
     atom    9 type  7   force =    -0.00000072    0.00000520   -0.00000467
     atom   10 type  7   force =    -0.00000051    0.00000533   -0.00000505
     atom   11 type  7   force =     0.00000051    0.00000533    0.00000505
     atom   12 type  7   force =    -0.00000137   -0.00000563   -0.00000160
     atom   13 type  7   force =     0.00000137   -0.00000563    0.00000160
     atom   14 type  1   force =    -0.00000025   -0.00000294   -0.00000330
     atom   15 type  1   force =     0.00000025   -0.00000294    0.00000330
     atom   16 type  6   force =    -0.00000167    0.00000339    0.00000050
     atom   17 type  6   force =     0.00000167    0.00000339   -0.00000050
     atom   18 type  6   force =     0.00000109    0.00001404    0.00001101
     atom   19 type  6   force =    -0.00000109    0.00001404   -0.00001101
     atom   20 type  6   force =    -0.00000348    0.00000461   -0.00002650
     atom   21 type  6   force =     0.00000348    0.00000461    0.00002650
     atom   22 type  6   force =    -0.00000192   -0.00001990    0.00000000
     atom   23 type  6   force =     0.00000192   -0.00001990   -0.00000000
     atom   24 type  6   force =     0.00000299    0.00000021   -0.00000303
     atom   25 type  6   force =    -0.00000299    0.00000021    0.00000303
     atom   26 type  6   force =     0.00000014   -0.00000104    0.00000250
     atom   27 type  6   force =    -0.00000014   -0.00000104   -0.00000250
     atom   28 type  6   force =     0.00000261    0.00000464    0.00000003
     atom   29 type  6   force =    -0.00000261    0.00000464   -0.00000003
     atom   30 type  6   force =     0.00000074    0.00000667   -0.00000019
     atom   31 type  6   force =    -0.00000074    0.00000667    0.00000019
     atom   32 type  6   force =     0.00000175   -0.00000731   -0.00001044
     atom   33 type  6   force =    -0.00000175   -0.00000731    0.00001044
     atom   34 type  6   force =     0.00000146   -0.00000053    0.00000490
     atom   35 type  6   force =    -0.00000146   -0.00000053   -0.00000490
     atom   36 type  6   force =     0.00000026   -0.00001927   -0.00001010
     atom   37 type  6   force =    -0.00000026   -0.00001927    0.00001010
     atom   38 type  6   force =     0.00000018    0.00001619   -0.00000778
     atom   39 type  6   force =    -0.00000018    0.00001619    0.00000778
     atom   40 type  3   force =     0.00000007   -0.00000184   -0.00000060
     atom   41 type  3   force =    -0.00000007   -0.00000184    0.00000060
     atom   42 type  3   force =     0.00000012    0.00000073    0.00000595
     atom   43 type  3   force =    -0.00000012    0.00000073   -0.00000595
     atom   44 type  2   force =     0.00000000    0.00003500   -0.00000000

     DFT-D3 dispersion contribution to forces:
     atom    1 type  4   force =    -0.00000000    0.00101898   -0.00000000
     atom    2 type  4   force =     0.00000000   -0.00082019   -0.00000000
     atom    3 type  5   force =     0.00000000    0.00023351   -0.00000000
     atom    4 type  5   force =     0.00000000    0.00071226   -0.00000000
     atom    5 type  5   force =    -0.00000000   -0.00053080    0.00000000
     atom    6 type  5   force =    -0.00000000    0.00106839    0.00000000
     atom    7 type  5   force =    -0.00000000   -0.00018407    0.00000000
     atom    8 type  7   force =     0.00006757   -0.00006761   -0.00029601
     atom    9 type  7   force =    -0.00006757   -0.00006761    0.00029601
     atom   10 type  7   force =     0.00015943   -0.00001289    0.00006118
     atom   11 type  7   force =    -0.00015943   -0.00001289   -0.00006118
     atom   12 type  7   force =     0.00010169    0.00015454   -0.00008864
     atom   13 type  7   force =    -0.00010169    0.00015454    0.00008864
     atom   14 type  1   force =     0.00012547    0.00002256   -0.00085590
     atom   15 type  1   force =    -0.00012546    0.00002256    0.00085590
     atom   16 type  6   force =    -0.00001465    0.00005902    0.00045785
     atom   17 type  6   force =     0.00001465    0.00005902   -0.00045785
     atom   18 type  6   force =     0.00004465   -0.00001352   -0.00047334
     atom   19 type  6   force =    -0.00004465   -0.00001352    0.00047334
     atom   20 type  6   force =     0.00008694   -0.00004220    0.00045115
     atom   21 type  6   force =    -0.00008694   -0.00004220   -0.00045115
     atom   22 type  6   force =    -0.00000276   -0.00006269    0.00008637
     atom   23 type  6   force =     0.00000276   -0.00006269   -0.00008637
     atom   24 type  6   force =    -0.00018538    0.00100694    0.00030487
     atom   25 type  6   force =     0.00018538    0.00100694   -0.00030487
     atom   26 type  6   force =     0.00087034    0.00009122    0.00019395
     atom   27 type  6   force =    -0.00087034    0.00009122   -0.00019395
     atom   28 type  6   force =     0.00031930   -0.00046266    0.00002748
     atom   29 type  6   force =    -0.00031930   -0.00046266   -0.00002748
     atom   30 type  6   force =    -0.00015498    0.00023538   -0.00009062
     atom   31 type  6   force =     0.00015498    0.00023538    0.00009062
     atom   32 type  6   force =     0.00093975   -0.00045295    0.00041992
     atom   33 type  6   force =    -0.00093975   -0.00045295   -0.00041992
     atom   34 type  6   force =     0.00067194   -0.00055051   -0.00044271
     atom   35 type  6   force =    -0.00067194   -0.00055051    0.00044271
     atom   36 type  6   force =    -0.00007063    0.00000510   -0.00041149
     atom   37 type  6   force =     0.00007063    0.00000510    0.00041149
     atom   38 type  6   force =     0.00000334    0.00005651   -0.00052750
     atom   39 type  6   force =    -0.00000334    0.00005651    0.00052750
     atom   40 type  3   force =     0.00015241    0.00013850   -0.00010664
     atom   41 type  3   force =    -0.00015241    0.00013850    0.00010664
     atom   42 type  3   force =     0.00001582   -0.00036007   -0.00031342
     atom   43 type  3   force =    -0.00001582   -0.00036007    0.00031342
     atom   44 type  2   force =     0.00000000   -0.00098741   -0.00000000

     Total force =     0.002612     Total SCF correction =     0.000102

     DFT-D3 dispersion Force =     0.004298


     Computing stress (Cartesian axis) and pressure


     negative rho (up, down):  0.000E+00 3.861E-04
          total   stress  (Ry/bohr**3)                   (kbar)     P=       -0.69
  -0.00000314   0.00000000   0.00000032           -0.46        0.00        0.05
   0.00000000  -0.00000414   0.00000000            0.00       -0.61        0.00
   0.00000032   0.00000000  -0.00000690            0.05        0.00       -1.01

     kinetic stress (kbar)  20093.80      0.00     36.72
                                0.00  20123.53      0.00
                               36.72      0.00  19744.08

     local   stress (kbar) -40403.33      0.00    -60.88
                                0.00 -40113.85      0.00
                              -60.88      0.00  19068.98

     nonloc. stress (kbar)   3788.82      0.00     -6.46
                                0.00   3791.00      0.00
                               -6.46      0.00   3780.96

     hartree stress (kbar)  22791.82     -0.00     18.96
                               -0.00  22632.18      0.00
                               18.96      0.00  -6308.39

     exc-cor stress (kbar)  -2815.64      0.00      0.41
                                0.00  -2815.46     -0.00
                                0.41     -0.00  -2812.67

     corecor stress (kbar)  -1854.67     -0.00     -0.19
                               -0.00  -1855.02     -0.00
                               -0.19     -0.00  -1855.93

     ewald   stress (kbar)  -1586.62     -0.00     11.42
                               -0.00  -1748.22     -0.00
                               11.42     -0.00 -31607.09

     hubbard stress (kbar)      0.00      0.00      0.00
                                0.00      0.00      0.00
                                0.00      0.00      0.00

     DFT-D   stress (kbar)    -14.63      0.00      0.06
                                0.00    -14.77     -0.00
                                0.06     -0.00    -10.94

     XDM     stress (kbar)      0.00      0.00      0.00
                                0.00      0.00      0.00
                                0.00      0.00      0.00

     dft-nl  stress (kbar)      0.00      0.00      0.00
                                0.00      0.00      0.00
                                0.00      0.00      0.00

     TS-vdW  stress (kbar)      0.00      0.00      0.00
                                0.00      0.00      0.00
                                0.00      0.00      0.00

     MDB     stress (kbar)      0.00      0.00      0.00
                                0.00      0.00      0.00
                                0.00      0.00      0.00

     3D-RISM stress (kbar)      0.00      0.00      0.00
                                0.00      0.00      0.00
                                0.00      0.00      0.00


     Writing all to output data dir ./temp/phl-fe1-fe3.save/ :
     XML data file, charge density, pseudopotentials, collected wavefunctions

     init_run     :    334.95s CPU    337.88s WALL (       2 calls)
     electrons    : 117073.09s CPU 117902.33s WALL (      20 calls)
     update_pot   :     53.31s CPU     53.77s WALL (      18 calls)
     forces       :   2469.01s CPU   2480.37s WALL (      20 calls)
     force_dftd3  :     81.31s CPU     81.44s WALL (      20 calls)
     stress       :   8374.93s CPU   8440.40s WALL (      20 calls)
     stres_dftd3  :     81.36s CPU     81.51s WALL (      20 calls)

     Called by init_run:
     wfcinit      :    319.04s CPU    320.92s WALL (       2 calls)
     wfcinit:atom :      0.58s CPU      0.58s WALL (      80 calls)
     wfcinit:wfcr :    313.90s CPU    315.77s WALL (      80 calls)
     potinit      :      6.52s CPU      6.59s WALL (       2 calls)
     hinit0       :      1.97s CPU      2.03s WALL (       2 calls)

     Called by electrons:
     c_bands      : 108447.89s CPU 109049.13s WALL (     171 calls)
     sum_band     :   7527.44s CPU   7679.94s WALL (     171 calls)
     v_of_rho     :     69.59s CPU     72.33s WALL (     183 calls)
     v_h          :      2.23s CPU      2.36s WALL (     183 calls)
     v_xc         :     82.48s CPU     85.47s WALL (     223 calls)
     newd         :    633.50s CPU    714.38s WALL (     183 calls)
     PAW_pot      :    485.92s CPU    485.99s WALL (     201 calls)
     mix_rho      :      8.74s CPU      9.13s WALL (     171 calls)
     energy_dftd3 :     62.71s CPU     62.72s WALL (      20 calls)

     Called by c_bands:
     init_us_2    :    261.01s CPU    261.24s WALL (   16080 calls)
     cegterg      : 107952.14s CPU 108551.89s WALL (    6881 calls)

     Called by sum_band:
     sum_band:wei :      0.13s CPU      0.13s WALL (     171 calls)
     sum_band:loo :   6360.96s CPU   6424.19s WALL (     171 calls)
     sum_band:buf :     29.63s CPU     29.71s WALL (    6840 calls)
     sum_band:ini :    112.68s CPU    112.73s WALL (    6840 calls)
     sum_band:cal :   5102.89s CPU   5105.97s WALL (    7560 calls)
     sum_band:bec :     12.95s CPU     13.00s WALL (    7560 calls)
     addusdens    :   1148.41s CPU   1237.03s WALL (     171 calls)
                                        0.00s GPU  (     171 calls)
     addusd:skk   :      3.99s CPU      6.27s WALL (    1197 calls)
                                        0.00s GPU  (    1197 calls)

     Called by *egterg:
     cdiaghg      :   3824.94s CPU   3864.67s WALL (   53473 calls)
     cegterg:over :  14330.73s CPU  14334.74s WALL (   47673 calls)
     cegterg:upda :   8649.36s CPU   8684.53s WALL (   47673 calls)
     cegterg:last :  23009.00s CPU  23019.21s WALL (   21261 calls)
     cdiaghg:chol :     86.99s CPU     87.18s WALL (   53473 calls)
     cdiaghg:inve :     86.41s CPU     86.52s WALL (   53473 calls)
     cdiaghg:para :   1714.52s CPU   1732.36s WALL (  106946 calls)
     h_psi        :  39682.36s CPU  40072.76s WALL (   54634 calls)
     s_psi        :  15912.81s CPU  15914.38s WALL (   54634 calls)
     g_psi        :     80.20s CPU     80.40s WALL (   47673 calls)

     Called by h_psi:
     h_psi:calbec :  15668.06s CPU  15679.48s WALL (   54634 calls)
     vloc_psi     :   8017.44s CPU   8348.98s WALL (   54634 calls)
     add_vuspsi   :  15923.43s CPU  15925.14s WALL (   54634 calls)

     General routines
     calbec       :  23502.93s CPU  23519.15s WALL (   66194 calls)
     fft          :     38.58s CPU     42.21s WALL (    5369 calls)
     ffts         :      1.05s CPU      1.11s WALL (     708 calls)
     fftw         :   6602.75s CPU   6844.84s WALL ( 8406272 calls)
     interpolate  :      4.05s CPU      4.29s WALL (     366 calls)

     Parallel routines

     PAW routines
     PAW_pot      :    485.92s CPU    485.99s WALL (     201 calls)
     PAW_symme    :      0.14s CPU      0.15s WALL (     372 calls)

     PWSCF        :   1d11h48m CPU   1d12h 4m WALL


   This run was terminated on:   3:20:52  22Jan2025            

=------------------------------------------------------------------------------=
   JOB DONE.
=------------------------------------------------------------------------------=
