
     Program PWSCF v.7.3.1 starts on 21Mar2025 at 16:30:53 

     This program is part of the open-source Quantum ESPRESSO suite
     for quantum simulation of materials; please cite
         "P. Giannozzi et al., J. Phys.:Condens. Matter 21 395502 (2009);
         "P. Giannozzi et al., J. Phys.:Condens. Matter 29 465901 (2017);
         "P. Giannozzi et al., J. Chem. Phys. 152 154105 (2020);
          URL http://www.quantum-espresso.org", 
     in publications or presentations arising from this work. More details at
     http://www.quantum-espresso.org/quote

     Parallel version (MPI), running on     6 processors

     MPI processes distributed on     1 nodes
     5133 MiB available memory on the printing compute node when the environment starts

     Reading input from relax.in

     Current dimensions of program PWSCF are:
     Max number of different atomic species (ntypx) = 10
     Max number of k-points (npk) =  40000
     Max angular momentum in pseudopotentials (lmaxx) =  4
     file Al.pbe-n-kjpaw_psl.1.0.0.UPF: wavefunction(s)  3S 3P renormalized
     file Ti.pbe-spn-kjpaw_psl.1.0.0.UPF: wavefunction(s)  3S 3P 3D renormalized
     file H.pbe-kjpaw_psl.1.0.0.UPF: wavefunction(s)  1S renormalized
     file K.pbe-spn-kjpaw_psl.1.0.0.UPF: wavefunction(s)  3S renormalized
     file Mg.pbe-spnl-kjpaw_psl.1.0.0.UPF: wavefunction(s)  2P renormalized
     file O.pbe-n-kjpaw_psl.1.0.0.UPF: wavefunction(s)  2S 2P renormalized
     file Si.pbe-n-kjpaw_psl.1.0.0.UPF: wavefunction(s)  3S 3P renormalized

     R & G space division:  proc/nbgrp/npool/nimage =       6
     Subspace diagonalization in iterative solution of the eigenvalue problem:
     a serial algorithm will be used


     Parallelization info
     --------------------
     sticks:   dense  smooth     PW     G-vecs:    dense   smooth      PW
     Min        1119     557    150               100894    35666    5065
     Max        1120     558    151               100896    35670    5069
     Sum        6719    3347    905               605369   214013   30407

     Using Slab Decomposition



     bravais-lattice index     =          -12
     lattice parameter (alat)  =      10.0639  a.u.
     unit-cell volume          =    3408.7535 (a.u.)^3
     number of atoms/cell      =           43
     number of atomic types    =            7
     number of electrons       =       248.00
     number of Kohn-Sham states=          149
     kinetic-energy cutoff     =      60.0000  Ry
     charge density cutoff     =     480.0000  Ry
     scf convergence threshold =      1.0E-06
     mixing beta               =       0.7000
     number of iterations used =            8  plain     mixing
     energy convergence thresh.=      1.0E-04
     force convergence thresh. =      1.0E-03
     Exchange-correlation= SLA  PW   PBX  PBC
                           (   1   4   3   4   0   0   0)
     nstep                     =           50


     celldm(1)=  10.063938  celldm(2)=   1.736001  celldm(3)=   1.956921
     celldm(4)=   0.000000  celldm(5)=  -0.175986  celldm(6)=   0.000000

     crystal axes: (cart. coord. in units of alat)
               a(1) = (   1.000000   0.000000   0.000000 )  
               a(2) = (   0.000000   1.736001   0.000000 )  
               a(3) = (  -0.344390   0.000000   1.926379 )  

     reciprocal axes: (cart. coord. in units 2 pi/alat)
               b(1) = (  1.000000 -0.000000  0.178776 )  
               b(2) = (  0.000000  0.576037 -0.000000 )  
               b(3) = (  0.000000  0.000000  0.519109 )  


     PseudoPot. # 1 for Al read from file:
     ./../../../pseudos/Al.pbe-n-kjpaw_psl.1.0.0.UPF
     MD5 check sum: 502b6b27b9c6270cab5dd1084b96fa6d
     Pseudo is Projector augmented-wave + core cor, Zval =  3.0
     Generated using &quot;atomic&quot; code by A. Dal Corso  v.6.3
     Shape of augmentation charge: PSQ
     Using radial grid of 1135 points,  6 beta functions with: 
                l(1) =   0
                l(2) =   0
                l(3) =   1
                l(4) =   1
                l(5) =   2
                l(6) =   2
     Q(r) pseudized with 0 coefficients 


     PseudoPot. # 2 for Ti read from file:
     ./../../../pseudos/Ti.pbe-spn-kjpaw_psl.1.0.0.UPF
     MD5 check sum: 01f69b0d8ba4438b2e03ac6ea4af1c0b
     Pseudo is Projector augmented-wave + core cor, Zval = 12.0
     Generated using &quot;atomic&quot; code by A. Dal Corso  v.6.2.2
     Shape of augmentation charge: PSQ
     Using radial grid of 1177 points,  6 beta functions with: 
                l(1) =   0
                l(2) =   0
                l(3) =   1
                l(4) =   1
                l(5) =   2
                l(6) =   2
     Q(r) pseudized with 0 coefficients 


     PseudoPot. # 3 for H  read from file:
     ./../../../pseudos/H.pbe-kjpaw_psl.1.0.0.UPF
     MD5 check sum: d81a744832360e4a8af0b0b5b123bc2a
     Pseudo is Projector augmented-wave, Zval =  1.0
     Generated using &quot;atomic&quot; code by A. Dal Corso  v.6.3MaX
     Shape of augmentation charge: PSQ
     Using radial grid of  929 points,  2 beta functions with: 
                l(1) =   0
                l(2) =   0
     Q(r) pseudized with 0 coefficients 


     PseudoPot. # 4 for K  read from file:
     ./../../../pseudos/K.pbe-spn-kjpaw_psl.1.0.0.UPF
     MD5 check sum: 34cc42130a09071ebe376fd42eb21491
     Pseudo is Projector augmented-wave + core cor, Zval =  9.0
     Generated using &quot;atomic&quot; code by A. Dal Corso  v.6.2.2
     Shape of augmentation charge: PSQ
     Using radial grid of 1165 points,  6 beta functions with: 
                l(1) =   0
                l(2) =   0
                l(3) =   1
                l(4) =   1
                l(5) =   2
                l(6) =   2
     Q(r) pseudized with 0 coefficients 


     PseudoPot. # 5 for Mg read from file:
     ./../../../pseudos/Mg.pbe-spnl-kjpaw_psl.1.0.0.UPF
     MD5 check sum: fda14e0d92a6a9a5ebed782e5a4b3067
     Pseudo is Projector augmented-wave + core cor, Zval = 10.0
     Generated using &quot;atomic&quot; code by A. Dal Corso  v.6.3
     Shape of augmentation charge: PSQ
     Using radial grid of 1129 points,  4 beta functions with: 
                l(1) =   0
                l(2) =   0
                l(3) =   1
                l(4) =   1
     Q(r) pseudized with 0 coefficients 


     PseudoPot. # 6 for O  read from file:
     ./../../../pseudos/O.pbe-n-kjpaw_psl.1.0.0.UPF
     MD5 check sum: e99d9cef9b487d1ca56f5b95ecd0fd7a
     Pseudo is Projector augmented-wave + core cor, Zval =  6.0
     Generated using &quot;atomic&quot; code by A. Dal Corso  v.6.3
     Shape of augmentation charge: PSQ
     Using radial grid of 1095 points,  4 beta functions with: 
                l(1) =   0
                l(2) =   0
                l(3) =   1
                l(4) =   1
     Q(r) pseudized with 0 coefficients 


     PseudoPot. # 7 for Si read from file:
     ./../../../pseudos/Si.pbe-n-kjpaw_psl.1.0.0.UPF
     MD5 check sum: c39c59da582df4a0d9f10159256ea34e
     Pseudo is Projector augmented-wave + core cor, Zval =  4.0
     Generated using &quot;atomic&quot; code by A. Dal Corso  v.6.3
     Shape of augmentation charge: PSQ
     Using radial grid of 1141 points,  6 beta functions with: 
                l(1) =   0
                l(2) =   0
                l(3) =   1
                l(4) =   1
                l(5) =   2
                l(6) =   2
     Q(r) pseudized with 0 coefficients 


     atomic species   valence    mass     pseudopotential
     Al                3.00    26.98154     Al( 1.00)
     Ti               12.00    47.86700     Ti( 1.00)
     H                 1.00     1.00794     H ( 1.00)
     K                 9.00    39.09830     K ( 1.00)
     Mg               10.00    24.30500     Mg( 1.00)
     O                 6.00    15.99940     O ( 1.00)
     Si                4.00    28.08550     Si( 1.00)

     Starting magnetic structure 
     atomic species   magnetization
     Al              0.000
     Ti              0.300
     H               0.000
     K               0.000
     Mg              0.000
     O               0.000
     Si              0.000

      2 Sym. Ops. (no inversion) found


                                    s                        frac. trans.

      isym =  1     identity                                     

 cryst.   s( 1) = (     1          0          0      )
                  (     0          1          0      )
                  (     0          0          1      )

 cart.    s( 1) = (  1.0000000  0.0000000  0.0000000 )
                  (  0.0000000  1.0000000  0.0000000 )
                  (  0.0000000  0.0000000  1.0000000 )


      isym =  2     180 deg rotation - cart. axis [0,1,0]        

 cryst.   s( 2) = (    -1          0          0      )
                  (     0          1          0      )
                  (     0          0         -1      )

 cart.    s( 2) = ( -1.0000000  0.0000000 -0.0000000 )
                  (  0.0000000  1.0000000  0.0000000 )
                  (  0.0000000  0.0000000 -1.0000000 )


     point group C_2  (2)   
     there are  2 classes
     the character table:

       E     C2   
A      1.00  1.00
B      1.00 -1.00

     the symmetry operations in each class and the name of the first element:

     E        1
          identity                                               
     C2       2
          180 deg rotation - cart. axis [0,1,0]                  

   Cartesian axes

     site n.     atom                  positions (alat units)
         1        K      tau(   1) = (   0.0000000   0.8500250   0.0000000  )
         2        K      tau(   2) = (   0.5000001   0.0129874   0.0000000  )
         3        Mg     tau(   3) = (  -0.1721948   0.0077214   0.9631892  )
         4        Mg     tau(   4) = (  -0.1721948   1.1549426   0.9631892  )
         5        Mg     tau(   5) = (   0.3278053   1.4487986   0.9631892  )
         6        Mg     tau(   6) = (   0.3278053   0.2995781   0.9631892  )
         7        Si     tau(   7) = (   0.0065464   0.2863232   0.4366446  )
         8        Si     tau(   8) = (   0.6490642   0.2863232   1.4897338  )
         9        Si     tau(   9) = (   0.6700451   1.4481368   1.4769596  )
        10        Si     tau(  10) = (  -0.0144345   1.4481368   0.4494187  )
        11        Si     tau(  11) = (   0.4850690   1.1571201   0.4451794  )
        12        Si     tau(  12) = (   0.1705415   1.1571201   1.4811990  )
        13        Al     tau(  13) = (   0.1481378   0.5745631   1.4858453  )
        14        Al     tau(  14) = (   0.5074727   0.5745631   0.4405331  )
        15        O      tau(  15) = (  -0.0053818   0.2845266   0.7435308  )
        16        O      tau(  16) = (   0.6609924   0.2845266   1.1828475  )
        17        O      tau(  17) = (   0.6648623   1.4463792   1.1726078  )
        18        O      tau(  18) = (  -0.0092517   1.4463792   0.7537706  )
        19        O      tau(  19) = (   0.4909734   1.1615894   0.7508691  )
        20        O      tau(  20) = (   0.1646372   1.1615894   1.1755093  )
        21        O      tau(  21) = (   0.1533653   0.5775173   1.1602818  )
        22        O      tau(  22) = (   0.5022453   0.5775173   0.7660965  )
        23        O      tau(  23) = (   0.2836155   0.3559826   0.3271266  )
        24        O      tau(  24) = (   0.3719951   0.3559826   1.5992516  )
        25        O      tau(  25) = (  -0.0573653   1.7307557   0.3331647  )
        26        O      tau(  26) = (   0.7129759   1.7307557   1.5932136  )
        27        O      tau(  27) = (   0.4014220   1.3398431   1.5902067  )
        28        O      tau(  28) = (   0.2541885   1.3398431   0.3361717  )
        29        O      tau(  29) = (   0.7533736   1.2762782   0.3346307  )
        30        O      tau(  30) = (  -0.0977631   1.2762782   1.5917477  )
        31        O      tau(  31) = (   0.4457693   0.8816150   0.3226733  )
        32        O      tau(  32) = (   0.2098412   0.8816150   1.6037051  )
        33        O      tau(  33) = (  -0.1438441   0.4759522   1.6105977  )
        34        O      tau(  34) = (   0.7994547   0.4759522   0.3157807  )
        35        O      tau(  35) = (  -0.0052927   0.8751793   0.7641997  )
        36        O      tau(  36) = (   0.6609033   0.8751793   1.1621787  )
        37        O      tau(  37) = (   0.4956425   1.7352597   0.7704301  )
        38        O      tau(  38) = (   0.1599681   1.7352597   1.1559483  )
        39        H      tau(  39) = (  -0.0033562   0.8597493   0.5835064  )
        40        H      tau(  40) = (   0.6589669   0.8597493   1.3428719  )
        41        H      tau(  41) = (   0.4916295   0.0251070   0.5908075  )
        42        H      tau(  42) = (   0.1639811   0.0251070   1.3355710  )
        43        Ti     tau(  43) = (  -0.1721948   0.5784118   0.9631892  )

     --------------------------------------------
     DFT-D3 Dispersion Correction (3-body terms):
     --------------------------------------------
       Reference C6 values for interpolation: 

         atom   Coordination number   C6
         H          0.912             6.05
         H          0.000            15.18
         O          0.000            31.01
         O          0.993            25.63
         O          1.989            20.74
         Mg         0.000          1366.75
         Mg         0.963           902.54
         Mg         1.950           351.12
         Al         0.000          1081.08
         Al         0.965           875.51
         Al         1.931           513.50
         Al         2.915           307.19
         Si         0.000           635.71
         Si         0.951           540.53
         Si         1.944           466.25
         Si         2.941           443.01
         Si         3.868           299.55
         K          0.000          9967.00
         K          0.977           676.04
         Ti         0.000          2723.84
         Ti         1.830           604.00
         Ti         3.868           643.18

       Values used:

         atom   Coordination number  R0_AB[au]  C6      C8
         K         11.872            4.007    676.04 129074.98
         K         12.162            4.007    676.04 129074.98
         Mg        11.632            3.292    351.12  31436.69
         Mg        10.043            3.292    351.12  31436.69
         Mg        10.853            3.292    351.12  31436.69
         Mg        11.112            3.292    351.12  31436.69
         Si         6.678            3.583    299.55  21425.58
         Si         6.678            3.583    299.55  21425.58
         Si         6.243            3.583    299.55  21425.58
         Si         6.243            3.583    299.55  21425.58
         Si         6.055            3.583    299.55  21425.58
         Si         6.055            3.583    299.55  21425.58
         Al         7.193            3.789    307.19  29441.29
         Al         7.193            3.789    307.19  29441.29
         O          3.883            2.345     20.74    418.58
         O          3.883            2.345     20.74    418.58
         O          3.907            2.345     20.74    418.58
         O          3.907            2.345     20.74    418.58
         O          2.965            2.345     20.74    418.58
         O          2.965            2.345     20.74    418.58
         O          2.998            2.345     20.74    418.58
         O          2.998            2.345     20.74    418.58
         O          3.149            2.345     20.74    418.58
         O          3.149            2.345     20.74    418.58
         O          3.047            2.345     20.74    418.58
         O          3.047            2.345     20.74    418.58
         O          2.875            2.345     20.74    418.58
         O          2.875            2.345     20.74    418.58
         O          2.861            2.345     20.74    418.58
         O          2.861            2.345     20.74    418.58
         O          3.075            2.345     20.74    418.58
         O          3.075            2.345     20.74    418.58
         O          3.210            2.345     20.74    418.58
         O          3.210            2.345     20.74    418.58
         O          2.996            2.345     20.74    418.58
         O          2.996            2.345     20.74    418.58
         O          3.981            2.345     20.74    418.58
         O          3.981            2.345     20.74    418.58
         H          1.208            2.062      6.08     73.52
         H          1.208            2.062      6.08     73.52
         H          1.231            2.062      6.08     73.46
         H          1.231            2.062      6.08     73.46
         Ti        10.009            3.557    643.18  76289.64

         Molecular C6 ( Ry / a.u.^6 ) =    158921.20


   Crystallographic axes

     site n.     atom                  positions (cryst. coord.)
         1        K      tau(   1) = (  0.0000000  0.4896454  0.0000000  )
         2        K      tau(   2) = (  0.5000001  0.0074812  0.0000000  )
         3        Mg     tau(   3) = (  0.0000002  0.0044478  0.4999999  )
         4        Mg     tau(   4) = (  0.0000002  0.6652891  0.4999999  )
         5        Mg     tau(   5) = (  0.5000003  0.8345609  0.4999999  )
         6        Mg     tau(   6) = (  0.5000003  0.1725679  0.4999999  )
         7        Si     tau(   7) = (  0.0846079  0.1649326  0.2266660  )
         8        Si     tau(   8) = (  0.9153927  0.1649326  0.7733338  )
         9        Si     tau(   9) = (  0.9340899  0.8341796  0.7667026  )
        10        Si     tau(  10) = (  0.0659107  0.8341796  0.2332971  )
        11        Si     tau(  11) = (  0.5646564  0.6665434  0.2310965  )
        12        Si     tau(  12) = (  0.4353442  0.6665434  0.7689033  )
        13        Al     tau(  13) = (  0.4137711  0.3309693  0.7713152  )
        14        Al     tau(  14) = (  0.5862294  0.3309693  0.2286845  )
        15        O      tau(  15) = (  0.1275435  0.1638977  0.3859733  )
        16        O      tau(  16) = (  0.8724570  0.1638977  0.6140264  )
        17        O      tau(  17) = (  0.8744963  0.8331672  0.6087109  )
        18        O      tau(  18) = (  0.1255043  0.8331672  0.3912888  )
        19        O      tau(  19) = (  0.6252107  0.6691179  0.3897827  )
        20        O      tau(  20) = (  0.3747899  0.6691179  0.6102171  )
        21        O      tau(  21) = (  0.3607957  0.3326710  0.6023124  )
        22        O      tau(  22) = (  0.6392049  0.3326710  0.3976873  )
        23        O      tau(  23) = (  0.3420978  0.2050590  0.1698143  )
        24        O      tau(  24) = (  0.6579027  0.2050590  0.8301854  )
        25        O      tau(  25) = (  0.0021965  0.9969785  0.1729487  )
        26        O      tau(  26) = (  0.9978040  0.9969785  0.8270510  )
        27        O      tau(  27) = (  0.6857126  0.7717986  0.8254901  )
        28        O      tau(  28) = (  0.3142879  0.7717986  0.1745096  )
        29        O      tau(  29) = (  0.8131976  0.7351828  0.1737097  )
        30        O      tau(  30) = (  0.1868031  0.7351828  0.8262901  )
        31        O      tau(  31) = (  0.5034555  0.5078424  0.1675025  )
        32        O      tau(  32) = (  0.4965450  0.5078424  0.8324972  )
        33        O      tau(  33) = (  0.1440919  0.2741658  0.8360752  )
        34        O      tau(  34) = (  0.8559087  0.2741658  0.1639245  )
        35        O      tau(  35) = (  0.1313278  0.5041353  0.3967027  )
        36        O      tau(  36) = (  0.8686728  0.5041353  0.6032971  )
        37        O      tau(  37) = (  0.6333768  0.9995729  0.3999370  )
        38        O      tau(  38) = (  0.3666238  0.9995729  0.6000628  )
        39        H      tau(  39) = (  0.1009607  0.4952470  0.3029032  )
        40        H      tau(  40) = (  0.8990400  0.4952470  0.6970965  )
        41        H      tau(  41) = (  0.5972516  0.0144625  0.3066933  )
        42        H      tau(  42) = (  0.4027490  0.0144625  0.6933065  )
        43        Ti     tau(  43) = (  0.0000002  0.3331863  0.4999999  )

     number of k points=    20  Gaussian smearing, width (Ry)=  0.0010
                       cart. coord. in units 2pi/alat
        k(    1) = (   0.0000000   0.0000000   0.0000000), wk =   0.0185185
        k(    2) = (   0.0000000   0.0000000   0.1730362), wk =   0.0370370
        k(    3) = (   0.0000000   0.1920122   0.0000000), wk =   0.0370370
        k(    4) = (   0.0000000   0.1920122   0.1730362), wk =   0.0740741
        k(    5) = (   0.1666667   0.0000000   0.0297960), wk =   0.0370370
        k(    6) = (   0.1666667   0.0000000   0.2028322), wk =   0.0370370
        k(    7) = (   0.1666667   0.0000000  -0.1432402), wk =   0.0370370
        k(    8) = (   0.1666667   0.1920122   0.0297960), wk =   0.0740741
        k(    9) = (   0.1666667   0.1920122   0.2028322), wk =   0.0740741
        k(   10) = (   0.1666667   0.1920122  -0.1432402), wk =   0.0740741
        k(   11) = (   0.3333333   0.0000000   0.0595920), wk =   0.0370370
        k(   12) = (   0.3333333   0.0000000   0.2326282), wk =   0.0370370
        k(   13) = (   0.3333333   0.0000000  -0.1134443), wk =   0.0370370
        k(   14) = (   0.3333333   0.1920122   0.0595920), wk =   0.0740741
        k(   15) = (   0.3333333   0.1920122   0.2326282), wk =   0.0740741
        k(   16) = (   0.3333333   0.1920122  -0.1134443), wk =   0.0740741
        k(   17) = (  -0.5000000   0.0000000  -0.0893879), wk =   0.0185185
        k(   18) = (  -0.5000000   0.0000000   0.0836483), wk =   0.0370370
        k(   19) = (  -0.5000000   0.1920122  -0.0893879), wk =   0.0370370
        k(   20) = (  -0.5000000   0.1920122   0.0836483), wk =   0.0740741

                       cryst. coord.
        k(    1) = (   0.0000000   0.0000000   0.0000000), wk =   0.0185185
        k(    2) = (   0.0000000   0.0000000   0.3333333), wk =   0.0370370
        k(    3) = (   0.0000000   0.3333333   0.0000000), wk =   0.0370370
        k(    4) = (   0.0000000   0.3333333   0.3333333), wk =   0.0740741
        k(    5) = (   0.1666667   0.0000000   0.0000000), wk =   0.0370370
        k(    6) = (   0.1666667   0.0000000   0.3333333), wk =   0.0370370
        k(    7) = (   0.1666667   0.0000000  -0.3333333), wk =   0.0370370
        k(    8) = (   0.1666667   0.3333333   0.0000000), wk =   0.0740741
        k(    9) = (   0.1666667   0.3333333   0.3333333), wk =   0.0740741
        k(   10) = (   0.1666667   0.3333333  -0.3333333), wk =   0.0740741
        k(   11) = (   0.3333333   0.0000000   0.0000000), wk =   0.0370370
        k(   12) = (   0.3333333   0.0000000   0.3333333), wk =   0.0370370
        k(   13) = (   0.3333333   0.0000000  -0.3333333), wk =   0.0370370
        k(   14) = (   0.3333333   0.3333333   0.0000000), wk =   0.0740741
        k(   15) = (   0.3333333   0.3333333   0.3333333), wk =   0.0740741
        k(   16) = (   0.3333333   0.3333333  -0.3333333), wk =   0.0740741
        k(   17) = (  -0.5000000   0.0000000   0.0000000), wk =   0.0185185
        k(   18) = (  -0.5000000   0.0000000   0.3333333), wk =   0.0370370
        k(   19) = (  -0.5000000   0.3333333   0.0000000), wk =   0.0370370
        k(   20) = (  -0.5000000   0.3333333   0.3333333), wk =   0.0740741

     Dense  grid:   605369 G-vectors     FFT dimensions: (  72, 125, 144)

     Smooth grid:   214013 G-vectors     FFT dimensions: (  50,  90, 100)

     Dynamical RAM for                 wfc:      10.14 MB

     Dynamical RAM for     wfc (w. buffer):     415.56 MB

     Dynamical RAM for           str. fact:      10.78 MB

     Dynamical RAM for           local pot:       0.00 MB

     Dynamical RAM for          nlocal pot:      29.25 MB

     Dynamical RAM for                qrad:      12.30 MB

     Dynamical RAM for          rho,v,vnew:      19.12 MB

     Dynamical RAM for               rhoin:       6.37 MB

     Dynamical RAM for            rho*nmix:      49.27 MB

     Dynamical RAM for           G-vectors:       6.05 MB

     Dynamical RAM for          h,s,v(r/c):       4.07 MB

     Dynamical RAM for          <psi|beta>:       0.98 MB

     Dynamical RAM for                 psi:      20.27 MB

     Dynamical RAM for                hpsi:      20.27 MB

     Dynamical RAM for                spsi:      20.27 MB

     Dynamical RAM for      wfcinit/wfcrot:      24.94 MB

     Dynamical RAM for           addusdens:     324.84 MB

     Dynamical RAM for          addusforce:     395.85 MB

     Estimated static dynamical RAM per process >     521.64 MB

     Estimated max dynamical RAM per process >     966.75 MB

     Estimated total dynamical RAM >       5.66 GB

     Check: negative core charge=   -0.000003
     Generating pointlists ...
     new r_m :   0.1343 (alat units)  1.3518 (a.u.) for type    1
     new r_m :   0.1570 (alat units)  1.5799 (a.u.) for type    2
     new r_m :   0.0748 (alat units)  0.7529 (a.u.) for type    3
     new r_m :   0.2149 (alat units)  2.1630 (a.u.) for type    4
     new r_m :   0.1575 (alat units)  1.5847 (a.u.) for type    5
     new r_m :   0.0748 (alat units)  0.7529 (a.u.) for type    6
     new r_m :   0.1254 (alat units)  1.2623 (a.u.) for type    7

     Initial potential from superposition of free atoms

     starting charge     247.9492, renormalised to     248.0000
     Starting wfcs are  178 randomized atomic wfcs
     Checking if some PAW data can be deallocated... 
       PAW data deallocated on    5 nodes for type:  1
       PAW data deallocated on    5 nodes for type:  2
       PAW data deallocated on    5 nodes for type:  3
       PAW data deallocated on    5 nodes for type:  4
       PAW data deallocated on    5 nodes for type:  5
       PAW data deallocated on    1 nodes for type:  6
       PAW data deallocated on    4 nodes for type:  7

     total cpu time spent up to now is      342.8 secs

     Self-consistent Calculation

     iteration #  1     ecut=    60.00 Ry     beta= 0.70
     Davidson diagonalization with overlap

---- Real-time Memory Report at c_bands before calling an iterative solver
           587 MiB given to the printing process from OS
             0 MiB allocation reported by mallinfo(arena+hblkhd)
          2238 MiB available memory on the node where the printing process lives
------------------
     ethr =  1.00E-02,  avg # of iterations =  5.3

     total cpu time spent up to now is     1341.1 secs

     total energy              =   -2335.67931736 Ry
     estimated scf accuracy    <      13.78159388 Ry

     total magnetization       =     0.00 Bohr mag/cell
     absolute magnetization    =     0.40 Bohr mag/cell

     iteration #  2     ecut=    60.00 Ry     beta= 0.70
     Davidson diagonalization with overlap

---- Real-time Memory Report at c_bands before calling an iterative solver
           886 MiB given to the printing process from OS
             0 MiB allocation reported by mallinfo(arena+hblkhd)
          1923 MiB available memory on the node where the printing process lives
------------------
     ethr =  5.56E-03,  avg # of iterations =  8.0

     total cpu time spent up to now is     2836.4 secs

     total energy              =   -2329.33598211 Ry
     estimated scf accuracy    <      77.45488889 Ry

     total magnetization       =     0.02 Bohr mag/cell
     absolute magnetization    =     1.01 Bohr mag/cell

     iteration #  3     ecut=    60.00 Ry     beta= 0.70
     Davidson diagonalization with overlap

---- Real-time Memory Report at c_bands before calling an iterative solver
           889 MiB given to the printing process from OS
             0 MiB allocation reported by mallinfo(arena+hblkhd)
          1905 MiB available memory on the node where the printing process lives
------------------
     ethr =  5.56E-03,  avg # of iterations =  4.8

     total cpu time spent up to now is     3818.1 secs

     total energy              =   -2342.11826719 Ry
     estimated scf accuracy    <      12.34341691 Ry

     total magnetization       =     0.01 Bohr mag/cell
     absolute magnetization    =     0.77 Bohr mag/cell

     iteration #  4     ecut=    60.00 Ry     beta= 0.70
     Davidson diagonalization with overlap

---- Real-time Memory Report at c_bands before calling an iterative solver
           891 MiB given to the printing process from OS
             0 MiB allocation reported by mallinfo(arena+hblkhd)
          1896 MiB available memory on the node where the printing process lives
------------------
     ethr =  4.98E-03,  avg # of iterations =  2.0

     total cpu time spent up to now is     4716.4 secs

     total energy              =   -2343.52389016 Ry
     estimated scf accuracy    <       2.62599935 Ry

     total magnetization       =    -0.00 Bohr mag/cell
     absolute magnetization    =     0.59 Bohr mag/cell

     iteration #  5     ecut=    60.00 Ry     beta= 0.70
     Davidson diagonalization with overlap

---- Real-time Memory Report at c_bands before calling an iterative solver
           894 MiB given to the printing process from OS
             0 MiB allocation reported by mallinfo(arena+hblkhd)
          1882 MiB available memory on the node where the printing process lives
------------------
     c_bands:  1 eigenvalues not converged
     ethr =  1.06E-03,  avg # of iterations =  9.8

     total cpu time spent up to now is     5912.5 secs

     total energy              =   -2344.04884028 Ry
     estimated scf accuracy    <       1.27511407 Ry

     total magnetization       =    -0.00 Bohr mag/cell
     absolute magnetization    =     0.23 Bohr mag/cell

     iteration #  6     ecut=    60.00 Ry     beta= 0.70
     Davidson diagonalization with overlap

---- Real-time Memory Report at c_bands before calling an iterative solver
           896 MiB given to the printing process from OS
             0 MiB allocation reported by mallinfo(arena+hblkhd)
          1865 MiB available memory on the node where the printing process lives
------------------
     c_bands:  1 eigenvalues not converged
     c_bands:  1 eigenvalues not converged
     ethr =  5.14E-04,  avg # of iterations =  9.5

     total cpu time spent up to now is     7013.6 secs

     total energy              =   -2344.05608291 Ry
     estimated scf accuracy    <       0.56439672 Ry

     total magnetization       =     0.00 Bohr mag/cell
     absolute magnetization    =     0.29 Bohr mag/cell

     iteration #  7     ecut=    60.00 Ry     beta= 0.70
     Davidson diagonalization with overlap

---- Real-time Memory Report at c_bands before calling an iterative solver
           898 MiB given to the printing process from OS
             0 MiB allocation reported by mallinfo(arena+hblkhd)
          1852 MiB available memory on the node where the printing process lives
------------------
     c_bands:  1 eigenvalues not converged
     c_bands:  1 eigenvalues not converged
     ethr =  2.28E-04,  avg # of iterations = 14.3

     total cpu time spent up to now is     8515.1 secs

     total energy              =   -2344.23925398 Ry
     estimated scf accuracy    <       0.21608748 Ry

     total magnetization       =     0.00 Bohr mag/cell
     absolute magnetization    =     0.11 Bohr mag/cell

     iteration #  8     ecut=    60.00 Ry     beta= 0.70
     Davidson diagonalization with overlap

---- Real-time Memory Report at c_bands before calling an iterative solver
           901 MiB given to the printing process from OS
             0 MiB allocation reported by mallinfo(arena+hblkhd)
          1830 MiB available memory on the node where the printing process lives
------------------
     ethr =  8.71E-05,  avg # of iterations =  2.6

     total cpu time spent up to now is     9372.5 secs

     total energy              =   -2344.22459371 Ry
     estimated scf accuracy    <       0.18835052 Ry

     total magnetization       =    -0.00 Bohr mag/cell
     absolute magnetization    =     0.10 Bohr mag/cell

     iteration #  9     ecut=    60.00 Ry     beta= 0.70
     Davidson diagonalization with overlap

---- Real-time Memory Report at c_bands before calling an iterative solver
           903 MiB given to the printing process from OS
             0 MiB allocation reported by mallinfo(arena+hblkhd)
          1815 MiB available memory on the node where the printing process lives
------------------
     ethr =  7.59E-05,  avg # of iterations =  2.0

     total cpu time spent up to now is    10219.3 secs

     total energy              =   -2344.18818296 Ry
     estimated scf accuracy    <       0.12851075 Ry

     total magnetization       =    -0.00 Bohr mag/cell
     absolute magnetization    =     0.07 Bohr mag/cell

     iteration # 10     ecut=    60.00 Ry     beta= 0.70
     Davidson diagonalization with overlap

---- Real-time Memory Report at c_bands before calling an iterative solver
           906 MiB given to the printing process from OS
             0 MiB allocation reported by mallinfo(arena+hblkhd)
          1796 MiB available memory on the node where the printing process lives
------------------
     c_bands:  2 eigenvalues not converged
     c_bands:  1 eigenvalues not converged
     c_bands:  4 eigenvalues not converged
     ethr =  5.18E-05,  avg # of iterations =  6.9

     total cpu time spent up to now is    11234.9 secs

     total energy              =   -2344.21658755 Ry
     estimated scf accuracy    <       0.05250899 Ry

     total magnetization       =    -0.00 Bohr mag/cell
     absolute magnetization    =     0.04 Bohr mag/cell

     iteration # 11     ecut=    60.00 Ry     beta= 0.70
     Davidson diagonalization with overlap

---- Real-time Memory Report at c_bands before calling an iterative solver
           906 MiB given to the printing process from OS
             0 MiB allocation reported by mallinfo(arena+hblkhd)
          1769 MiB available memory on the node where the printing process lives
------------------
     c_bands:  2 eigenvalues not converged
     c_bands:  1 eigenvalues not converged
     c_bands:  1 eigenvalues not converged
     c_bands:  1 eigenvalues not converged
     c_bands:  1 eigenvalues not converged
     c_bands:  1 eigenvalues not converged
     c_bands:  4 eigenvalues not converged
     c_bands:  1 eigenvalues not converged
     c_bands:  2 eigenvalues not converged
     c_bands:  1 eigenvalues not converged
     c_bands:  1 eigenvalues not converged
     ethr =  2.12E-05,  avg # of iterations = 15.4

     total cpu time spent up to now is    12294.5 secs

     total energy              =   -2344.20474024 Ry
     estimated scf accuracy    <       0.04112924 Ry

     total magnetization       =    -0.00 Bohr mag/cell
     absolute magnetization    =     0.03 Bohr mag/cell

     iteration # 12     ecut=    60.00 Ry     beta= 0.70
     Davidson diagonalization with overlap

---- Real-time Memory Report at c_bands before calling an iterative solver
           906 MiB given to the printing process from OS
             0 MiB allocation reported by mallinfo(arena+hblkhd)
          1774 MiB available memory on the node where the printing process lives
------------------
     c_bands:  1 eigenvalues not converged
     c_bands:  1 eigenvalues not converged
     c_bands:  1 eigenvalues not converged
     c_bands:  1 eigenvalues not converged
     c_bands:  1 eigenvalues not converged
     ethr =  1.66E-05,  avg # of iterations = 11.3

     total cpu time spent up to now is    13341.6 secs

     total energy              =   -2344.21310775 Ry
     estimated scf accuracy    <       0.00470538 Ry

     total magnetization       =     0.00 Bohr mag/cell
     absolute magnetization    =     0.02 Bohr mag/cell

     iteration # 13     ecut=    60.00 Ry     beta= 0.70
     Davidson diagonalization with overlap

---- Real-time Memory Report at c_bands before calling an iterative solver
           906 MiB given to the printing process from OS
             0 MiB allocation reported by mallinfo(arena+hblkhd)
          1792 MiB available memory on the node where the printing process lives
------------------
     c_bands:  2 eigenvalues not converged
     c_bands:  1 eigenvalues not converged
     c_bands:  1 eigenvalues not converged
     c_bands:  2 eigenvalues not converged
     c_bands:  2 eigenvalues not converged
     c_bands:  2 eigenvalues not converged
     c_bands:  3 eigenvalues not converged
     c_bands:  2 eigenvalues not converged
     c_bands:  2 eigenvalues not converged
     c_bands:  1 eigenvalues not converged
     c_bands:  1 eigenvalues not converged
     c_bands:  1 eigenvalues not converged
     c_bands:  1 eigenvalues not converged
     c_bands:  2 eigenvalues not converged
     c_bands:  1 eigenvalues not converged
     c_bands:  2 eigenvalues not converged
     ethr =  1.90E-06,  avg # of iterations = 17.1

     total cpu time spent up to now is    14885.6 secs

     total energy              =   -2344.21382525 Ry
     estimated scf accuracy    <       0.00247346 Ry

     total magnetization       =     0.00 Bohr mag/cell
     absolute magnetization    =     0.01 Bohr mag/cell

     iteration # 14     ecut=    60.00 Ry     beta= 0.70
     Davidson diagonalization with overlap

---- Real-time Memory Report at c_bands before calling an iterative solver
           906 MiB given to the printing process from OS
             0 MiB allocation reported by mallinfo(arena+hblkhd)
          1781 MiB available memory on the node where the printing process lives
------------------
     c_bands:  1 eigenvalues not converged
     c_bands:  1 eigenvalues not converged
     ethr =  9.97E-07,  avg # of iterations =  4.0

     total cpu time spent up to now is    15857.5 secs

     total energy              =   -2344.21392430 Ry
     estimated scf accuracy    <       0.00068348 Ry

     total magnetization       =     0.00 Bohr mag/cell
     absolute magnetization    =     0.01 Bohr mag/cell

     iteration # 15     ecut=    60.00 Ry     beta= 0.70
     Davidson diagonalization with overlap

---- Real-time Memory Report at c_bands before calling an iterative solver
           906 MiB given to the printing process from OS
             0 MiB allocation reported by mallinfo(arena+hblkhd)
          1795 MiB available memory on the node where the printing process lives
------------------
     ethr =  2.76E-07,  avg # of iterations =  5.5

     total cpu time spent up to now is    17377.3 secs

     total energy              =   -2344.21430574 Ry
     estimated scf accuracy    <       0.00032657 Ry

     total magnetization       =    -0.00 Bohr mag/cell
     absolute magnetization    =     0.01 Bohr mag/cell

     iteration # 16     ecut=    60.00 Ry     beta= 0.70
     Davidson diagonalization with overlap

---- Real-time Memory Report at c_bands before calling an iterative solver
           906 MiB given to the printing process from OS
             0 MiB allocation reported by mallinfo(arena+hblkhd)
          1780 MiB available memory on the node where the printing process lives
------------------
     ethr =  1.32E-07,  avg # of iterations =  5.0

     total cpu time spent up to now is    18264.6 secs

     total energy              =   -2344.21432343 Ry
     estimated scf accuracy    <       0.00010118 Ry

     total magnetization       =    -0.00 Bohr mag/cell
     absolute magnetization    =     0.00 Bohr mag/cell

     iteration # 17     ecut=    60.00 Ry     beta= 0.70
     Davidson diagonalization with overlap

---- Real-time Memory Report at c_bands before calling an iterative solver
           906 MiB given to the printing process from OS
             0 MiB allocation reported by mallinfo(arena+hblkhd)
          1785 MiB available memory on the node where the printing process lives
------------------
     ethr =  4.08E-08,  avg # of iterations =  6.2

     total cpu time spent up to now is    19406.9 secs

     total energy              =   -2344.21435402 Ry
     estimated scf accuracy    <       0.00001776 Ry

     total magnetization       =    -0.00 Bohr mag/cell
     absolute magnetization    =     0.00 Bohr mag/cell

     iteration # 18     ecut=    60.00 Ry     beta= 0.70
     Davidson diagonalization with overlap

---- Real-time Memory Report at c_bands before calling an iterative solver
           906 MiB given to the printing process from OS
             0 MiB allocation reported by mallinfo(arena+hblkhd)
          1781 MiB available memory on the node where the printing process lives
------------------
     ethr =  7.16E-09,  avg # of iterations =  5.9

     total cpu time spent up to now is    20769.4 secs

     total energy              =   -2344.21436390 Ry
     estimated scf accuracy    <       0.00000114 Ry

     total magnetization       =     0.00 Bohr mag/cell
     absolute magnetization    =     0.00 Bohr mag/cell

     iteration # 19     ecut=    60.00 Ry     beta= 0.70
     Davidson diagonalization with overlap

---- Real-time Memory Report at c_bands before calling an iterative solver
           906 MiB given to the printing process from OS
             0 MiB allocation reported by mallinfo(arena+hblkhd)
          1779 MiB available memory on the node where the printing process lives
------------------
     ethr =  4.60E-10,  avg # of iterations = 10.3

     Magnetic moment per site  (integrated on atomic sphere of radius R)
     atom   1 (R=0.215)  charge=  7.5400  magn= -0.0000
     atom   2 (R=0.215)  charge=  7.5424  magn= -0.0000
     atom   3 (R=0.157)  charge=  8.1114  magn= -0.0000
     atom   4 (R=0.157)  charge=  8.1030  magn= -0.0000
     atom   5 (R=0.157)  charge=  8.1061  magn= -0.0000
     atom   6 (R=0.157)  charge=  8.1130  magn= -0.0000
     atom   7 (R=0.125)  charge=  0.5487  magn= -0.0000
     atom   8 (R=0.125)  charge=  0.5487  magn= -0.0000
     atom   9 (R=0.125)  charge=  0.5431  magn= -0.0000
     atom  10 (R=0.125)  charge=  0.5431  magn= -0.0000
     atom  11 (R=0.125)  charge=  0.5438  magn=  0.0000
     atom  12 (R=0.125)  charge=  0.5438  magn=  0.0000
     atom  13 (R=0.134)  charge=  0.3328  magn= -0.0000
     atom  14 (R=0.134)  charge=  0.3328  magn= -0.0000
     atom  15 (R=0.075)  charge=  1.9386  magn= -0.0000
     atom  16 (R=0.075)  charge=  1.9386  magn= -0.0000
     atom  17 (R=0.075)  charge=  1.9390  magn=  0.0000
     atom  18 (R=0.075)  charge=  1.9390  magn=  0.0000
     atom  19 (R=0.075)  charge=  1.9285  magn= -0.0000
     atom  20 (R=0.075)  charge=  1.9285  magn= -0.0000
     atom  21 (R=0.075)  charge=  1.9229  magn= -0.0000
     atom  22 (R=0.075)  charge=  1.9229  magn= -0.0000
     atom  23 (R=0.075)  charge=  1.9373  magn=  0.0000
     atom  24 (R=0.075)  charge=  1.9373  magn=  0.0000
     atom  25 (R=0.075)  charge=  1.9466  magn=  0.0000
     atom  26 (R=0.075)  charge=  1.9466  magn=  0.0000
     atom  27 (R=0.075)  charge=  1.9445  magn=  0.0000
     atom  28 (R=0.075)  charge=  1.9445  magn=  0.0000
     atom  29 (R=0.075)  charge=  1.9457  magn=  0.0000
     atom  30 (R=0.075)  charge=  1.9457  magn=  0.0000
     atom  31 (R=0.075)  charge=  1.9406  magn= -0.0000
     atom  32 (R=0.075)  charge=  1.9406  magn= -0.0000
     atom  33 (R=0.075)  charge=  1.9390  magn=  0.0000
     atom  34 (R=0.075)  charge=  1.9390  magn=  0.0000
     atom  35 (R=0.075)  charge=  1.9257  magn= -0.0000
     atom  36 (R=0.075)  charge=  1.9257  magn= -0.0000
     atom  37 (R=0.075)  charge=  1.9416  magn=  0.0000
     atom  38 (R=0.075)  charge=  1.9416  magn=  0.0000
     atom  39 (R=0.075)  charge=  0.4010  magn=  0.0000
     atom  40 (R=0.075)  charge=  0.4010  magn=  0.0000
     atom  41 (R=0.075)  charge=  0.3991  magn=  0.0000
     atom  42 (R=0.075)  charge=  0.3991  magn=  0.0000
     atom  43 (R=0.157)  charge=  8.6268  magn=  0.0001

     total cpu time spent up to now is    23088.1 secs

     End of self-consistent calculation

 ------ SPIN UP ------------


          k = 0.0000 0.0000 0.0000 ( 26779 PWs)   bands (ev):

   -68.5738 -68.3756 -67.6040 -67.5369 -53.1563 -35.3432 -35.3373 -35.2966
   -35.1740 -35.1172 -35.0906 -34.3857 -34.3426 -34.3375 -34.3137 -34.2975
   -34.2503 -29.4048 -29.3808 -29.2006 -23.8891 -23.6934 -15.4290 -15.3754
   -14.8671 -14.8000 -14.2390 -14.1274 -13.9404 -13.7722 -13.7473 -13.7407
   -13.7203 -13.6327 -13.4704 -13.3109 -13.2277 -13.2139 -13.1699 -13.0991
   -13.0023 -12.9101 -12.2783 -11.8925 -11.5197 -11.3912  -7.4318  -7.3738
    -7.3592  -7.2396  -7.1747  -7.1505  -4.5847  -4.5431  -3.2386  -3.0964
    -2.3774  -1.8430  -1.7682  -1.6847  -1.3900  -1.3815  -1.3063  -1.2974
    -1.2074  -0.9594  -0.6695  -0.6301  -0.4871  -0.4427  -0.4385  -0.2699
    -0.2008   0.0953   0.1412   0.4567   0.4999   0.6283   0.6400   0.8219
     0.9392   0.9512   0.9947   1.0868   1.1425   1.2382   1.4137   1.4648
     1.4816   1.5953   1.7283   1.8169   1.9849   2.0003   2.0473   2.0656
     2.1568   2.1910   2.2101   2.2587   2.3393   2.4440   2.5378   2.5398
     2.6223   2.6781   2.7489   2.8188   2.8851   2.9051   2.9278   2.9670
     3.1230   3.2262   3.2590   3.2734   3.3613   3.4253   3.5648   3.6556
     4.0941   4.2873   4.4836   4.6781   6.1271   6.6388   6.8263   8.2105
     8.4601   8.9472   9.9167  10.5727  10.9434  11.2432  11.3180  11.5423
    11.8823  12.0109  12.3482  12.3882  12.4470  12.6156  12.7045  12.8804
    13.0619  13.1417  13.2212  13.3178  13.3540

     occupation numbers 
     1.0000   1.0000   1.0000   1.0000   1.0000   1.0000   1.0000   1.0000
     1.0000   1.0000   1.0000   1.0000   1.0000   1.0000   1.0000   1.0000
     1.0000   1.0000   1.0000   1.0000   1.0000   1.0000   1.0000   1.0000
     1.0000   1.0000   1.0000   1.0000   1.0000   1.0000   1.0000   1.0000
     1.0000   1.0000   1.0000   1.0000   1.0000   1.0000   1.0000   1.0000
     1.0000   1.0000   1.0000   1.0000   1.0000   1.0000   1.0000   1.0000
     1.0000   1.0000   1.0000   1.0000   1.0000   1.0000   1.0000   1.0000
     1.0000   1.0000   1.0000   1.0000   1.0000   1.0000   1.0000   1.0000
     1.0000   1.0000   1.0000   1.0000   1.0000   1.0000   1.0000   1.0000
     1.0000   1.0000   1.0000   1.0000   1.0000   1.0000   1.0000   1.0000
     1.0000   1.0000   1.0000   1.0000   1.0000   1.0000   1.0000   1.0000
     1.0000   1.0000   1.0000   1.0000   1.0000   1.0000   1.0000   1.0000
     1.0000   1.0000   1.0000   1.0000   1.0000   1.0000   1.0000   1.0000
     1.0000   1.0000   1.0000   1.0000   1.0000   1.0000   1.0000   1.0000
     1.0000   1.0000   1.0000   1.0000   1.0000   1.0000   1.0000   1.0000
     1.0000   1.0000   1.0000   1.0000   0.0000   0.0000   0.0000   0.0000
     0.0000   0.0000   0.0000   0.0000   0.0000   0.0000   0.0000   0.0000
     0.0000   0.0000   0.0000   0.0000   0.0000   0.0000   0.0000   0.0000
     0.0000   0.0000   0.0000   0.0000   0.0000

          k = 0.0000 0.0000 0.1730 ( 26756 PWs)   bands (ev):

   -68.5738 -68.3756 -67.6040 -67.5369 -53.1563 -35.3432 -35.3373 -35.2965
   -35.1740 -35.1172 -35.0906 -34.3857 -34.3426 -34.3375 -34.3137 -34.2975
   -34.2503 -29.4048 -29.3808 -29.2006 -23.8891 -23.6934 -15.4211 -15.3842
   -14.8560 -14.8123 -14.2324 -14.1348 -13.9325 -13.7849 -13.7471 -13.7309
   -13.7224 -13.6330 -13.4702 -13.3092 -13.2339 -13.2096 -13.1641 -13.1094
   -12.9925 -12.9153 -12.2778 -11.8931 -11.5185 -11.3926  -7.4318  -7.3738
    -7.3591  -7.2396  -7.1747  -7.1505  -4.5806  -4.5475  -3.2174  -3.1221
    -2.3574  -1.8252  -1.7860  -1.6701  -1.4101  -1.3690  -1.3273  -1.2995
    -1.2169  -0.9183  -0.6771  -0.6565  -0.4864  -0.4743  -0.4309  -0.2923
    -0.1858   0.0150   0.1782   0.4396   0.4975   0.6174   0.6653   0.8594
     0.9545   0.9814   1.0106   1.0781   1.1737   1.3014   1.4361   1.4595
     1.4977   1.5962   1.7466   1.7877   1.9158   1.9713   2.0055   2.1215
     2.1414   2.1835   2.2283   2.2591   2.3681   2.4401   2.5009   2.5378
     2.6050   2.6687   2.7213   2.8310   2.8790   2.9080   2.9315   2.9847
     3.0333   3.2388   3.2733   3.2985   3.3604   3.4757   3.5457   3.6573
     4.0868   4.2719   4.5087   4.6653   6.1272   6.6396   6.8238   8.2049
     8.7311   8.9569   9.4792  10.6866  10.9878  11.0907  11.3751  11.4575
    11.9570  12.2470  12.4185  12.4610  12.5015  12.5410  12.6914  12.8289
    12.9277  13.1122  13.1945  13.2029  13.3164

     occupation numbers 
     1.0000   1.0000   1.0000   1.0000   1.0000   1.0000   1.0000   1.0000
     1.0000   1.0000   1.0000   1.0000   1.0000   1.0000   1.0000   1.0000
     1.0000   1.0000   1.0000   1.0000   1.0000   1.0000   1.0000   1.0000
     1.0000   1.0000   1.0000   1.0000   1.0000   1.0000   1.0000   1.0000
     1.0000   1.0000   1.0000   1.0000   1.0000   1.0000   1.0000   1.0000
     1.0000   1.0000   1.0000   1.0000   1.0000   1.0000   1.0000   1.0000
     1.0000   1.0000   1.0000   1.0000   1.0000   1.0000   1.0000   1.0000
     1.0000   1.0000   1.0000   1.0000   1.0000   1.0000   1.0000   1.0000
     1.0000   1.0000   1.0000   1.0000   1.0000   1.0000   1.0000   1.0000
     1.0000   1.0000   1.0000   1.0000   1.0000   1.0000   1.0000   1.0000
     1.0000   1.0000   1.0000   1.0000   1.0000   1.0000   1.0000   1.0000
     1.0000   1.0000   1.0000   1.0000   1.0000   1.0000   1.0000   1.0000
     1.0000   1.0000   1.0000   1.0000   1.0000   1.0000   1.0000   1.0000
     1.0000   1.0000   1.0000   1.0000   1.0000   1.0000   1.0000   1.0000
     1.0000   1.0000   1.0000   1.0000   1.0000   1.0000   1.0000   1.0000
     1.0000   1.0000   1.0000   1.0000   0.0000   0.0000   0.0000   0.0000
     0.0000   0.0000   0.0000   0.0000   0.0000   0.0000   0.0000   0.0000
     0.0000   0.0000   0.0000   0.0000   0.0000   0.0000   0.0000   0.0000
     0.0000   0.0000   0.0000   0.0000   0.0000

          k = 0.0000 0.1920 0.0000 ( 26787 PWs)   bands (ev):

   -68.5738 -68.3756 -67.6040 -67.5369 -53.1563 -35.3432 -35.3373 -35.2966
   -35.1740 -35.1172 -35.0906 -34.3857 -34.3426 -34.3375 -34.3137 -34.2975
   -34.2503 -29.4048 -29.3808 -29.2006 -23.8891 -23.6934 -15.4178 -15.3659
   -14.9011 -14.8299 -14.2218 -14.1049 -13.9100 -13.7570 -13.7461 -13.7355
   -13.7203 -13.6310 -13.4742 -13.3125 -13.2273 -13.2247 -13.1898 -13.1359
   -12.9981 -12.8985 -12.2762 -11.8923 -11.5184 -11.3902  -7.4316  -7.3738
    -7.3591  -7.2401  -7.1745  -7.1507  -4.5228  -4.4797  -3.3756  -3.2571
    -2.4022  -1.7693  -1.6518  -1.6379  -1.4149  -1.3848  -1.2698  -1.2647
    -1.1949  -0.9530  -0.6637  -0.6131  -0.5926  -0.4730  -0.4634  -0.3137
    -0.1670   0.1580   0.1773   0.4252   0.4517   0.5603   0.6249   0.8359
     0.8975   1.0095   1.0726   1.1736   1.2508   1.3191   1.4158   1.4459
     1.5431   1.5443   1.6779   1.7230   1.8500   1.9200   2.0508   2.1181
     2.1392   2.1832   2.2817   2.2841   2.4208   2.4461   2.5208   2.5543
     2.6289   2.6673   2.7173   2.8066   2.8980   2.9224   2.9676   2.9698
     3.1517   3.2125   3.2302   3.2341   3.3261   3.4567   3.5519   3.6274
     4.0381   4.2925   4.4154   4.6567   6.1397   6.6414   6.8245   8.1737
     8.8283   8.9640   9.7999  10.1618  10.7617  11.2287  11.4501  11.8767
    11.9397  12.1023  12.3306  12.3709  12.4027  12.6117  12.6251  12.9871
    13.0415  13.0822  13.1806  13.2044  13.3618

     occupation numbers 
     1.0000   1.0000   1.0000   1.0000   1.0000   1.0000   1.0000   1.0000
     1.0000   1.0000   1.0000   1.0000   1.0000   1.0000   1.0000   1.0000
     1.0000   1.0000   1.0000   1.0000   1.0000   1.0000   1.0000   1.0000
     1.0000   1.0000   1.0000   1.0000   1.0000   1.0000   1.0000   1.0000
     1.0000   1.0000   1.0000   1.0000   1.0000   1.0000   1.0000   1.0000
     1.0000   1.0000   1.0000   1.0000   1.0000   1.0000   1.0000   1.0000
     1.0000   1.0000   1.0000   1.0000   1.0000   1.0000   1.0000   1.0000
     1.0000   1.0000   1.0000   1.0000   1.0000   1.0000   1.0000   1.0000
     1.0000   1.0000   1.0000   1.0000   1.0000   1.0000   1.0000   1.0000
     1.0000   1.0000   1.0000   1.0000   1.0000   1.0000   1.0000   1.0000
     1.0000   1.0000   1.0000   1.0000   1.0000   1.0000   1.0000   1.0000
     1.0000   1.0000   1.0000   1.0000   1.0000   1.0000   1.0000   1.0000
     1.0000   1.0000   1.0000   1.0000   1.0000   1.0000   1.0000   1.0000
     1.0000   1.0000   1.0000   1.0000   1.0000   1.0000   1.0000   1.0000
     1.0000   1.0000   1.0000   1.0000   1.0000   1.0000   1.0000   1.0000
     1.0000   1.0000   1.0000   1.0000   0.0000   0.0000   0.0000   0.0000
     0.0000   0.0000   0.0000   0.0000   0.0000   0.0000   0.0000   0.0000
     0.0000   0.0000   0.0000   0.0000   0.0000   0.0000   0.0000   0.0000
     0.0000   0.0000   0.0000   0.0000   0.0000

          k = 0.0000 0.1920 0.1730 ( 26783 PWs)   bands (ev):

   -68.5738 -68.3756 -67.6040 -67.5369 -53.1563 -35.3433 -35.3373 -35.2965
   -35.1740 -35.1172 -35.0906 -34.3857 -34.3426 -34.3375 -34.3137 -34.2975
   -34.2503 -29.4048 -29.3808 -29.2006 -23.8891 -23.6934 -15.4094 -15.3751
   -14.8909 -14.8411 -14.2155 -14.1120 -13.9026 -13.7674 -13.7466 -13.7272
   -13.7215 -13.6316 -13.4740 -13.3112 -13.2394 -13.2110 -13.1875 -13.1455
   -12.9887 -12.9042 -12.2757 -11.8929 -11.5172 -11.3916  -7.4316  -7.3738
    -7.3590  -7.2401  -7.1744  -7.1507  -4.5161  -4.4868  -3.3512  -3.2852
    -2.3844  -1.7554  -1.6699  -1.6205  -1.4376  -1.3627  -1.2913  -1.2681
    -1.2020  -0.9176  -0.6769  -0.6351  -0.5665  -0.5118  -0.4765  -0.3415
    -0.1531   0.1122   0.1864   0.3870   0.4775   0.5405   0.6509   0.8551
     0.9599   1.0709   1.1449   1.1925   1.2543   1.2776   1.4106   1.4290
     1.5320   1.5894   1.6286   1.7308   1.8828   1.8905   2.0325   2.1006
     2.1502   2.1864   2.2221   2.3086   2.4009   2.4424   2.5136   2.5642
     2.6242   2.6525   2.7061   2.8297   2.8949   2.9250   2.9671   2.9934
     3.0432   3.2123   3.2283   3.2710   3.3320   3.5001   3.5419   3.6315
     4.0390   4.2710   4.4481   4.6444   6.1400   6.6422   6.8216   8.1580
     8.9215   9.1307   9.7492   9.9926  10.4883  11.2163  11.4783  11.9449
    12.0088  12.2742  12.3548  12.4186  12.5032  12.6112  12.7001  12.9305
    13.0009  13.0761  13.1195  13.1542  13.2819

     occupation numbers 
     1.0000   1.0000   1.0000   1.0000   1.0000   1.0000   1.0000   1.0000
     1.0000   1.0000   1.0000   1.0000   1.0000   1.0000   1.0000   1.0000
     1.0000   1.0000   1.0000   1.0000   1.0000   1.0000   1.0000   1.0000
     1.0000   1.0000   1.0000   1.0000   1.0000   1.0000   1.0000   1.0000
     1.0000   1.0000   1.0000   1.0000   1.0000   1.0000   1.0000   1.0000
     1.0000   1.0000   1.0000   1.0000   1.0000   1.0000   1.0000   1.0000
     1.0000   1.0000   1.0000   1.0000   1.0000   1.0000   1.0000   1.0000
     1.0000   1.0000   1.0000   1.0000   1.0000   1.0000   1.0000   1.0000
     1.0000   1.0000   1.0000   1.0000   1.0000   1.0000   1.0000   1.0000
     1.0000   1.0000   1.0000   1.0000   1.0000   1.0000   1.0000   1.0000
     1.0000   1.0000   1.0000   1.0000   1.0000   1.0000   1.0000   1.0000
     1.0000   1.0000   1.0000   1.0000   1.0000   1.0000   1.0000   1.0000
     1.0000   1.0000   1.0000   1.0000   1.0000   1.0000   1.0000   1.0000
     1.0000   1.0000   1.0000   1.0000   1.0000   1.0000   1.0000   1.0000
     1.0000   1.0000   1.0000   1.0000   1.0000   1.0000   1.0000   1.0000
     1.0000   1.0000   1.0000   1.0000   0.0000   0.0000   0.0000   0.0000
     0.0000   0.0000   0.0000   0.0000   0.0000   0.0000   0.0000   0.0000
     0.0000   0.0000   0.0000   0.0000   0.0000   0.0000   0.0000   0.0000
     0.0000   0.0000   0.0000   0.0000   0.0000

          k = 0.1667 0.0000 0.0298 ( 26772 PWs)   bands (ev):

   -68.5738 -68.3756 -67.6040 -67.5369 -53.1563 -35.3433 -35.3372 -35.2965
   -35.1741 -35.1173 -35.0905 -34.3857 -34.3426 -34.3376 -34.3135 -34.2975
   -34.2504 -29.4049 -29.3808 -29.2007 -23.8890 -23.6932 -15.3972 -15.3448
   -14.8252 -14.7646 -14.2543 -14.1578 -13.9407 -13.8403 -13.7974 -13.7387
   -13.7236 -13.6334 -13.4637 -13.3212 -13.2779 -13.2662 -13.1384 -13.0685
   -13.0021 -12.9137 -12.2513 -11.9177 -11.5156 -11.3907  -7.4324  -7.3737
    -7.3584  -7.2421  -7.1744  -7.1484  -4.4486  -4.4039  -3.1568  -3.0155
    -2.3459  -1.9474  -1.9007  -1.6910  -1.4308  -1.3734  -1.3079  -1.2800
    -1.2497  -0.9133  -0.6783  -0.6510  -0.5760  -0.4054  -0.2758  -0.2183
    -0.1514   0.0691   0.1577   0.3125   0.4852   0.5557   0.6964   0.7471
     0.8540   0.9235   1.0227   1.1557   1.1825   1.2918   1.4033   1.4184
     1.4599   1.6517   1.7394   1.8392   1.9242   2.0024   2.0281   2.0776
     2.1434   2.1581   2.1809   2.2444   2.3941   2.4258   2.4968   2.5645
     2.5904   2.6934   2.7619   2.7709   2.8178   2.8588   2.9107   2.9397
     3.1173   3.2234   3.2290   3.2706   3.2957   3.3925   3.5424   3.6940
     4.0299   4.2659   4.4840   4.6732   6.1350   6.6535   6.7957   8.2123
     8.6860   8.9955  10.1055  10.6531  11.0714  11.2722  11.3431  11.7035
    11.8592  12.0961  12.2907  12.4052  12.4920  12.5855  12.7052  12.8128
    13.0023  13.0939  13.1824  13.2122  13.3431

     occupation numbers 
     1.0000   1.0000   1.0000   1.0000   1.0000   1.0000   1.0000   1.0000
     1.0000   1.0000   1.0000   1.0000   1.0000   1.0000   1.0000   1.0000
     1.0000   1.0000   1.0000   1.0000   1.0000   1.0000   1.0000   1.0000
     1.0000   1.0000   1.0000   1.0000   1.0000   1.0000   1.0000   1.0000
     1.0000   1.0000   1.0000   1.0000   1.0000   1.0000   1.0000   1.0000
     1.0000   1.0000   1.0000   1.0000   1.0000   1.0000   1.0000   1.0000
     1.0000   1.0000   1.0000   1.0000   1.0000   1.0000   1.0000   1.0000
     1.0000   1.0000   1.0000   1.0000   1.0000   1.0000   1.0000   1.0000
     1.0000   1.0000   1.0000   1.0000   1.0000   1.0000   1.0000   1.0000
     1.0000   1.0000   1.0000   1.0000   1.0000   1.0000   1.0000   1.0000
     1.0000   1.0000   1.0000   1.0000   1.0000   1.0000   1.0000   1.0000
     1.0000   1.0000   1.0000   1.0000   1.0000   1.0000   1.0000   1.0000
     1.0000   1.0000   1.0000   1.0000   1.0000   1.0000   1.0000   1.0000
     1.0000   1.0000   1.0000   1.0000   1.0000   1.0000   1.0000   1.0000
     1.0000   1.0000   1.0000   1.0000   1.0000   1.0000   1.0000   1.0000
     1.0000   1.0000   1.0000   1.0000   0.0000   0.0000   0.0000   0.0000
     0.0000   0.0000   0.0000   0.0000   0.0000   0.0000   0.0000   0.0000
     0.0000   0.0000   0.0000   0.0000   0.0000   0.0000   0.0000   0.0000
     0.0000   0.0000   0.0000   0.0000   0.0000

          k = 0.1667 0.0000 0.2028 ( 26774 PWs)   bands (ev):

   -68.5738 -68.3756 -67.6040 -67.5369 -53.1563 -35.3433 -35.3372 -35.2965
   -35.1741 -35.1173 -35.0905 -34.3857 -34.3426 -34.3376 -34.3135 -34.2975
   -34.2504 -29.4049 -29.3808 -29.2007 -23.8890 -23.6932 -15.3874 -15.3556
   -14.8126 -14.7785 -14.2455 -14.1676 -13.9307 -13.8500 -13.7909 -13.7463
   -13.7192 -13.6336 -13.4634 -13.3154 -13.2901 -13.2601 -13.1346 -13.0770
   -12.9927 -12.9186 -12.2505 -11.9185 -11.5143 -11.3923  -7.4324  -7.3737
    -7.3583  -7.2421  -7.1743  -7.1484  -4.4479  -4.4049  -3.1403  -3.0361
    -2.3256  -1.9517  -1.8952  -1.6777  -1.4480  -1.3573  -1.3265  -1.2863
    -1.2633  -0.8706  -0.6921  -0.6539  -0.5942  -0.4292  -0.2911  -0.2143
    -0.1584   0.0292   0.1815   0.3026   0.5086   0.5511   0.6664   0.7272
     0.8694   0.9510   1.0708   1.1120   1.3011   1.3467   1.4067   1.4602
     1.4664   1.6371   1.7208   1.8231   1.8843   1.9781   1.9967   2.0737
     2.0965   2.1528   2.2344   2.2865   2.3323   2.4274   2.4841   2.5824
     2.5895   2.6753   2.7413   2.7963   2.8204   2.8440   2.9085   2.9452
     3.0540   3.1980   3.2421   3.2822   3.3169   3.4403   3.5453   3.6931
     4.0188   4.2620   4.5023   4.6652   6.1345   6.6538   6.7936   8.2078
     8.7775   9.2613   9.5794  10.7524  11.1124  11.1484  11.4010  11.6043
    11.8167  12.2612  12.3979  12.4772  12.5607  12.6397  12.6667  12.8659
    12.9401  13.0305  13.1374  13.1946  13.3914

     occupation numbers 
     1.0000   1.0000   1.0000   1.0000   1.0000   1.0000   1.0000   1.0000
     1.0000   1.0000   1.0000   1.0000   1.0000   1.0000   1.0000   1.0000
     1.0000   1.0000   1.0000   1.0000   1.0000   1.0000   1.0000   1.0000
     1.0000   1.0000   1.0000   1.0000   1.0000   1.0000   1.0000   1.0000
     1.0000   1.0000   1.0000   1.0000   1.0000   1.0000   1.0000   1.0000
     1.0000   1.0000   1.0000   1.0000   1.0000   1.0000   1.0000   1.0000
     1.0000   1.0000   1.0000   1.0000   1.0000   1.0000   1.0000   1.0000
     1.0000   1.0000   1.0000   1.0000   1.0000   1.0000   1.0000   1.0000
     1.0000   1.0000   1.0000   1.0000   1.0000   1.0000   1.0000   1.0000
     1.0000   1.0000   1.0000   1.0000   1.0000   1.0000   1.0000   1.0000
     1.0000   1.0000   1.0000   1.0000   1.0000   1.0000   1.0000   1.0000
     1.0000   1.0000   1.0000   1.0000   1.0000   1.0000   1.0000   1.0000
     1.0000   1.0000   1.0000   1.0000   1.0000   1.0000   1.0000   1.0000
     1.0000   1.0000   1.0000   1.0000   1.0000   1.0000   1.0000   1.0000
     1.0000   1.0000   1.0000   1.0000   1.0000   1.0000   1.0000   1.0000
     1.0000   1.0000   1.0000   1.0000   0.0000   0.0000   0.0000   0.0000
     0.0000   0.0000   0.0000   0.0000   0.0000   0.0000   0.0000   0.0000
     0.0000   0.0000   0.0000   0.0000   0.0000   0.0000   0.0000   0.0000
     0.0000   0.0000   0.0000   0.0000   0.0000

          k = 0.1667 0.0000-0.1432 ( 26772 PWs)   bands (ev):

   -68.5738 -68.3756 -67.6040 -67.5369 -53.1563 -35.3433 -35.3372 -35.2965
   -35.1741 -35.1173 -35.0905 -34.3857 -34.3426 -34.3376 -34.3135 -34.2975
   -34.2504 -29.4049 -29.3808 -29.2007 -23.8890 -23.6932 -15.3902 -15.3526
   -14.8167 -14.7742 -14.2470 -14.1657 -13.9353 -13.8410 -13.7971 -13.7390
   -13.7276 -13.6318 -13.4637 -13.3181 -13.2830 -13.2643 -13.1320 -13.0818
   -12.9893 -12.9196 -12.2509 -11.9181 -11.5141 -11.3923  -7.4325  -7.3737
    -7.3583  -7.2421  -7.1743  -7.1484  -4.4359  -4.4169  -3.1378  -3.0383
    -2.3323  -1.9311  -1.9183  -1.6740  -1.4477  -1.3645  -1.3159  -1.2840
    -1.2625  -0.8841  -0.6859  -0.6657  -0.5574  -0.4431  -0.2968  -0.2110
    -0.1417   0.0064   0.1832   0.3028   0.4641   0.5819   0.7482   0.7750
     0.8791   0.9487   0.9659   1.2037   1.2356   1.2523   1.4061   1.4393
     1.4658   1.6197   1.7279   1.8319   1.9225   1.9884   2.0082   2.0729
     2.1155   2.1430   2.1998   2.2600   2.3564   2.4520   2.5296   2.5675
     2.6117   2.6338   2.7600   2.7849   2.8217   2.8617   2.8977   2.9666
     3.0633   3.2024   3.2260   3.2856   3.3328   3.4361   3.4945   3.6994
     4.0169   4.2657   4.5114   4.6563   6.1352   6.6532   6.7960   8.2078
     8.8468   8.9702   9.8554  10.7808  11.1277  11.1599  11.4242  11.6068
    11.8303  12.2393  12.3281  12.4259  12.4883  12.6099  12.6353  12.8932
    12.9052  12.9977  13.1713  13.2482  13.3823

     occupation numbers 
     1.0000   1.0000   1.0000   1.0000   1.0000   1.0000   1.0000   1.0000
     1.0000   1.0000   1.0000   1.0000   1.0000   1.0000   1.0000   1.0000
     1.0000   1.0000   1.0000   1.0000   1.0000   1.0000   1.0000   1.0000
     1.0000   1.0000   1.0000   1.0000   1.0000   1.0000   1.0000   1.0000
     1.0000   1.0000   1.0000   1.0000   1.0000   1.0000   1.0000   1.0000
     1.0000   1.0000   1.0000   1.0000   1.0000   1.0000   1.0000   1.0000
     1.0000   1.0000   1.0000   1.0000   1.0000   1.0000   1.0000   1.0000
     1.0000   1.0000   1.0000   1.0000   1.0000   1.0000   1.0000   1.0000
     1.0000   1.0000   1.0000   1.0000   1.0000   1.0000   1.0000   1.0000
     1.0000   1.0000   1.0000   1.0000   1.0000   1.0000   1.0000   1.0000
     1.0000   1.0000   1.0000   1.0000   1.0000   1.0000   1.0000   1.0000
     1.0000   1.0000   1.0000   1.0000   1.0000   1.0000   1.0000   1.0000
     1.0000   1.0000   1.0000   1.0000   1.0000   1.0000   1.0000   1.0000
     1.0000   1.0000   1.0000   1.0000   1.0000   1.0000   1.0000   1.0000
     1.0000   1.0000   1.0000   1.0000   1.0000   1.0000   1.0000   1.0000
     1.0000   1.0000   1.0000   1.0000   0.0000   0.0000   0.0000   0.0000
     0.0000   0.0000   0.0000   0.0000   0.0000   0.0000   0.0000   0.0000
     0.0000   0.0000   0.0000   0.0000   0.0000   0.0000   0.0000   0.0000
     0.0000   0.0000   0.0000   0.0000   0.0000

          k = 0.1667 0.1920 0.0298 ( 26762 PWs)   bands (ev):

   -68.5738 -68.3756 -67.6040 -67.5369 -53.1563 -35.3433 -35.3372 -35.2965
   -35.1740 -35.1173 -35.0905 -34.3857 -34.3426 -34.3375 -34.3135 -34.2975
   -34.2504 -29.4049 -29.3808 -29.2007 -23.8890 -23.6932 -15.3876 -15.3368
   -14.8565 -14.7913 -14.2355 -14.1359 -13.9147 -13.8270 -13.7993 -13.7450
   -13.7202 -13.6308 -13.4691 -13.3222 -13.2827 -13.2760 -13.1557 -13.0864
   -12.9961 -12.9051 -12.2501 -11.9176 -11.5146 -11.3901  -7.4323  -7.3737
    -7.3583  -7.2425  -7.1741  -7.1485  -4.3929  -4.3466  -3.2958  -3.1811
    -2.3732  -1.8346  -1.7520  -1.6578  -1.4368  -1.4186  -1.3166  -1.2317
    -1.2251  -0.8950  -0.6742  -0.6077  -0.5726  -0.4670  -0.3663  -0.2899
    -0.1229   0.1189   0.1658   0.3142   0.4528   0.5092   0.6179   0.7958
     0.9006   0.9719   1.0985   1.1485   1.2309   1.3333   1.3598   1.4312
     1.4888   1.6092   1.6658   1.7480   1.8485   1.9867   2.0517   2.1031
     2.1408   2.1670   2.2405   2.3288   2.3896   2.4401   2.5030   2.5568
     2.6309   2.6781   2.7494   2.8176   2.8388   2.8697   2.8949   2.9397
     3.0991   3.1695   3.2054   3.2594   3.2792   3.4210   3.5688   3.6308
     4.0044   4.2618   4.4466   4.6538   6.1466   6.6559   6.7930   8.1777
     8.8579   9.1642   9.9837  10.3189  10.8719  11.2567  11.4704  11.8827
    11.9443  12.1488  12.2605  12.4563  12.5076  12.6025  12.6689  12.9002
    12.9349  13.0411  13.1896  13.2300  13.2856

     occupation numbers 
     1.0000   1.0000   1.0000   1.0000   1.0000   1.0000   1.0000   1.0000
     1.0000   1.0000   1.0000   1.0000   1.0000   1.0000   1.0000   1.0000
     1.0000   1.0000   1.0000   1.0000   1.0000   1.0000   1.0000   1.0000
     1.0000   1.0000   1.0000   1.0000   1.0000   1.0000   1.0000   1.0000
     1.0000   1.0000   1.0000   1.0000   1.0000   1.0000   1.0000   1.0000
     1.0000   1.0000   1.0000   1.0000   1.0000   1.0000   1.0000   1.0000
     1.0000   1.0000   1.0000   1.0000   1.0000   1.0000   1.0000   1.0000
     1.0000   1.0000   1.0000   1.0000   1.0000   1.0000   1.0000   1.0000
     1.0000   1.0000   1.0000   1.0000   1.0000   1.0000   1.0000   1.0000
     1.0000   1.0000   1.0000   1.0000   1.0000   1.0000   1.0000   1.0000
     1.0000   1.0000   1.0000   1.0000   1.0000   1.0000   1.0000   1.0000
     1.0000   1.0000   1.0000   1.0000   1.0000   1.0000   1.0000   1.0000
     1.0000   1.0000   1.0000   1.0000   1.0000   1.0000   1.0000   1.0000
     1.0000   1.0000   1.0000   1.0000   1.0000   1.0000   1.0000   1.0000
     1.0000   1.0000   1.0000   1.0000   1.0000   1.0000   1.0000   1.0000
     1.0000   1.0000   1.0000   1.0000   0.0000   0.0000   0.0000   0.0000
     0.0000   0.0000   0.0000   0.0000   0.0000   0.0000   0.0000   0.0000
     0.0000   0.0000   0.0000   0.0000   0.0000   0.0000   0.0000   0.0000
     0.0000   0.0000   0.0000   0.0000   0.0000

          k = 0.1667 0.1920 0.2028 ( 26761 PWs)   bands (ev):

   -68.5738 -68.3756 -67.6040 -67.5369 -53.1563 -35.3433 -35.3372 -35.2965
   -35.1740 -35.1173 -35.0905 -34.3857 -34.3426 -34.3376 -34.3135 -34.2975
   -34.2504 -29.4049 -29.3808 -29.2007 -23.8890 -23.6932 -15.3772 -15.3482
   -14.8448 -14.8042 -14.2271 -14.1451 -13.9060 -13.8362 -13.7914 -13.7517
   -13.7161 -13.6321 -13.4687 -13.3169 -13.2978 -13.2667 -13.1523 -13.0946
   -12.9861 -12.9108 -12.2492 -11.9185 -11.5133 -11.3915  -7.4323  -7.3737
    -7.3582  -7.2426  -7.1740  -7.1485  -4.3891  -4.3508  -3.2755  -3.2051
    -2.3544  -1.8410  -1.7458  -1.6448  -1.4570  -1.4000  -1.3191  -1.2691
    -1.2186  -0.8519  -0.6847  -0.6160  -0.5801  -0.4934  -0.3849  -0.3034
    -0.1124   0.0811   0.1875   0.3020   0.4462   0.5012   0.6075   0.7992
     0.9309   1.0312   1.1306   1.1833   1.2662   1.3372   1.3707   1.4298
     1.5085   1.5877   1.6501   1.7445   1.8642   1.9662   2.0212   2.0946
     2.1229   2.1592   2.2046   2.3293   2.3739   2.4469   2.5254   2.5638
     2.6184   2.6590   2.7607   2.8106   2.8407   2.8762   2.8983   2.9648
     3.0115   3.1634   3.1849   3.2779   3.3044   3.4522   3.5746   3.6384
     3.9957   4.2591   4.4650   4.6461   6.1464   6.6561   6.7906   8.1676
     8.8568   9.4734   9.8495  10.1871  10.5882  11.2344  11.4893  11.8805
    12.0454  12.2442  12.3546  12.4942  12.5979  12.6581  12.7400  12.8620
    12.9633  13.0304  13.0670  13.1792  13.2071

     occupation numbers 
     1.0000   1.0000   1.0000   1.0000   1.0000   1.0000   1.0000   1.0000
     1.0000   1.0000   1.0000   1.0000   1.0000   1.0000   1.0000   1.0000
     1.0000   1.0000   1.0000   1.0000   1.0000   1.0000   1.0000   1.0000
     1.0000   1.0000   1.0000   1.0000   1.0000   1.0000   1.0000   1.0000
     1.0000   1.0000   1.0000   1.0000   1.0000   1.0000   1.0000   1.0000
     1.0000   1.0000   1.0000   1.0000   1.0000   1.0000   1.0000   1.0000
     1.0000   1.0000   1.0000   1.0000   1.0000   1.0000   1.0000   1.0000
     1.0000   1.0000   1.0000   1.0000   1.0000   1.0000   1.0000   1.0000
     1.0000   1.0000   1.0000   1.0000   1.0000   1.0000   1.0000   1.0000
     1.0000   1.0000   1.0000   1.0000   1.0000   1.0000   1.0000   1.0000
     1.0000   1.0000   1.0000   1.0000   1.0000   1.0000   1.0000   1.0000
     1.0000   1.0000   1.0000   1.0000   1.0000   1.0000   1.0000   1.0000
     1.0000   1.0000   1.0000   1.0000   1.0000   1.0000   1.0000   1.0000
     1.0000   1.0000   1.0000   1.0000   1.0000   1.0000   1.0000   1.0000
     1.0000   1.0000   1.0000   1.0000   1.0000   1.0000   1.0000   1.0000
     1.0000   1.0000   1.0000   1.0000   0.0000   0.0000   0.0000   0.0000
     0.0000   0.0000   0.0000   0.0000   0.0000   0.0000   0.0000   0.0000
     0.0000   0.0000   0.0000   0.0000   0.0000   0.0000   0.0000   0.0000
     0.0000   0.0000   0.0000   0.0000   0.0000

          k = 0.1667 0.1920-0.1432 ( 26775 PWs)   bands (ev):

   -68.5738 -68.3756 -67.6040 -67.5369 -53.1563 -35.3433 -35.3372 -35.2965
   -35.1741 -35.1173 -35.0905 -34.3857 -34.3426 -34.3376 -34.3135 -34.2975
   -34.2504 -29.4049 -29.3808 -29.2007 -23.8890 -23.6932 -15.3803 -15.3448
   -14.8485 -14.8004 -14.2285 -14.1434 -13.9100 -13.8278 -13.7978 -13.7417
   -13.7277 -13.6295 -13.4691 -13.3183 -13.2933 -13.2696 -13.1493 -13.0989
   -12.9839 -12.9114 -12.2496 -11.9181 -11.5131 -11.3916  -7.4324  -7.3737
    -7.3582  -7.2426  -7.1740  -7.1485  -4.3787  -4.3613  -3.2716  -3.2089
    -2.3606  -1.8200  -1.7703  -1.6438  -1.4570  -1.3976  -1.3198  -1.2571
    -1.2201  -0.8671  -0.6796  -0.6111  -0.5700  -0.4879  -0.3918  -0.3054
    -0.1139   0.0887   0.1674   0.2938   0.4431   0.5084   0.6989   0.8091
     0.9106   1.0339   1.0896   1.1785   1.2461   1.3060   1.3478   1.4383
     1.4990   1.5988   1.6456   1.7470   1.8337   1.9560   2.0283   2.0957
     2.1311   2.1731   2.2564   2.3077   2.4113   2.4785   2.5076   2.5603
     2.6130   2.6409   2.7704   2.7968   2.8438   2.8560   2.8960   2.9548
     3.0740   3.1653   3.1824   3.2753   3.3208   3.4578   3.5237   3.6410
     3.9947   4.2491   4.4798   4.6372   6.1470   6.6557   6.7935   8.1644
     8.8827   9.2901  10.0480  10.1473  10.6721  11.2828  11.5376  11.8915
    11.9706  12.2300  12.3368  12.3726  12.5281  12.5969  12.7355  12.8733
    12.9375  13.0462  13.1499  13.2000  13.2453

     occupation numbers 
     1.0000   1.0000   1.0000   1.0000   1.0000   1.0000   1.0000   1.0000
     1.0000   1.0000   1.0000   1.0000   1.0000   1.0000   1.0000   1.0000
     1.0000   1.0000   1.0000   1.0000   1.0000   1.0000   1.0000   1.0000
     1.0000   1.0000   1.0000   1.0000   1.0000   1.0000   1.0000   1.0000
     1.0000   1.0000   1.0000   1.0000   1.0000   1.0000   1.0000   1.0000
     1.0000   1.0000   1.0000   1.0000   1.0000   1.0000   1.0000   1.0000
     1.0000   1.0000   1.0000   1.0000   1.0000   1.0000   1.0000   1.0000
     1.0000   1.0000   1.0000   1.0000   1.0000   1.0000   1.0000   1.0000
     1.0000   1.0000   1.0000   1.0000   1.0000   1.0000   1.0000   1.0000
     1.0000   1.0000   1.0000   1.0000   1.0000   1.0000   1.0000   1.0000
     1.0000   1.0000   1.0000   1.0000   1.0000   1.0000   1.0000   1.0000
     1.0000   1.0000   1.0000   1.0000   1.0000   1.0000   1.0000   1.0000
     1.0000   1.0000   1.0000   1.0000   1.0000   1.0000   1.0000   1.0000
     1.0000   1.0000   1.0000   1.0000   1.0000   1.0000   1.0000   1.0000
     1.0000   1.0000   1.0000   1.0000   1.0000   1.0000   1.0000   1.0000
     1.0000   1.0000   1.0000   1.0000   0.0000   0.0000   0.0000   0.0000
     0.0000   0.0000   0.0000   0.0000   0.0000   0.0000   0.0000   0.0000
     0.0000   0.0000   0.0000   0.0000   0.0000   0.0000   0.0000   0.0000
     0.0000   0.0000   0.0000   0.0000   0.0000

          k = 0.3333 0.0000 0.0596 ( 26753 PWs)   bands (ev):

   -68.5738 -68.3756 -67.6040 -67.5369 -53.1563 -35.3436 -35.3370 -35.2963
   -35.1742 -35.1174 -35.0904 -34.3856 -34.3426 -34.3377 -34.3131 -34.2976
   -34.2505 -29.4049 -29.3807 -29.2010 -23.8887 -23.6930 -15.3266 -15.2797
   -14.7060 -14.6604 -14.3377 -14.2832 -13.9992 -13.9497 -13.8148 -13.7512
   -13.6748 -13.6137 -13.4550 -13.4196 -13.3958 -13.3006 -13.0987 -13.0175
   -13.0010 -12.9281 -12.1811 -11.9861 -11.5082 -11.3905  -7.4338  -7.3732
    -7.3568  -7.2470  -7.1737  -7.1440  -4.1210  -4.0668  -2.9843  -2.8720
    -2.4409  -2.2381  -1.9761  -1.7038  -1.5096  -1.3998  -1.2958  -1.2571
    -1.2215  -0.8505  -0.7208  -0.6292  -0.5938  -0.3898  -0.2137  -0.1108
    -0.0553   0.1007   0.1682   0.2230   0.3600   0.5138   0.5820   0.6491
     0.7346   0.8803   0.9851   1.0999   1.2110   1.2818   1.3805   1.4665
     1.5423   1.7059   1.7432   1.8275   1.9116   1.9519   2.0084   2.0697
     2.1070   2.2196   2.2456   2.2623   2.2986   2.3936   2.4479   2.5012
     2.5813   2.6878   2.7148   2.7608   2.7813   2.8166   2.9055   2.9227
     3.0449   3.0968   3.1775   3.2128   3.2177   3.3342   3.5975   3.7576
     3.9353   4.1911   4.4970   4.6881   6.1485   6.6813   6.7337   8.2164
     8.7701   9.6163  10.5214  10.7873  11.2740  11.3043  11.4706  11.5876
    11.9657  12.0692  12.1710  12.4279  12.5172  12.5690  12.7148  12.8087
    12.9234  13.0162  13.0926  13.2991  13.4290

     occupation numbers 
     1.0000   1.0000   1.0000   1.0000   1.0000   1.0000   1.0000   1.0000
     1.0000   1.0000   1.0000   1.0000   1.0000   1.0000   1.0000   1.0000
     1.0000   1.0000   1.0000   1.0000   1.0000   1.0000   1.0000   1.0000
     1.0000   1.0000   1.0000   1.0000   1.0000   1.0000   1.0000   1.0000
     1.0000   1.0000   1.0000   1.0000   1.0000   1.0000   1.0000   1.0000
     1.0000   1.0000   1.0000   1.0000   1.0000   1.0000   1.0000   1.0000
     1.0000   1.0000   1.0000   1.0000   1.0000   1.0000   1.0000   1.0000
     1.0000   1.0000   1.0000   1.0000   1.0000   1.0000   1.0000   1.0000
     1.0000   1.0000   1.0000   1.0000   1.0000   1.0000   1.0000   1.0000
     1.0000   1.0000   1.0000   1.0000   1.0000   1.0000   1.0000   1.0000
     1.0000   1.0000   1.0000   1.0000   1.0000   1.0000   1.0000   1.0000
     1.0000   1.0000   1.0000   1.0000   1.0000   1.0000   1.0000   1.0000
     1.0000   1.0000   1.0000   1.0000   1.0000   1.0000   1.0000   1.0000
     1.0000   1.0000   1.0000   1.0000   1.0000   1.0000   1.0000   1.0000
     1.0000   1.0000   1.0000   1.0000   1.0000   1.0000   1.0000   1.0000
     1.0000   1.0000   1.0000   1.0000   0.0000   0.0000   0.0000   0.0000
     0.0000   0.0000   0.0000   0.0000   0.0000   0.0000   0.0000   0.0000
     0.0000   0.0000   0.0000   0.0000   0.0000   0.0000   0.0000   0.0000
     0.0000   0.0000   0.0000   0.0000   0.0000

          k = 0.3333 0.0000 0.2326 ( 26737 PWs)   bands (ev):

   -68.5738 -68.3756 -67.6040 -67.5369 -53.1563 -35.3435 -35.3370 -35.2963
   -35.1742 -35.1173 -35.0904 -34.3856 -34.3426 -34.3377 -34.3131 -34.2976
   -34.2505 -29.4049 -29.3807 -29.2010 -23.8887 -23.6930 -15.3142 -15.2931
   -14.6942 -14.6733 -14.3251 -14.2960 -13.9882 -13.9583 -13.8147 -13.7502
   -13.6739 -13.6146 -13.4570 -13.4177 -13.3965 -13.3005 -13.0970 -13.0254
   -12.9901 -12.9329 -12.1802 -11.9870 -11.5064 -11.3924  -7.4338  -7.3731
    -7.3568  -7.2470  -7.1736  -7.1440  -4.1176  -4.0707  -2.9722  -2.8863
    -2.4208  -2.2650  -1.9586  -1.6876  -1.5256  -1.3722  -1.3008  -1.2860
    -1.2296  -0.8164  -0.7247  -0.6454  -0.5910  -0.4190  -0.2263  -0.1121
    -0.0644   0.1007   0.1833   0.2140   0.4026   0.4743   0.5647   0.6374
     0.7544   0.9033   0.9845   1.0996   1.2255   1.3261   1.4075   1.4945
     1.5587   1.6890   1.7540   1.8277   1.8759   1.9308   1.9889   2.0654
     2.1034   2.2078   2.2099   2.2184   2.2945   2.4065   2.4604   2.5208
     2.6154   2.7109   2.7132   2.7227   2.7874   2.8385   2.8865   2.9161
     3.0403   3.0952   3.1171   3.2218   3.2883   3.3416   3.5792   3.7629
     3.9150   4.2073   4.5122   4.6798   6.1475   6.6807   6.7342   8.2137
     8.7739   9.9107  10.0952  10.8385  11.2399  11.3574  11.5038  11.5836
    11.9187  12.0182  12.1366  12.3603  12.6160  12.6688  12.7902  12.8667
    12.9340  12.9905  13.0951  13.2188  13.3407

     occupation numbers 
     1.0000   1.0000   1.0000   1.0000   1.0000   1.0000   1.0000   1.0000
     1.0000   1.0000   1.0000   1.0000   1.0000   1.0000   1.0000   1.0000
     1.0000   1.0000   1.0000   1.0000   1.0000   1.0000   1.0000   1.0000
     1.0000   1.0000   1.0000   1.0000   1.0000   1.0000   1.0000   1.0000
     1.0000   1.0000   1.0000   1.0000   1.0000   1.0000   1.0000   1.0000
     1.0000   1.0000   1.0000   1.0000   1.0000   1.0000   1.0000   1.0000
     1.0000   1.0000   1.0000   1.0000   1.0000   1.0000   1.0000   1.0000
     1.0000   1.0000   1.0000   1.0000   1.0000   1.0000   1.0000   1.0000
     1.0000   1.0000   1.0000   1.0000   1.0000   1.0000   1.0000   1.0000
     1.0000   1.0000   1.0000   1.0000   1.0000   1.0000   1.0000   1.0000
     1.0000   1.0000   1.0000   1.0000   1.0000   1.0000   1.0000   1.0000
     1.0000   1.0000   1.0000   1.0000   1.0000   1.0000   1.0000   1.0000
     1.0000   1.0000   1.0000   1.0000   1.0000   1.0000   1.0000   1.0000
     1.0000   1.0000   1.0000   1.0000   1.0000   1.0000   1.0000   1.0000
     1.0000   1.0000   1.0000   1.0000   1.0000   1.0000   1.0000   1.0000
     1.0000   1.0000   1.0000   1.0000   0.0000   0.0000   0.0000   0.0000
     0.0000   0.0000   0.0000   0.0000   0.0000   0.0000   0.0000   0.0000
     0.0000   0.0000   0.0000   0.0000   0.0000   0.0000   0.0000   0.0000
     0.0000   0.0000   0.0000   0.0000   0.0000

          k = 0.3333 0.0000-0.1134 ( 26755 PWs)   bands (ev):

   -68.5738 -68.3756 -67.6040 -67.5369 -53.1563 -35.3435 -35.3370 -35.2963
   -35.1742 -35.1174 -35.0904 -34.3856 -34.3426 -34.3377 -34.3131 -34.2976
   -34.2505 -29.4049 -29.3807 -29.2010 -23.8887 -23.6930 -15.3199 -15.2870
   -14.6992 -14.6680 -14.3310 -14.2897 -13.9952 -13.9512 -13.8165 -13.7425
   -13.6891 -13.6072 -13.4587 -13.4121 -13.3990 -13.3014 -13.0944 -13.0329
   -12.9844 -12.9335 -12.1813 -11.9860 -11.5063 -11.3924  -7.4339  -7.3731
    -7.3567  -7.2471  -7.1736  -7.1440  -4.0980  -4.0905  -2.9705  -2.8891
    -2.4291  -2.2480  -1.9779  -1.6778  -1.5315  -1.3856  -1.2857  -1.2647
    -1.2400  -0.8310  -0.7146  -0.6578  -0.5745  -0.4248  -0.2290  -0.1032
    -0.0450   0.0789   0.1795   0.2039   0.3336   0.5545   0.6190   0.7098
     0.7669   0.8357   0.9376   1.1475   1.2192   1.2566   1.3486   1.4925
     1.5560   1.6959   1.7340   1.8318   1.8880   1.9439   1.9751   2.0880
     2.1044   2.1686   2.2207   2.2499   2.3511   2.4219   2.4694   2.5341
     2.6176   2.6557   2.6925   2.7304   2.7709   2.8391   2.8913   2.9565
     3.0654   3.0712   3.1272   3.2155   3.2972   3.3444   3.5379   3.7559
     3.9270   4.2031   4.5218   4.6719   6.1482   6.6805   6.7360   8.2138
     8.8021   9.5927  10.4589  10.9046  11.1580  11.3859  11.5719  11.6012
[...]
     atom   13 type  1   force =    -0.51335714   -0.98901175   -5.15131726
     atom   14 type  1   force =     0.51336114   -0.98900974    5.15131275
     atom   15 type  6   force =    -0.52398114   -1.40891271   11.07375547
     atom   16 type  6   force =     0.52372628   -1.40891017  -11.07355368
     atom   17 type  6   force =     0.56296615    1.89675967  -10.40273424
     atom   18 type  6   force =    -0.56323821    1.89675820   10.40293550
     atom   19 type  6   force =     2.20521426    5.60364177    7.87155892
     atom   20 type  6   force =    -2.20547779    5.60366398   -7.87137358
     atom   21 type  6   force =    -4.67998184   -5.10534738  -10.77350500
     atom   22 type  6   force =     4.67971122   -5.10532002   10.77372997
     atom   23 type  6   force =    -2.08612968   -1.46970687   10.56816028
     atom   24 type  6   force =     2.08589205   -1.46971550  -10.56793055
     atom   25 type  6   force =     0.98187201    0.07966332   11.93878694
     atom   26 type  6   force =    -0.98215992    0.07966028  -11.93859254
     atom   27 type  6   force =     0.57801546    0.65670362  -11.67633035
     atom   28 type  6   force =    -0.57825841    0.65668766   11.67650820
     atom   29 type  6   force =    -0.16620290    1.96752816   11.83588748
     atom   30 type  6   force =     0.16594245    1.96751328  -11.83571960
     atom   31 type  6   force =     0.94057710    1.89229314    9.66761571
     atom   32 type  6   force =    -0.94083309    1.89229604   -9.66744140
     atom   33 type  6   force =    -1.17239060   -2.79860812  -10.82537442
     atom   34 type  6   force =     1.17211180   -2.79861655   10.82557477
     atom   35 type  6   force =    -5.72746828   -1.89035132   11.65627695
     atom   36 type  6   force =     5.72719028   -1.89036293  -11.65611047
     atom   37 type  6   force =     0.52630910    0.20160291   12.66604675
     atom   38 type  6   force =    -0.52658548    0.20160342  -12.66585358
     atom   39 type  3   force =    -0.56763187   -0.08003713    5.00221569
     atom   40 type  3   force =     0.56761001   -0.08003776   -5.00222615
     atom   41 type  3   force =     0.07270899   -0.28647522    5.25750178
     atom   42 type  3   force =    -0.07272975   -0.28647681   -5.25750547
     atom   43 type  2   force =    -0.00019115   -3.16811343    0.00022342
     The core correction contribution to forces
     atom    1 type  4   force =     0.00000000   -0.00111420    0.00000000
     atom    2 type  4   force =     0.00000097    0.00115857   -0.00000000
     atom    3 type  5   force =    -0.00000140   -0.00014201    0.00000145
     atom    4 type  5   force =    -0.00000140   -0.00004457    0.00000145
     atom    5 type  5   force =    -0.00000214   -0.00031697    0.00000145
     atom    6 type  5   force =    -0.00000214    0.00007393    0.00000145
     atom    7 type  7   force =     0.00094692    0.00873229   -0.00334700
     atom    8 type  7   force =    -0.00094580    0.00873232    0.00334649
     atom    9 type  7   force =    -0.00014252   -0.00132397   -0.01332443
     atom   10 type  7   force =     0.00014341   -0.00132399    0.01332366
     atom   11 type  7   force =    -0.00003067   -0.00852484    0.02357735
     atom   12 type  7   force =     0.00003118   -0.00852473   -0.02357818
     atom   13 type  1   force =    -0.00177616   -0.00050007   -0.00337511
     atom   14 type  1   force =     0.00177677   -0.00050005    0.00337466
     atom   15 type  6   force =     0.00016701   -0.00088100    0.00630759
     atom   16 type  6   force =    -0.00016671   -0.00088106   -0.00630754
     atom   17 type  6   force =    -0.00025805    0.00037617   -0.00715932
     atom   18 type  6   force =     0.00025840    0.00037617    0.00715929
     atom   19 type  6   force =    -0.00133893   -0.00228530    0.00865903
     atom   20 type  6   force =     0.00133923   -0.00228538   -0.00865913
     atom   21 type  6   force =     0.00266230    0.00232655   -0.00421091
     atom   22 type  6   force =    -0.00266206    0.00232652    0.00421076
     atom   23 type  6   force =     0.00483424   -0.00189850   -0.00567447
     atom   24 type  6   force =    -0.00483421   -0.00189841    0.00567426
     atom   25 type  6   force =    -0.00344292    0.00028619   -0.00684638
     atom   26 type  6   force =     0.00344334    0.00028621    0.00684610
     atom   27 type  6   force =    -0.00189617    0.00220103    0.00743702
     atom   28 type  6   force =     0.00189618    0.00220118   -0.00743723
     atom   29 type  6   force =     0.00033309   -0.00192002   -0.00750382
     atom   30 type  6   force =    -0.00033307   -0.00191983    0.00750359
     atom   31 type  6   force =    -0.00220377   -0.00293393   -0.00684331
     atom   32 type  6   force =     0.00220407   -0.00293396    0.00684309
     atom   33 type  6   force =     0.00128115    0.00412003    0.00600126
     atom   34 type  6   force =    -0.00128098    0.00412014   -0.00600153
     atom   35 type  6   force =     0.00435419    0.00185670    0.01204452
     atom   36 type  6   force =    -0.00435371    0.00185673   -0.01204424
     atom   37 type  6   force =    -0.00015059   -0.00142745    0.01127761
     atom   38 type  6   force =     0.00015112   -0.00142739   -0.01127742
     atom   39 type  3   force =     0.00000000    0.00000000    0.00000000
     atom   40 type  3   force =     0.00000000    0.00000000    0.00000000
     atom   41 type  3   force =     0.00000000    0.00000000    0.00000000
     atom   42 type  3   force =     0.00000000    0.00000000    0.00000000
     atom   43 type  2   force =     0.00000469   -0.00430299   -0.00000476
     The Hubbard contrib.    to forces
     atom    1 type  4   force =     0.00000000    0.00000000    0.00000000
     atom    2 type  4   force =     0.00000000    0.00000000    0.00000000
     atom    3 type  5   force =     0.00000000    0.00000000    0.00000000
     atom    4 type  5   force =     0.00000000    0.00000000    0.00000000
     atom    5 type  5   force =     0.00000000    0.00000000    0.00000000
     atom    6 type  5   force =     0.00000000    0.00000000    0.00000000
     atom    7 type  7   force =     0.00000000    0.00000000    0.00000000
     atom    8 type  7   force =     0.00000000    0.00000000    0.00000000
     atom    9 type  7   force =     0.00000000    0.00000000    0.00000000
     atom   10 type  7   force =     0.00000000    0.00000000    0.00000000
     atom   11 type  7   force =     0.00000000    0.00000000    0.00000000
     atom   12 type  7   force =     0.00000000    0.00000000    0.00000000
     atom   13 type  1   force =     0.00000000    0.00000000    0.00000000
     atom   14 type  1   force =     0.00000000    0.00000000    0.00000000
     atom   15 type  6   force =     0.00000000    0.00000000    0.00000000
     atom   16 type  6   force =     0.00000000    0.00000000    0.00000000
     atom   17 type  6   force =     0.00000000    0.00000000    0.00000000
     atom   18 type  6   force =     0.00000000    0.00000000    0.00000000
     atom   19 type  6   force =     0.00000000    0.00000000    0.00000000
     atom   20 type  6   force =     0.00000000    0.00000000    0.00000000
     atom   21 type  6   force =     0.00000000    0.00000000    0.00000000
     atom   22 type  6   force =     0.00000000    0.00000000    0.00000000
     atom   23 type  6   force =     0.00000000    0.00000000    0.00000000
     atom   24 type  6   force =     0.00000000    0.00000000    0.00000000
     atom   25 type  6   force =     0.00000000    0.00000000    0.00000000
     atom   26 type  6   force =     0.00000000    0.00000000    0.00000000
     atom   27 type  6   force =     0.00000000    0.00000000    0.00000000
     atom   28 type  6   force =     0.00000000    0.00000000    0.00000000
     atom   29 type  6   force =     0.00000000    0.00000000    0.00000000
     atom   30 type  6   force =     0.00000000    0.00000000    0.00000000
     atom   31 type  6   force =     0.00000000    0.00000000    0.00000000
     atom   32 type  6   force =     0.00000000    0.00000000    0.00000000
     atom   33 type  6   force =     0.00000000    0.00000000    0.00000000
     atom   34 type  6   force =     0.00000000    0.00000000    0.00000000
     atom   35 type  6   force =     0.00000000    0.00000000    0.00000000
     atom   36 type  6   force =     0.00000000    0.00000000    0.00000000
     atom   37 type  6   force =     0.00000000    0.00000000    0.00000000
     atom   38 type  6   force =     0.00000000    0.00000000    0.00000000
     atom   39 type  3   force =     0.00000000    0.00000000    0.00000000
     atom   40 type  3   force =     0.00000000    0.00000000    0.00000000
     atom   41 type  3   force =     0.00000000    0.00000000    0.00000000
     atom   42 type  3   force =     0.00000000    0.00000000    0.00000000
     atom   43 type  2   force =     0.00000000    0.00000000    0.00000000
     The SCF correction term to forces
     atom    1 type  4   force =     0.00000000    0.00007382   -0.00000000
     atom    2 type  4   force =    -0.00000000   -0.00008467    0.00000000
     atom    3 type  5   force =     0.00000000    0.00027707   -0.00000000
     atom    4 type  5   force =    -0.00000000   -0.00020489    0.00000000
     atom    5 type  5   force =    -0.00000000   -0.00008914    0.00000000
     atom    6 type  5   force =     0.00000000    0.00029526   -0.00000000
     atom    7 type  7   force =    -0.00001229    0.00002186    0.00026159
     atom    8 type  7   force =     0.00001229    0.00002186   -0.00026159
     atom    9 type  7   force =     0.00000120   -0.00003701   -0.00003511
     atom   10 type  7   force =    -0.00000120   -0.00003701    0.00003511
     atom   11 type  7   force =     0.00000764   -0.00001053    0.00000165
     atom   12 type  7   force =    -0.00000764   -0.00001053   -0.00000165
     atom   13 type  1   force =    -0.00000451    0.00002317   -0.00011337
     atom   14 type  1   force =     0.00000451    0.00002317    0.00011337
     atom   15 type  6   force =    -0.00007108    0.00021488    0.00034133
     atom   16 type  6   force =     0.00007106    0.00021488   -0.00034132
     atom   17 type  6   force =     0.00001678   -0.00006338   -0.00003792
     atom   18 type  6   force =    -0.00001678   -0.00006338    0.00003792
     atom   19 type  6   force =     0.00005350   -0.00012168   -0.00000813
     atom   20 type  6   force =    -0.00005349   -0.00012168    0.00000813
     atom   21 type  6   force =    -0.00009323    0.00008887   -0.00018427
     atom   22 type  6   force =     0.00009323    0.00008887    0.00018428
     atom   23 type  6   force =     0.00005853    0.00009282    0.00013352
     atom   24 type  6   force =    -0.00005852    0.00009282   -0.00013352
     atom   25 type  6   force =    -0.00002078   -0.00008543    0.00005371
     atom   26 type  6   force =     0.00002078   -0.00008543   -0.00005371
     atom   27 type  6   force =    -0.00000499   -0.00004165   -0.00002858
     atom   28 type  6   force =     0.00000499   -0.00004165    0.00002858
     atom   29 type  6   force =    -0.00000719   -0.00003780    0.00005672
     atom   30 type  6   force =     0.00000719   -0.00003780   -0.00005672
     atom   31 type  6   force =     0.00002743    0.00001525    0.00016268
     atom   32 type  6   force =    -0.00002743    0.00001525   -0.00016268
     atom   33 type  6   force =     0.00005255    0.00011588   -0.00017154
     atom   34 type  6   force =    -0.00005255    0.00011588    0.00017154
     atom   35 type  6   force =    -0.00005600   -0.00011253    0.00017977
     atom   36 type  6   force =     0.00005600   -0.00011253   -0.00017977
     atom   37 type  6   force =     0.00002277    0.00006589    0.00005948
     atom   38 type  6   force =    -0.00002277    0.00006589   -0.00005948
     atom   39 type  3   force =    -0.00000508   -0.00000821    0.00002271
     atom   40 type  3   force =     0.00000508   -0.00000821   -0.00002271
     atom   41 type  3   force =     0.00000279    0.00000467    0.00001093
     atom   42 type  3   force =    -0.00000279    0.00000467   -0.00001093
     atom   43 type  2   force =    -0.00000000   -0.00018763    0.00000000

     DFT-D3 dispersion contribution to forces:
     atom    1 type  4   force =     0.00000001    0.00091545   -0.00000000
     atom    2 type  4   force =     0.00000000   -0.00067580    0.00000000
     atom    3 type  5   force =    -0.00000000   -0.00015593    0.00000000
     atom    4 type  5   force =    -0.00000000   -0.00173258   -0.00000000
     atom    5 type  5   force =     0.00000000    0.00016431   -0.00000000
     atom    6 type  5   force =     0.00000000    0.00026236   -0.00000000
     atom    7 type  7   force =     0.00000205   -0.00045784   -0.00058345
     atom    8 type  7   force =    -0.00000204   -0.00045784    0.00058345
     atom    9 type  7   force =     0.00005989    0.00046269    0.00047771
     atom   10 type  7   force =    -0.00005989    0.00046269   -0.00047771
     atom   11 type  7   force =    -0.00047098   -0.00038341    0.00082886
     atom   12 type  7   force =     0.00047098   -0.00038341   -0.00082887
     atom   13 type  1   force =     0.00049579    0.00047047   -0.00188337
     atom   14 type  1   force =    -0.00049580    0.00047047    0.00188338
     atom   15 type  6   force =     0.00004337   -0.00019978    0.00026839
     atom   16 type  6   force =    -0.00004337   -0.00019978   -0.00026839
     atom   17 type  6   force =     0.00000591    0.00014511   -0.00034779
     atom   18 type  6   force =    -0.00000591    0.00014511    0.00034779
     atom   19 type  6   force =    -0.00020339   -0.00002642    0.00046025
     atom   20 type  6   force =     0.00020339   -0.00002642   -0.00046025
     atom   21 type  6   force =     0.00026345    0.00003098    0.00016963
     atom   22 type  6   force =    -0.00026345    0.00003098   -0.00016963
     atom   23 type  6   force =    -0.00020962    0.00099298    0.00027048
     atom   24 type  6   force =     0.00020962    0.00099298   -0.00027048
     atom   25 type  6   force =     0.00085110    0.00010173    0.00019835
     atom   26 type  6   force =    -0.00085110    0.00010173   -0.00019834
     atom   27 type  6   force =     0.00036380   -0.00050857    0.00002872
     atom   28 type  6   force =    -0.00036381   -0.00050858   -0.00002872
     atom   29 type  6   force =    -0.00020075    0.00038343   -0.00009295
     atom   30 type  6   force =     0.00020075    0.00038342    0.00009295
     atom   31 type  6   force =     0.00092121   -0.00045051    0.00052639
     atom   32 type  6   force =    -0.00092121   -0.00045051   -0.00052639
     atom   33 type  6   force =     0.00066151   -0.00065519   -0.00018223
     atom   34 type  6   force =    -0.00066151   -0.00065519    0.00018223
     atom   35 type  6   force =     0.00026602    0.00012612   -0.00055646
     atom   36 type  6   force =    -0.00026602    0.00012612    0.00055645
     atom   37 type  6   force =     0.00003729    0.00001149   -0.00056494
     atom   38 type  6   force =    -0.00003729    0.00001149    0.00056494
     atom   39 type  3   force =     0.00058934    0.00008883   -0.00001798
     atom   40 type  3   force =    -0.00058934    0.00008883    0.00001798
     atom   41 type  3   force =     0.00000819   -0.00045779   -0.00020937
     atom   42 type  3   force =    -0.00000819   -0.00045779    0.00020936
     atom   43 type  2   force =    -0.00000000    0.00187358   -0.00000000

     Total force =     0.116016     Total SCF correction =     0.001128

     DFT-D3 dispersion Force =     0.005772
     Energy error            =      3.2E-02 Ry
     Gradient error          =      3.8E-02 Ry/Bohr

     number of scf cycles    =   3
     number of bfgs steps    =   2

     energy             old  =   -2344.2756521246 Ry
     energy             new  =   -2344.3077297860 Ry

     CASE: energy            _new < energy            _old

     new trust radius        =       0.0989998811 bohr
     new conv_thr            =       0.0000003833 Ry


ATOMIC_POSITIONS (crystal)
K                0.0000000000        0.4910512611        0.0000000000
K                0.5000001190        0.0061048538        0.0000000000
Mg               0.0000001800       -0.0010856900        0.4999998810
Mg               0.0000001800        0.6659001376        0.4999998810
Mg               0.5000002980        0.8255317481        0.4999998810
Mg               0.5000002980        0.1733248197        0.4999998810
Si               0.0831396417        0.1644859638        0.2260687128
Si               0.9168609693        0.1644859638        0.7739310642
Si               0.9343976184        0.8327877527        0.7670875399
Si               0.0656029776        0.8327877527        0.2329121911
Si               0.5657452302        0.6669940327        0.2341601118
Si               0.4342553358        0.6669940327        0.7658396342
Al               0.4139130673        0.3333767163        0.7708312498
Al               0.5860874997        0.3333767163        0.2291685122
O                0.1246892006        0.1694765500        0.3868226611
O                0.8753113654        0.1694765500        0.6131770709
O                0.8751083665        0.8347739167        0.6094027438
O                0.1248922445        0.8347739167        0.3905969882
O                0.6326102499        0.6751930487        0.3886912543
O                0.3673903461        0.6751930487        0.6113085067
O                0.3309406651        0.3251283739        0.5999023500
O                0.6690599609        0.3251283739        0.4000973820
O                0.3436538605        0.2056881209        0.1714907360
O                0.6563466765        0.2056881209        0.8285089510
O                0.0024002888        0.9967181334        0.1737586112
O                0.9976003072        0.9967181334        0.8262411358
O                0.6859764838        0.7717744878        0.8266641466
O                0.3140240832        0.7717744878        0.1733356154
O                0.8127560267        0.7346964817        0.1716602265
O                0.1872445843        0.7346964817        0.8283395495
O                0.5027550971        0.5082125427        0.1670456300
O                0.4972454399        0.5082125427        0.8329541460
O                0.1450968505        0.2744579765        0.8360060473
O                0.8549037755        0.2744579765        0.1639936837
O                0.1167999496        0.4936475492        0.3969821885
O                0.8832006764        0.4936475492        0.6030175735
O                0.6328732905        1.0023363310        0.4006023877
O                0.3671273655        1.0023363310        0.5993973743
H                0.1000193815        0.4948992105        0.3031795015
H                0.8999812815        0.4948992105        0.6968202005
H                0.5976539412        0.0136434078        0.3068771225
H                0.4023466548        0.0136434078        0.6931226695
Ti               0.0000001800        0.3496175103        0.4999998810



     Writing config-only to output data dir ./temp/phl-ti1-ti2-v4.save/ :
     XML data file
     NEW-OLD atomic charge density approx. for the potential

     Check: negative core charge=   -0.000003
     Generating pointlists ...
     new r_m :   0.1459 (alat units)  1.4683 (a.u.) for type    2

     total cpu time spent up to now is    55463.1 secs

     Self-consistent Calculation

     iteration #  1     ecut=    60.00 Ry     beta= 0.70
     Davidson diagonalization with overlap

---- Real-time Memory Report at c_bands before calling an iterative solver
           910 MiB given to the printing process from OS
             0 MiB allocation reported by mallinfo(arena+hblkhd)
          1943 MiB available memory on the node where the printing process lives
------------------
