 INFO
nunit      1    1    1
unit   cell
celltype   primcell
shape   parapipedal
 END_INFO
 DIM-GROUP
           3           1
 PRIMVEC
   10.6589488190    0.0000000000    0.0000000000
    0.0000000000    9.2232516290    0.0000000000
   -1.8430450770    0.0000000000   10.1871567850
 CONVVEC
   10.6589488190    0.0000000000    0.0000000000
    0.0000000000    9.2232516290    0.0000000000
   -1.8430450770    0.0000000000   10.1871567850
 PRIMCOORD
          87           1
 19      0.0000000000     4.6513456520     0.0000000000     0.0000000000    -0.0002299800     0.0000000000
 19      5.3294758200     4.5041342210     0.0000000000     0.0000000000    -0.0002340000     0.0000000000
 19      0.8690748220     0.0392744960    10.0211094830    -0.0000715500     0.0000837900     0.0002456700
 19      7.9468318470     0.0392744960     0.1660503890     0.0000715500     0.0000837900    -0.0002456700
 12     -0.9215224850     6.2157481650     5.0935799360     0.0000000000    -0.0000126800     0.0000000000
 12      4.4079533350     6.1648592680     5.0935799360     0.0000000000     0.0000889400     0.0000000000
 12      1.7654421820     4.5990081300     5.1010847340    -0.0001358000    -0.0000172900     0.0000657800
 12      7.0504644870     4.5990081300     5.0860751380     0.0001358000    -0.0000172900    -0.0000657800
 12      1.6657061330     7.7598608160     5.1034517260    -0.0000136400    -0.0001646900    -0.0000588600
 12      7.1502004310     7.7598608160     5.0837078410     0.0000136400    -0.0001646900     0.0000588600
 12      1.7491762050     1.5065901660     5.1340451600     0.0000625500     0.0002043400     0.0001842500
 12      7.0667307730     1.5065901660     5.0531147130    -0.0000625500     0.0002043400    -0.0001842500
 12      4.4079533350     3.0656226710     5.0935799360     0.0000000000     0.0000546700     0.0000000000
 12      4.4079533350     0.0273286840     5.0935799360     0.0000000000    -0.0000830900     0.0000000000
 14      0.0378112060     1.5460550480     2.2387890390     0.0000368800     0.0003129200    -0.0000145400
 14      5.3542243270     1.5389236740     2.2957926200    -0.0001181200     0.0001651800     0.0000454600
 14      3.4616823700     1.5389236740     7.8913671000     0.0001181200     0.0001651800    -0.0000454600
 14      8.7780953630     1.5460550480     7.9483706810    -0.0000368800     0.0003129200     0.0000145400
 14      3.5529195210     7.7061632870     7.8223493620    -0.0000430900    -0.0000913700    -0.0002872300
 14      8.8788323650     7.6874703940     7.8285400120    -0.0000237300    -0.0001464200    -0.0003960500
 14     -0.0629255940     7.6874703940     2.3586197080     0.0000237300    -0.0001464200     0.0003960500
 14      5.2629872040     7.7061632870     2.3648102040     0.0000430900    -0.0000913700     0.0002872300
 14      2.5756042640     6.1745761540     2.3376595020     0.0000298600    -0.0002041900     0.0000104200
 14      7.9228291520     6.1766316420     2.3264253340    -0.0000172700    -0.0001860000     0.0001466300
 14      0.8930776000     6.1766316420     7.8607340800     0.0000172700    -0.0001860000    -0.0001466300
 14      6.2403024880     6.1745761540     7.8494999120    -0.0000298600    -0.0002041900    -0.0000104200
 13      0.7735835870     3.0575839460     7.9437682130     0.0001217600     0.0000674700    -0.0002187400
 13      6.1321269520     3.0638893520     7.8409744590     0.0000773000     0.0001259500    -0.0002684300
 13      2.6837800090     3.0638893520     2.3461855660    -0.0000773000     0.0001259500     0.0002684300
 13      8.0423227350     3.0575839460     2.2433918120    -0.0001217600     0.0000674700     0.0002187400
  8     -0.0437488470     1.7045849260     3.8945203600    -0.0000894600    -0.0000113000     0.0002966800
  8      5.3028638700     1.5232621910     3.9314485540    -0.0000958200    -0.0000211400     0.0004919800
  8      3.5130424900     1.5232621910     6.2557113180     0.0000958200    -0.0000211400    -0.0004919800
  8      8.8596554740     1.7045849260     6.2926395120     0.0000894600    -0.0000113000    -0.0002966800
  8      3.5282634080     7.6931637990     6.2026271280     0.0001097200    -0.0001101200    -0.0003268800
  8      8.8277795310     7.5792969580     6.2408705760    -0.0000456100    -0.0001245100    -0.0003467100
  8     -0.0118731270     7.5792969580     3.9462889900     0.0000456100    -0.0001245100     0.0003467100
  8      5.2876435810     7.6931637990     3.9845327440    -0.0001097200    -0.0001101200     0.0003268800
  8      2.5961816860     6.1820709850     3.9689539980    -0.0000162600     0.0001119100     0.0003595900
  8      7.9539746170     6.1546687580     3.9550898460     0.0000835300     0.0000664900     0.0004753600
  8      0.8619302960     6.1546687580     6.2320797350    -0.0000835300     0.0000664900    -0.0004753600
  8      6.2197231690     6.1820709850     6.2182158980     0.0000162600     0.0001119100    -0.0003595900
  8      0.6859954810     3.0678358240     6.1606426010    -0.0000376000    -0.0001422600     0.0000640900
  8      6.1933851320     3.0660860740     6.0984451940     0.0000035000    -0.0000176300    -0.0002114000
  8      2.6225322790     3.0660860740     4.0887149840    -0.0000035000    -0.0000176300     0.0002114000
  8      8.1299223050     3.0678358240     4.0265172710     0.0000376000    -0.0001422600    -0.0000640900
  8      1.5222118660     1.8924412180     1.7015014700    -0.0005836400     0.0003207800     0.0000218600
  8      6.7838294340     1.9971634260     1.6761438710    -0.0003871900     0.0001808000     0.0001202400
  8      2.0320772630     1.9971634260     8.5110158490     0.0003871900     0.0001808000    -0.0001202400
  8      7.2936944110     1.8924412180     8.4856588610     0.0005836400     0.0003207800    -0.0000218600
  8     -0.2950946160     9.2143154730     1.7886268470     0.0001341100    -0.0001133800    -0.0001052400
  8      5.0380540290     9.2110074320     1.7368930610     0.0002291200    -0.0001719000    -0.0002359900
  8      3.7778526950     9.2110074320     8.4502665060    -0.0002291200    -0.0001719000     0.0002359900
  8      9.1110122380     9.2143154730     8.3985328720    -0.0001341100    -0.0001133800     0.0001052400
  8      2.1506314450     7.0946593730     8.4484900000     0.0000429700    -0.0000968400     0.0000592700
  8      7.4470080540     7.1443911880     8.4806215520     0.0001262800    -0.0001182400     0.0001876600
  8      1.3688984000     7.1443911880     1.7065386260    -0.0001262800    -0.0001182400    -0.0001876600
  8      6.6652748230     7.0946593730     1.7386703200    -0.0000429700    -0.0000968400    -0.0000592700
  8      4.0195128030     6.7836270250     1.7653325050    -0.0001440300     0.0002349500    -0.0002150400
  8      9.3446623650     6.8009228130     1.7160400610    -0.0001063400     0.0001004500    -0.0001363300
  8     -0.5287542810     6.8009228130     8.4711093390     0.0001063400     0.0001004500     0.0001363300
  8      4.7963957600     6.7836270250     8.4218168940     0.0001440300     0.0002349500     0.0002150400
  8      2.3383019420     4.6933764590     1.7173980630     0.0003652100     0.0000727000    -0.0001240700
  8      7.7345374050     4.6988640200     1.6856950370     0.0001591200     0.0001350600     0.0000593700
  8      1.0813696780     4.6988640200     8.5014651410    -0.0001591200     0.0001350600    -0.0000593700
  8      6.4776046710     4.6933764590     8.4697621150    -0.0003652100     0.0000727000     0.0001240700
  8     -0.7790350660     2.5459302370     8.5986098790     0.0003873800    -0.0002999600     0.0004468800
  8      4.5839592510     2.5481760240     8.4986694940     0.0002615300    -0.0004894700     0.0000930100
  8      4.2319474730     2.5481760240     1.6884900730    -0.0002615300    -0.0004894700    -0.0000930100
  8      9.5949418370     2.5459302370     1.5885498410    -0.0003873800    -0.0002999600    -0.0004468800
  8     -0.0814054240     4.5565984080     4.0986889670     0.0000772100     0.0000225400    -0.0000399600
  8      5.2953409080     4.6433391650     4.0280400860     0.0000572800     0.0000393900    -0.0000633300
  8      3.5205655070     4.6433391650     6.1591194810    -0.0000572800     0.0000393900     0.0000633300
  8      8.8973125210     4.5565984080     6.0884703040    -0.0000772100     0.0000225400     0.0000399600
  8      2.6466216340     0.0056325880     4.0419291870    -0.0000633400     0.0000945200     0.0000656400
  8      7.8606635190     0.0236233930     3.9410645720     0.0002299900    -0.0000630900    -0.0000243800
  8      0.9552435250     0.0236233930     6.2460949950    -0.0002299900    -0.0000630900     0.0000243800
  8      6.1692853540     0.0056325880     6.1452306850     0.0000633400     0.0000945200    -0.0000656400
  1     -0.0655920050     4.4748783570     3.1327899270     0.0001092700     0.0000154300     0.0002173400
  1      5.2710301150     4.5906893200     3.0637430510    -0.0000458000     0.0002544000     0.0000540900
  1      3.5448765540     4.5906893200     7.1234168220     0.0000458000     0.0002544000    -0.0000540900
  1      8.8814985460     4.4748783570     7.0543699450    -0.0001092700     0.0000154300    -0.0002173400
  1      2.6401778340     0.1305344710     3.0830639870    -0.0001599500    -0.0000405500     0.0002532500
  1      8.8299459320     9.1995403390     3.9971004240    -0.0003231100     0.0000376100     0.0000278900
  1     -0.0140285400     9.1995403390     6.1900594480     0.0003231100     0.0000376100    -0.0000278900
  1      6.1757292100     0.1305344710     7.1040955800     0.0001599500    -0.0000405500    -0.0002532500
 22     -0.9215224850     2.9060097600     5.0935799360     0.0000000000     0.0003835100     0.0000000000
 CONVCOORD
          87           1
 19      0.0000000000     4.6513456520     0.0000000000
 19      5.3294758200     4.5041342210     0.0000000000
 19      0.8690748220     0.0392744960    10.0211094830
 19      7.9468318470     0.0392744960     0.1660503890
 12     -0.9215224850     6.2157481650     5.0935799360
 12      4.4079533350     6.1648592680     5.0935799360
 12      1.7654421820     4.5990081300     5.1010847340
 12      7.0504644870     4.5990081300     5.0860751380
 12      1.6657061330     7.7598608160     5.1034517260
 12      7.1502004310     7.7598608160     5.0837078410
 12      1.7491762050     1.5065901660     5.1340451600
 12      7.0667307730     1.5065901660     5.0531147130
 12      4.4079533350     3.0656226710     5.0935799360
 12      4.4079533350     0.0273286840     5.0935799360
 14      0.0378112060     1.5460550480     2.2387890390
 14      5.3542243270     1.5389236740     2.2957926200
 14      3.4616823700     1.5389236740     7.8913671000
 14      8.7780953630     1.5460550480     7.9483706810
 14      3.5529195210     7.7061632870     7.8223493620
 14      8.8788323650     7.6874703940     7.8285400120
 14     -0.0629255940     7.6874703940     2.3586197080
 14      5.2629872040     7.7061632870     2.3648102040
 14      2.5756042640     6.1745761540     2.3376595020
 14      7.9228291520     6.1766316420     2.3264253340
 14      0.8930776000     6.1766316420     7.8607340800
 14      6.2403024880     6.1745761540     7.8494999120
 13      0.7735835870     3.0575839460     7.9437682130
 13      6.1321269520     3.0638893520     7.8409744590
 13      2.6837800090     3.0638893520     2.3461855660
 13      8.0423227350     3.0575839460     2.2433918120
  8     -0.0437488470     1.7045849260     3.8945203600
  8      5.3028638700     1.5232621910     3.9314485540
  8      3.5130424900     1.5232621910     6.2557113180
  8      8.8596554740     1.7045849260     6.2926395120
  8      3.5282634080     7.6931637990     6.2026271280
  8      8.8277795310     7.5792969580     6.2408705760
  8     -0.0118731270     7.5792969580     3.9462889900
  8      5.2876435810     7.6931637990     3.9845327440
  8      2.5961816860     6.1820709850     3.9689539980
  8      7.9539746170     6.1546687580     3.9550898460
  8      0.8619302960     6.1546687580     6.2320797350
  8      6.2197231690     6.1820709850     6.2182158980
  8      0.6859954810     3.0678358240     6.1606426010
  8      6.1933851320     3.0660860740     6.0984451940
  8      2.6225322790     3.0660860740     4.0887149840
  8      8.1299223050     3.0678358240     4.0265172710
  8      1.5222118660     1.8924412180     1.7015014700
  8      6.7838294340     1.9971634260     1.6761438710
  8      2.0320772630     1.9971634260     8.5110158490
  8      7.2936944110     1.8924412180     8.4856588610
  8     -0.2950946160     9.2143154730     1.7886268470
  8      5.0380540290     9.2110074320     1.7368930610
  8      3.7778526950     9.2110074320     8.4502665060
  8      9.1110122380     9.2143154730     8.3985328720
  8      2.1506314450     7.0946593730     8.4484900000
  8      7.4470080540     7.1443911880     8.4806215520
  8      1.3688984000     7.1443911880     1.7065386260
  8      6.6652748230     7.0946593730     1.7386703200
  8      4.0195128030     6.7836270250     1.7653325050
  8      9.3446623650     6.8009228130     1.7160400610
  8     -0.5287542810     6.8009228130     8.4711093390
  8      4.7963957600     6.7836270250     8.4218168940
  8      2.3383019420     4.6933764590     1.7173980630
  8      7.7345374050     4.6988640200     1.6856950370
  8      1.0813696780     4.6988640200     8.5014651410
  8      6.4776046710     4.6933764590     8.4697621150
  8     -0.7790350660     2.5459302370     8.5986098790
  8      4.5839592510     2.5481760240     8.4986694940
  8      4.2319474730     2.5481760240     1.6884900730
  8      9.5949418370     2.5459302370     1.5885498410
  8     -0.0814054240     4.5565984080     4.0986889670
  8      5.2953409080     4.6433391650     4.0280400860
  8      3.5205655070     4.6433391650     6.1591194810
  8      8.8973125210     4.5565984080     6.0884703040
  8      2.6466216340     0.0056325880     4.0419291870
  8      7.8606635190     0.0236233930     3.9410645720
  8      0.9552435250     0.0236233930     6.2460949950
  8      6.1692853540     0.0056325880     6.1452306850
  1     -0.0655920050     4.4748783570     3.1327899270
  1      5.2710301150     4.5906893200     3.0637430510
  1      3.5448765540     4.5906893200     7.1234168220
  1      8.8814985460     4.4748783570     7.0543699450
  1      2.6401778340     0.1305344710     3.0830639870
  1      8.8299459320     9.1995403390     3.9971004240
  1     -0.0140285400     9.1995403390     6.1900594480
  1      6.1757292100     0.1305344710     7.1040955800
 22     -0.9215224850     2.9060097600     5.0935799360
 RECIP-PRIMVEC
    0.0938178818   -0.0000000000    0.0169733900

    0.0000000000    0.1084216327   -0.0000000000

    0.0000000000    0.0000000000    0.0981628163

 RECIP-CONVVEC
    0.0938178818   -0.0000000000    0.0169733900

    0.0000000000    0.1084216327   -0.0000000000

    0.0000000000    0.0000000000    0.0981628163

 WIGNER-SEITZ-PRIMCELL
           6
 -0.5329474E+01 -0.4611626E+01 -0.4296098E+01  -0.9280390E-31 -0.1000000E+01 -0.8359033E-15
 -0.3486429E+01 -0.4611626E+01 -0.5891058E+01  -0.9280390E-31 -0.1000000E+01 -0.8359033E-15
  0.5329474E+01 -0.4611626E+01 -0.4296098E+01  -0.9280390E-31 -0.1000000E+01 -0.8359033E-15
  0.5329474E+01 -0.4611626E+01  0.4296098E+01  -0.9280390E-31 -0.1000000E+01 -0.8359033E-15
  0.3486429E+01 -0.4611626E+01  0.5891058E+01  -0.9280390E-31 -0.1000000E+01 -0.8359033E-15
 -0.5329474E+01 -0.4611626E+01  0.4296098E+01  -0.9280390E-31 -0.1000000E+01 -0.8359033E-15
           4
  0.3486429E+01 -0.4611626E+01  0.5891058E+01   0.6543808E+00  0.4304182E-17  0.7561652E+00
  0.5329474E+01 -0.4611626E+01  0.4296098E+01   0.6543808E+00  0.4304182E-17  0.7561652E+00
  0.5329474E+01  0.4611626E+01  0.4296098E+01   0.6543808E+00  0.4304182E-17  0.7561652E+00
  0.3486429E+01  0.4611626E+01  0.5891058E+01   0.6543808E+00  0.4304182E-17  0.7561652E+00
           4
  0.3486429E+01  0.4611626E+01  0.5891058E+01  -0.1780284E+00 -0.1899635E-15  0.9840254E+00
 -0.5329474E+01  0.4611626E+01  0.4296098E+01  -0.1780284E+00 -0.1899635E-15  0.9840254E+00
 -0.5329474E+01 -0.4611626E+01  0.4296098E+01  -0.1780284E+00 -0.1899635E-15  0.9840254E+00
  0.3486429E+01 -0.4611626E+01  0.5891058E+01  -0.1780284E+00 -0.1899635E-15  0.9840254E+00
           4
  0.5329474E+01 -0.4611626E+01  0.4296098E+01   0.1000000E+01  0.9629775E-16 -0.1033704E-15
  0.5329474E+01 -0.4611626E+01 -0.4296098E+01   0.1000000E+01  0.9629775E-16 -0.1033704E-15
  0.5329474E+01  0.4611626E+01 -0.4296098E+01   0.1000000E+01  0.9629775E-16 -0.1033704E-15
  0.5329474E+01  0.4611626E+01  0.4296098E+01   0.1000000E+01  0.9629775E-16 -0.1033704E-15
           4
 -0.5329474E+01  0.4611626E+01 -0.4296098E+01  -0.1000000E+01  0.9629775E-16  0.1033704E-15
 -0.5329474E+01 -0.4611626E+01 -0.4296098E+01  -0.1000000E+01  0.9629775E-16  0.1033704E-15
 -0.5329474E+01 -0.4611626E+01  0.4296098E+01  -0.1000000E+01  0.9629775E-16  0.1033704E-15
 -0.5329474E+01  0.4611626E+01  0.4296098E+01  -0.1000000E+01  0.9629775E-16  0.1033704E-15
           4
  0.5329474E+01  0.4611626E+01 -0.4296098E+01   0.1780284E+00 -0.8598953E-16 -0.9840254E+00
  0.5329474E+01 -0.4611626E+01 -0.4296098E+01   0.1780284E+00 -0.8598953E-16 -0.9840254E+00
 -0.3486429E+01 -0.4611626E+01 -0.5891058E+01   0.1780284E+00 -0.8598953E-16 -0.9840254E+00
 -0.3486429E+01  0.4611626E+01 -0.5891058E+01   0.1780284E+00 -0.8598953E-16 -0.9840254E+00
           4
 -0.3486429E+01  0.4611626E+01 -0.5891058E+01  -0.6543808E+00  0.1580363E-15 -0.7561652E+00
 -0.3486429E+01 -0.4611626E+01 -0.5891058E+01  -0.6543808E+00  0.1580363E-15 -0.7561652E+00
 -0.5329474E+01 -0.4611626E+01 -0.4296098E+01  -0.6543808E+00  0.1580363E-15 -0.7561652E+00
 -0.5329474E+01  0.4611626E+01 -0.4296098E+01  -0.6543808E+00  0.1580363E-15 -0.7561652E+00
           6
  0.3486429E+01  0.4611626E+01  0.5891058E+01   0.4819081E-15  0.1000000E+01  0.0000000E+00
  0.5329474E+01  0.4611626E+01  0.4296098E+01   0.4819081E-15  0.1000000E+01  0.0000000E+00
  0.5329474E+01  0.4611626E+01 -0.4296098E+01   0.4819081E-15  0.1000000E+01  0.0000000E+00
 -0.3486429E+01  0.4611626E+01 -0.5891058E+01   0.4819081E-15  0.1000000E+01  0.0000000E+00
 -0.5329474E+01  0.4611626E+01 -0.4296098E+01   0.4819081E-15  0.1000000E+01  0.0000000E+00
 -0.5329474E+01  0.4611626E+01  0.4296098E+01   0.4819081E-15  0.1000000E+01  0.0000000E+00
 WIGNER-SEITZ-PRIMCELL_END
 WIGNER-SEITZ-CONVCELL
           6
 -0.5329474E+01 -0.4611626E+01 -0.4296098E+01  -0.9280390E-31 -0.1000000E+01 -0.8359033E-15
 -0.3486429E+01 -0.4611626E+01 -0.5891058E+01  -0.9280390E-31 -0.1000000E+01 -0.8359033E-15
  0.5329474E+01 -0.4611626E+01 -0.4296098E+01  -0.9280390E-31 -0.1000000E+01 -0.8359033E-15
  0.5329474E+01 -0.4611626E+01  0.4296098E+01  -0.9280390E-31 -0.1000000E+01 -0.8359033E-15
  0.3486429E+01 -0.4611626E+01  0.5891058E+01  -0.9280390E-31 -0.1000000E+01 -0.8359033E-15
 -0.5329474E+01 -0.4611626E+01  0.4296098E+01  -0.9280390E-31 -0.1000000E+01 -0.8359033E-15
           4
  0.3486429E+01 -0.4611626E+01  0.5891058E+01   0.6543808E+00  0.4304182E-17  0.7561652E+00
  0.5329474E+01 -0.4611626E+01  0.4296098E+01   0.6543808E+00  0.4304182E-17  0.7561652E+00
  0.5329474E+01  0.4611626E+01  0.4296098E+01   0.6543808E+00  0.4304182E-17  0.7561652E+00
  0.3486429E+01  0.4611626E+01  0.5891058E+01   0.6543808E+00  0.4304182E-17  0.7561652E+00
           4
  0.3486429E+01  0.4611626E+01  0.5891058E+01  -0.1780284E+00 -0.1899635E-15  0.9840254E+00
 -0.5329474E+01  0.4611626E+01  0.4296098E+01  -0.1780284E+00 -0.1899635E-15  0.9840254E+00
 -0.5329474E+01 -0.4611626E+01  0.4296098E+01  -0.1780284E+00 -0.1899635E-15  0.9840254E+00
  0.3486429E+01 -0.4611626E+01  0.5891058E+01  -0.1780284E+00 -0.1899635E-15  0.9840254E+00
           4
  0.5329474E+01 -0.4611626E+01  0.4296098E+01   0.1000000E+01  0.9629775E-16 -0.1033704E-15
  0.5329474E+01 -0.4611626E+01 -0.4296098E+01   0.1000000E+01  0.9629775E-16 -0.1033704E-15
  0.5329474E+01  0.4611626E+01 -0.4296098E+01   0.1000000E+01  0.9629775E-16 -0.1033704E-15
  0.5329474E+01  0.4611626E+01  0.4296098E+01   0.1000000E+01  0.9629775E-16 -0.1033704E-15
           4
 -0.5329474E+01  0.4611626E+01 -0.4296098E+01  -0.1000000E+01  0.9629775E-16  0.1033704E-15
 -0.5329474E+01 -0.4611626E+01 -0.4296098E+01  -0.1000000E+01  0.9629775E-16  0.1033704E-15
 -0.5329474E+01 -0.4611626E+01  0.4296098E+01  -0.1000000E+01  0.9629775E-16  0.1033704E-15
 -0.5329474E+01  0.4611626E+01  0.4296098E+01  -0.1000000E+01  0.9629775E-16  0.1033704E-15
           4
  0.5329474E+01  0.4611626E+01 -0.4296098E+01   0.1780284E+00 -0.8598953E-16 -0.9840254E+00
  0.5329474E+01 -0.4611626E+01 -0.4296098E+01   0.1780284E+00 -0.8598953E-16 -0.9840254E+00
 -0.3486429E+01 -0.4611626E+01 -0.5891058E+01   0.1780284E+00 -0.8598953E-16 -0.9840254E+00
 -0.3486429E+01  0.4611626E+01 -0.5891058E+01   0.1780284E+00 -0.8598953E-16 -0.9840254E+00
           4
 -0.3486429E+01  0.4611626E+01 -0.5891058E+01  -0.6543808E+00  0.1580363E-15 -0.7561652E+00
 -0.3486429E+01 -0.4611626E+01 -0.5891058E+01  -0.6543808E+00  0.1580363E-15 -0.7561652E+00
 -0.5329474E+01 -0.4611626E+01 -0.4296098E+01  -0.6543808E+00  0.1580363E-15 -0.7561652E+00
 -0.5329474E+01  0.4611626E+01 -0.4296098E+01  -0.6543808E+00  0.1580363E-15 -0.7561652E+00
           6
  0.3486429E+01  0.4611626E+01  0.5891058E+01   0.4819081E-15  0.1000000E+01  0.0000000E+00
  0.5329474E+01  0.4611626E+01  0.4296098E+01   0.4819081E-15  0.1000000E+01  0.0000000E+00
  0.5329474E+01  0.4611626E+01 -0.4296098E+01   0.4819081E-15  0.1000000E+01  0.0000000E+00
 -0.3486429E+01  0.4611626E+01 -0.5891058E+01   0.4819081E-15  0.1000000E+01  0.0000000E+00
 -0.5329474E+01  0.4611626E+01 -0.4296098E+01   0.4819081E-15  0.1000000E+01  0.0000000E+00
 -0.5329474E+01  0.4611626E+01  0.4296098E+01   0.4819081E-15  0.1000000E+01  0.0000000E+00
 WIGNER-SEITZ-CONVCELL_END
 BRILLOUIN-ZONE-PRIMCELL
           4
 -0.5425328E-01  0.5421082E-01  0.3210802E-01  -0.9840254E+00 -0.8617080E-16 -0.1780284E+00
 -0.3956461E-01  0.5421082E-01 -0.4908141E-01  -0.9840254E+00 -0.8617080E-16 -0.1780284E+00
 -0.3956461E-01 -0.5421082E-01 -0.4908141E-01  -0.9840254E+00 -0.8617080E-16 -0.1780284E+00
 -0.5425328E-01 -0.5421082E-01  0.3210802E-01  -0.9840254E+00 -0.8617080E-16 -0.1780284E+00
           4
 -0.5425328E-01  0.5421082E-01  0.3210802E-01  -0.7561652E+00  0.2004726E-15  0.6543808E+00
 -0.5425328E-01 -0.5421082E-01  0.3210802E-01  -0.7561652E+00  0.2004726E-15  0.6543808E+00
 -0.3956461E-01 -0.5421082E-01  0.4908141E-01  -0.7561652E+00  0.2004726E-15  0.6543808E+00
 -0.3956461E-01  0.5421082E-01  0.4908141E-01  -0.7561652E+00  0.2004726E-15  0.6543808E+00
           6
  0.3956461E-01 -0.5421082E-01  0.4908141E-01  -0.0000000E+00 -0.1000000E+01  0.0000000E+00
 -0.3956461E-01 -0.5421082E-01  0.4908141E-01  -0.0000000E+00 -0.1000000E+01  0.0000000E+00
 -0.5425328E-01 -0.5421082E-01  0.3210802E-01  -0.0000000E+00 -0.1000000E+01  0.0000000E+00
 -0.3956461E-01 -0.5421082E-01 -0.4908141E-01  -0.0000000E+00 -0.1000000E+01  0.0000000E+00
  0.3956461E-01 -0.5421082E-01 -0.4908141E-01  -0.0000000E+00 -0.1000000E+01  0.0000000E+00
  0.5425328E-01 -0.5421082E-01 -0.3210802E-01  -0.0000000E+00 -0.1000000E+01  0.0000000E+00
           4
 -0.3956461E-01  0.5421082E-01 -0.4908141E-01  -0.1010991E-15  0.5054957E-16 -0.1000000E+01
  0.3956461E-01  0.5421082E-01 -0.4908141E-01  -0.1010991E-15  0.5054957E-16 -0.1000000E+01
  0.3956461E-01 -0.5421082E-01 -0.4908141E-01  -0.1010991E-15  0.5054957E-16 -0.1000000E+01
 -0.3956461E-01 -0.5421082E-01 -0.4908141E-01  -0.1010991E-15  0.5054957E-16 -0.1000000E+01
           4
 -0.3956461E-01 -0.5421082E-01  0.4908141E-01  -0.1010991E-15 -0.1085287E-16  0.1000000E+01
  0.3956461E-01 -0.5421082E-01  0.4908141E-01  -0.1010991E-15 -0.1085287E-16  0.1000000E+01
  0.3956461E-01  0.5421082E-01  0.4908141E-01  -0.1010991E-15 -0.1085287E-16  0.1000000E+01
 -0.3956461E-01  0.5421082E-01  0.4908141E-01  -0.1010991E-15 -0.1085287E-16  0.1000000E+01
           6
  0.5425328E-01  0.5421082E-01 -0.3210802E-01  -0.0000000E+00  0.1000000E+01  0.6457952E-15
  0.3956461E-01  0.5421082E-01 -0.4908141E-01  -0.0000000E+00  0.1000000E+01  0.6457952E-15
 -0.3956461E-01  0.5421082E-01 -0.4908141E-01  -0.0000000E+00  0.1000000E+01  0.6457952E-15
 -0.5425328E-01  0.5421082E-01  0.3210802E-01  -0.0000000E+00  0.1000000E+01  0.6457952E-15
 -0.3956461E-01  0.5421082E-01  0.4908141E-01  -0.0000000E+00  0.1000000E+01  0.6457952E-15
  0.3956461E-01  0.5421082E-01  0.4908141E-01  -0.0000000E+00  0.1000000E+01  0.6457952E-15
           4
  0.5425328E-01  0.5421082E-01 -0.3210802E-01   0.7561652E+00  0.4454946E-16 -0.6543808E+00
  0.5425328E-01 -0.5421082E-01 -0.3210802E-01   0.7561652E+00  0.4454946E-16 -0.6543808E+00
  0.3956461E-01 -0.5421082E-01 -0.4908141E-01   0.7561652E+00  0.4454946E-16 -0.6543808E+00
  0.3956461E-01  0.5421082E-01 -0.4908141E-01   0.7561652E+00  0.4454946E-16 -0.6543808E+00
           4
  0.3956461E-01 -0.5421082E-01  0.4908141E-01   0.9840254E+00  0.3807134E-16  0.1780284E+00
  0.5425328E-01 -0.5421082E-01 -0.3210802E-01   0.9840254E+00  0.3807134E-16  0.1780284E+00
  0.5425328E-01  0.5421082E-01 -0.3210802E-01   0.9840254E+00  0.3807134E-16  0.1780284E+00
  0.3956461E-01  0.5421082E-01  0.4908141E-01   0.9840254E+00  0.3807134E-16  0.1780284E+00
 BRILLOUIN-ZONE-PRIMCELL_END
 BRILLOUIN-ZONE-CONVCELL
           4
 -0.5425328E-01  0.5421082E-01  0.3210802E-01  -0.9840254E+00 -0.8617080E-16 -0.1780284E+00
 -0.3956461E-01  0.5421082E-01 -0.4908141E-01  -0.9840254E+00 -0.8617080E-16 -0.1780284E+00
 -0.3956461E-01 -0.5421082E-01 -0.4908141E-01  -0.9840254E+00 -0.8617080E-16 -0.1780284E+00
 -0.5425328E-01 -0.5421082E-01  0.3210802E-01  -0.9840254E+00 -0.8617080E-16 -0.1780284E+00
           4
 -0.5425328E-01  0.5421082E-01  0.3210802E-01  -0.7561652E+00  0.2004726E-15  0.6543808E+00
 -0.5425328E-01 -0.5421082E-01  0.3210802E-01  -0.7561652E+00  0.2004726E-15  0.6543808E+00
 -0.3956461E-01 -0.5421082E-01  0.4908141E-01  -0.7561652E+00  0.2004726E-15  0.6543808E+00
 -0.3956461E-01  0.5421082E-01  0.4908141E-01  -0.7561652E+00  0.2004726E-15  0.6543808E+00
           6
  0.3956461E-01 -0.5421082E-01  0.4908141E-01  -0.0000000E+00 -0.1000000E+01  0.0000000E+00
 -0.3956461E-01 -0.5421082E-01  0.4908141E-01  -0.0000000E+00 -0.1000000E+01  0.0000000E+00
 -0.5425328E-01 -0.5421082E-01  0.3210802E-01  -0.0000000E+00 -0.1000000E+01  0.0000000E+00
 -0.3956461E-01 -0.5421082E-01 -0.4908141E-01  -0.0000000E+00 -0.1000000E+01  0.0000000E+00
  0.3956461E-01 -0.5421082E-01 -0.4908141E-01  -0.0000000E+00 -0.1000000E+01  0.0000000E+00
  0.5425328E-01 -0.5421082E-01 -0.3210802E-01  -0.0000000E+00 -0.1000000E+01  0.0000000E+00
           4
 -0.3956461E-01  0.5421082E-01 -0.4908141E-01  -0.1010991E-15  0.5054957E-16 -0.1000000E+01
  0.3956461E-01  0.5421082E-01 -0.4908141E-01  -0.1010991E-15  0.5054957E-16 -0.1000000E+01
  0.3956461E-01 -0.5421082E-01 -0.4908141E-01  -0.1010991E-15  0.5054957E-16 -0.1000000E+01
 -0.3956461E-01 -0.5421082E-01 -0.4908141E-01  -0.1010991E-15  0.5054957E-16 -0.1000000E+01
           4
 -0.3956461E-01 -0.5421082E-01  0.4908141E-01  -0.1010991E-15 -0.1085287E-16  0.1000000E+01
  0.3956461E-01 -0.5421082E-01  0.4908141E-01  -0.1010991E-15 -0.1085287E-16  0.1000000E+01
  0.3956461E-01  0.5421082E-01  0.4908141E-01  -0.1010991E-15 -0.1085287E-16  0.1000000E+01
 -0.3956461E-01  0.5421082E-01  0.4908141E-01  -0.1010991E-15 -0.1085287E-16  0.1000000E+01
           6
  0.5425328E-01  0.5421082E-01 -0.3210802E-01  -0.0000000E+00  0.1000000E+01  0.6457952E-15
  0.3956461E-01  0.5421082E-01 -0.4908141E-01  -0.0000000E+00  0.1000000E+01  0.6457952E-15
 -0.3956461E-01  0.5421082E-01 -0.4908141E-01  -0.0000000E+00  0.1000000E+01  0.6457952E-15
 -0.5425328E-01  0.5421082E-01  0.3210802E-01  -0.0000000E+00  0.1000000E+01  0.6457952E-15
 -0.3956461E-01  0.5421082E-01  0.4908141E-01  -0.0000000E+00  0.1000000E+01  0.6457952E-15
  0.3956461E-01  0.5421082E-01  0.4908141E-01  -0.0000000E+00  0.1000000E+01  0.6457952E-15
           4
  0.5425328E-01  0.5421082E-01 -0.3210802E-01   0.7561652E+00  0.4454946E-16 -0.6543808E+00
  0.5425328E-01 -0.5421082E-01 -0.3210802E-01   0.7561652E+00  0.4454946E-16 -0.6543808E+00
  0.3956461E-01 -0.5421082E-01 -0.4908141E-01   0.7561652E+00  0.4454946E-16 -0.6543808E+00
  0.3956461E-01  0.5421082E-01 -0.4908141E-01   0.7561652E+00  0.4454946E-16 -0.6543808E+00
           4
  0.3956461E-01 -0.5421082E-01  0.4908141E-01   0.9840254E+00  0.3807134E-16  0.1780284E+00
  0.5425328E-01 -0.5421082E-01 -0.3210802E-01   0.9840254E+00  0.3807134E-16  0.1780284E+00
  0.5425328E-01  0.5421082E-01 -0.3210802E-01   0.9840254E+00  0.3807134E-16  0.1780284E+00
  0.3956461E-01  0.5421082E-01  0.4908141E-01   0.9840254E+00  0.3807134E-16  0.1780284E+00
 BRILLOUIN-ZONE-CONVCELL_END
 ATOMS
   19    0.0000000000    4.6513456520    0.0000000000    0.0000000000   -0.0002299800    0.0000000000
   19    5.3294758200    4.5041342210    0.0000000000    0.0000000000   -0.0002340000    0.0000000000
   19    0.8690748220    0.0392744960   10.0211094830   -0.0000715500    0.0000837900    0.0002456700
   19    7.9468318470    0.0392744960    0.1660503890    0.0000715500    0.0000837900   -0.0002456700
   12   -0.9215224850    6.2157481650    5.0935799360    0.0000000000   -0.0000126800    0.0000000000
   12    4.4079533350    6.1648592680    5.0935799360    0.0000000000    0.0000889400    0.0000000000
   12    1.7654421820    4.5990081300    5.1010847340   -0.0001358000   -0.0000172900    0.0000657800
   12    7.0504644870    4.5990081300    5.0860751380    0.0001358000   -0.0000172900   -0.0000657800
   12    1.6657061330    7.7598608160    5.1034517260   -0.0000136400   -0.0001646900   -0.0000588600
   12    7.1502004310    7.7598608160    5.0837078410    0.0000136400   -0.0001646900    0.0000588600