
     Program PWSCF v.7.3.1 starts on 25Mar2025 at 11:34:52 

     This program is part of the open-source Quantum ESPRESSO suite
     for quantum simulation of materials; please cite
         "P. Giannozzi et al., J. Phys.:Condens. Matter 21 395502 (2009);
         "P. Giannozzi et al., J. Phys.:Condens. Matter 29 465901 (2017);
         "P. Giannozzi et al., J. Chem. Phys. 152 154105 (2020);
          URL http://www.quantum-espresso.org", 
     in publications or presentations arising from this work. More details at
     http://www.quantum-espresso.org/quote

     Parallel version (MPI), running on     6 processors

     MPI processes distributed on     1 nodes
     7229 MiB available memory on the printing compute node when the environment starts

     Reading input from vc_relax.in

     Current dimensions of program PWSCF are:
     Max number of different atomic species (ntypx) = 10
     Max number of k-points (npk) =  40000
     Max angular momentum in pseudopotentials (lmaxx) =  4
     file Al.pbe-n-kjpaw_psl.1.0.0.UPF: wavefunction(s)  3S 3P renormalized
     file Ti.pbe-spn-kjpaw_psl.1.0.0.UPF: wavefunction(s)  3S 3P 3D renormalized
     file H.pbe-kjpaw_psl.1.0.0.UPF: wavefunction(s)  1S renormalized
     file K.pbe-spn-kjpaw_psl.1.0.0.UPF: wavefunction(s)  3S renormalized
     file Mg.pbe-spnl-kjpaw_psl.1.0.0.UPF: wavefunction(s)  2P renormalized
     file O.pbe-n-kjpaw_psl.1.0.0.UPF: wavefunction(s)  2S 2P renormalized
     file Si.pbe-n-kjpaw_psl.1.0.0.UPF: wavefunction(s)  3S 3P renormalized

     R & G space division:  proc/nbgrp/npool/nimage =       6
     Subspace diagonalization in iterative solution of the eigenvalue problem:
     one sub-group per band group will be used
     custom distributed-memory algorithm (size of sub-group:  2*  2 procs)


     Parallelization info
     --------------------
     sticks:   dense  smooth     PW     G-vecs:    dense   smooth      PW
     Min        2228    1115    293               199657    70588    9536
     Max        2229    1116    294               199662    70591    9537
     Sum       13369    6691   1763              1197951   423533   57221

     Using Slab Decomposition



     bravais-lattice index     =          -12
     lattice parameter (alat)  =      20.1159  a.u.
     unit-cell volume          =    6745.4973 (a.u.)^3
     number of atoms/cell      =           87
     number of atomic types    =            7
     number of electrons       =       504.00
     number of Kohn-Sham states=          302
     kinetic-energy cutoff     =      60.0000  Ry
     charge density cutoff     =     480.0000  Ry
     scf convergence threshold =      1.0E-06
     mixing beta               =       0.7000
     number of iterations used =            8  plain     mixing
     energy convergence thresh.=      1.0E-04
     force convergence thresh. =      1.0E-03
     press convergence thresh. =      5.0E-01
     Exchange-correlation= SLA  PW   PBX  PBC
                           (   1   4   3   4   0   0   0)
     nstep                     =           50


     celldm(1)=  20.115921  celldm(2)=   0.865951  celldm(3)=   0.972461
     celldm(4)=   0.000000  celldm(5)=  -0.177748  celldm(6)=   0.000000

     crystal axes: (cart. coord. in units of alat)
               a(1) = (   1.000000   0.000000   0.000000 )  
               a(2) = (   0.000000   0.865951   0.000000 )  
               a(3) = (  -0.172853   0.000000   0.956976 )  

     reciprocal axes: (cart. coord. in units 2 pi/alat)
               b(1) = (  1.000000 -0.000000  0.180625 )  
               b(2) = (  0.000000  1.154800 -0.000000 )  
               b(3) = (  0.000000  0.000000  1.044958 )  


     PseudoPot. # 1 for Al read from file:
     ./../../../pseudos/Al.pbe-n-kjpaw_psl.1.0.0.UPF
     MD5 check sum: 502b6b27b9c6270cab5dd1084b96fa6d
     Pseudo is Projector augmented-wave + core cor, Zval =  3.0
     Generated using &quot;atomic&quot; code by A. Dal Corso  v.6.3
     Shape of augmentation charge: PSQ
     Using radial grid of 1135 points,  6 beta functions with: 
                l(1) =   0
                l(2) =   0
                l(3) =   1
                l(4) =   1
                l(5) =   2
                l(6) =   2
     Q(r) pseudized with 0 coefficients 


     PseudoPot. # 2 for Ti read from file:
     ./../../../pseudos/Ti.pbe-spn-kjpaw_psl.1.0.0.UPF
     MD5 check sum: 01f69b0d8ba4438b2e03ac6ea4af1c0b
     Pseudo is Projector augmented-wave + core cor, Zval = 12.0
     Generated using &quot;atomic&quot; code by A. Dal Corso  v.6.2.2
     Shape of augmentation charge: PSQ
     Using radial grid of 1177 points,  6 beta functions with: 
                l(1) =   0
                l(2) =   0
                l(3) =   1
                l(4) =   1
                l(5) =   2
                l(6) =   2
     Q(r) pseudized with 0 coefficients 


     PseudoPot. # 3 for H  read from file:
     ./../../../pseudos/H.pbe-kjpaw_psl.1.0.0.UPF
     MD5 check sum: d81a744832360e4a8af0b0b5b123bc2a
     Pseudo is Projector augmented-wave, Zval =  1.0
     Generated using &quot;atomic&quot; code by A. Dal Corso  v.6.3MaX
     Shape of augmentation charge: PSQ
     Using radial grid of  929 points,  2 beta functions with: 
                l(1) =   0
                l(2) =   0
     Q(r) pseudized with 0 coefficients 


     PseudoPot. # 4 for K  read from file:
     ./../../../pseudos/K.pbe-spn-kjpaw_psl.1.0.0.UPF
     MD5 check sum: 34cc42130a09071ebe376fd42eb21491
     Pseudo is Projector augmented-wave + core cor, Zval =  9.0
     Generated using &quot;atomic&quot; code by A. Dal Corso  v.6.2.2
     Shape of augmentation charge: PSQ
     Using radial grid of 1165 points,  6 beta functions with: 
                l(1) =   0
                l(2) =   0
                l(3) =   1
                l(4) =   1
                l(5) =   2
                l(6) =   2
     Q(r) pseudized with 0 coefficients 


     PseudoPot. # 5 for Mg read from file:
     ./../../../pseudos/Mg.pbe-spnl-kjpaw_psl.1.0.0.UPF
     MD5 check sum: fda14e0d92a6a9a5ebed782e5a4b3067
     Pseudo is Projector augmented-wave + core cor, Zval = 10.0
     Generated using &quot;atomic&quot; code by A. Dal Corso  v.6.3
     Shape of augmentation charge: PSQ
     Using radial grid of 1129 points,  4 beta functions with: 
                l(1) =   0
                l(2) =   0
                l(3) =   1
                l(4) =   1
     Q(r) pseudized with 0 coefficients 


     PseudoPot. # 6 for O  read from file:
     ./../../../pseudos/O.pbe-n-kjpaw_psl.1.0.0.UPF
     MD5 check sum: e99d9cef9b487d1ca56f5b95ecd0fd7a
     Pseudo is Projector augmented-wave + core cor, Zval =  6.0
     Generated using &quot;atomic&quot; code by A. Dal Corso  v.6.3
     Shape of augmentation charge: PSQ
     Using radial grid of 1095 points,  4 beta functions with: 
                l(1) =   0
                l(2) =   0
                l(3) =   1
                l(4) =   1
     Q(r) pseudized with 0 coefficients 


     PseudoPot. # 7 for Si read from file:
     ./../../../pseudos/Si.pbe-n-kjpaw_psl.1.0.0.UPF
     MD5 check sum: c39c59da582df4a0d9f10159256ea34e
     Pseudo is Projector augmented-wave + core cor, Zval =  4.0
     Generated using &quot;atomic&quot; code by A. Dal Corso  v.6.3
     Shape of augmentation charge: PSQ
     Using radial grid of 1141 points,  6 beta functions with: 
                l(1) =   0
                l(2) =   0
                l(3) =   1
                l(4) =   1
                l(5) =   2
                l(6) =   2
     Q(r) pseudized with 0 coefficients 


     atomic species   valence    mass     pseudopotential
     Al                3.00    26.98154     Al( 1.00)
     Ti               12.00    47.86700     Ti( 1.00)
     H                 1.00     1.00794     H ( 1.00)
     K                 9.00    39.09830     K ( 1.00)
     Mg               10.00    24.30500     Mg( 1.00)
     O                 6.00    15.99940     O ( 1.00)
     Si                4.00    28.08550     Si( 1.00)

     Starting magnetic structure 
     atomic species   magnetization
     Al              0.000
     Ti              0.300
     H               0.000
     K               0.000
     Mg              0.000
     O               0.000
     Si              0.000

      2 Sym. Ops. (no inversion) found


                                    s                        frac. trans.

      isym =  1     identity                                     

 cryst.   s( 1) = (     1          0          0      )
                  (     0          1          0      )
                  (     0          0          1      )

 cart.    s( 1) = (  1.0000000  0.0000000 -0.0000000 )
                  (  0.0000000  1.0000000  0.0000000 )
                  (  0.0000000  0.0000000  1.0000000 )


      isym =  2     180 deg rotation - cart. axis [0,1,0]        

 cryst.   s( 2) = (    -1          0          0      )
                  (     0          1          0      )
                  (     0          0         -1      )

 cart.    s( 2) = ( -1.0000000  0.0000000  0.0000000 )
                  (  0.0000000  1.0000000  0.0000000 )
                  (  0.0000000  0.0000000 -1.0000000 )


     point group C_2  (2)   
     there are  2 classes
     the character table:

       E     C2   
A      1.00  1.00
B      1.00 -1.00

     the symmetry operations in each class and the name of the first element:

     E        1
          identity                                               
     C2       2
          180 deg rotation - cart. axis [0,1,0]                  

   Cartesian axes

     site n.     atom                  positions (alat units)
         1        K      tau(   1) = (   0.0000000   0.4367787   0.0000000  )
         2        K      tau(   2) = (   0.5000000   0.4229485   0.0000000  )
         3        K      tau(   3) = (   0.0816371   0.0036821   0.9412466  )
         4        K      tau(   4) = (   0.7455096   0.0036821   0.0157294  )
         5        Mg     tau(   5) = (  -0.0864267   0.5836571   0.4784880  )
         6        Mg     tau(   6) = (   0.4135733   0.5788704   0.4784880  )
         7        Mg     tau(   7) = (   0.1656575   0.4318475   0.4791527  )
         8        Mg     tau(   8) = (   0.6614891   0.4318475   0.4778232  )
         9        Mg     tau(   9) = (   0.1563301   0.7285529   0.4794229  )
        10        Mg     tau(  10) = (   0.6708165   0.7285529   0.4775530  )
        11        Mg     tau(  11) = (   0.1641465   0.1414917   0.4821925  )
        12        Mg     tau(  12) = (   0.6630001   0.1414917   0.4747834  )
        13        Mg     tau(  13) = (   0.4135733   0.2877815   0.4784880  )
        14        Mg     tau(  14) = (   0.4135733   0.0025966   0.4784880  )
        15        Si     tau(  15) = (   0.0036468   0.1451170   0.2103195  )
        16        Si     tau(  16) = (   0.5023602   0.1445148   0.2156473  )
        17        Si     tau(  17) = (   0.3247864   0.1445148   0.7413286  )
        18        Si     tau(  18) = (   0.8234999   0.1451170   0.7466564  )
        19        Si     tau(  19) = (   0.3333623   0.7235921   0.7347532  )
        20        Si     tau(  20) = (   0.8330255   0.7217528   0.7353725  )
        21        Si     tau(  21) = (  -0.0058789   0.7217528   0.2216034  )
        22        Si     tau(  22) = (   0.4937843   0.7235921   0.2222227  )
        23        Si     tau(  23) = (   0.2416831   0.5796761   0.2196136  )
        24        Si     tau(  24) = (   0.7432661   0.5798833   0.2185158  )
        25        Si     tau(  25) = (   0.0838806   0.5798833   0.7384601  )
        26        Si     tau(  26) = (   0.5854635   0.5796761   0.7373623  )
        27        Al     tau(  27) = (   0.0726537   0.2871348   0.7461579  )
        28        Al     tau(  28) = (   0.5753572   0.2877219   0.7365664  )
        29        Al     tau(  29) = (   0.2517894   0.2877219   0.2204095  )
        30        Al     tau(  30) = (   0.7544929   0.2871348   0.2108180  )
        31        O      tau(  31) = (  -0.0039149   0.1599066   0.3659174  )
        32        O      tau(  32) = (   0.4976352   0.1429888   0.3693081  )
        33        O      tau(  33) = (   0.3295114   0.1429888   0.5876678  )
        34        O      tau(  34) = (   0.8310615   0.1599066   0.5910585  )
        35        O      tau(  35) = (   0.3310299   0.7223295   0.5826109  )
        36        O      tau(  36) = (   0.8282217   0.7116077   0.5862191  )
        37        O      tau(  37) = (  -0.0010751   0.7116077   0.3707568  )
        38        O      tau(  38) = (   0.4961167   0.7223295   0.3743650  )
        39        O      tau(  39) = (   0.2435926   0.5804140   0.3728505  )
        40        O      tau(  40) = (   0.7462277   0.5778149   0.3715159  )
        41        O      tau(  41) = (   0.0809188   0.5778149   0.5854609  )
        42        O      tau(  42) = (   0.5835539   0.5804140   0.5841264  )
        43        O      tau(  43) = (   0.0644902   0.2880660   0.5787127  )
        44        O      tau(  44) = (   0.5810194   0.2878433   0.5729289  )
        45        O      tau(  45) = (   0.2461282   0.2878433   0.3840470  )
        46        O      tau(  46) = (   0.7626575   0.2880660   0.3782632  )
        47        O      tau(  47) = (   0.1430260   0.1775085   0.1596968  )
        48        O      tau(  48) = (   0.6365832   0.1874121   0.1573030  )
        49        O      tau(  49) = (   0.1905634   0.1874121   0.7996729  )
        50        O      tau(  50) = (   0.6841206   0.1775085   0.7972791  )
        51        O      tau(  51) = (  -0.0277454   0.8650700   0.1678522  )
        52        O      tau(  52) = (   0.4725759   0.8648324   0.1630650  )
        53        O      tau(  53) = (   0.3545708   0.8648324   0.7939108  )
        54        O      tau(  54) = (   0.8548930   0.8650700   0.7891237  )
        55        O      tau(  55) = (   0.2018381   0.6661058   0.7938174  )
        56        O      tau(  56) = (   0.6986275   0.6708219   0.7967386  )
        57        O      tau(  57) = (   0.1285191   0.6708219   0.1602374  )
        58        O      tau(  58) = (   0.6253085   0.6661058   0.1631586  )
        59        O      tau(  59) = (   0.3771854   0.6368535   0.1657993  )
        60        O      tau(  60) = (   0.8766939   0.6385169   0.1610987  )
        61        O      tau(  61) = (  -0.0495471   0.6385169   0.7958762  )
        62        O      tau(  62) = (   0.4499614   0.6368535   0.7911757  )
        63        O      tau(  63) = (   0.2192572   0.4406250   0.1613076  )
        64        O      tau(  64) = (   0.7256429   0.4411561   0.1582350  )
        65        O      tau(  65) = (   0.1015038   0.4411561   0.7987410  )
        66        O      tau(  66) = (   0.6078894   0.4406250   0.7956684  )
        67        O      tau(  67) = (  -0.0731282   0.2391638   0.8077507  )
        68        O      tau(  68) = (   0.4300325   0.2393929   0.7984127  )
        69        O      tau(  69) = (   0.3971141   0.2393929   0.1585631  )
        70        O      tau(  70) = (   0.9002748   0.2391638   0.1492252  )
        71        O      tau(  71) = (  -0.0076090   0.4277949   0.3849724  )
        72        O      tau(  72) = (   0.4967762   0.4358936   0.3783982  )
        73        O      tau(  73) = (   0.3303704   0.4358936   0.5785777  )
        74        O      tau(  74) = (   0.8347556   0.4277949   0.5720034  )
        75        O      tau(  75) = (   0.2483755   0.0004157   0.3796163  )
        76        O      tau(  76) = (   0.7374550   0.0022817   0.3702095  )
        77        O      tau(  77) = (   0.0896916   0.0022817   0.5867664  )
        78        O      tau(  78) = (   0.5787711   0.0004157   0.5773596  )
        79        H      tau(  79) = (  -0.0061779   0.4201357   0.2942394  )
        80        H      tau(  80) = (   0.4945568   0.4309163   0.2878188  )
        81        H      tau(  81) = (   0.3325898   0.4309163   0.6691571  )
        82        H      tau(  82) = (   0.8333245   0.4201357   0.6627366  )
        83        H      tau(  83) = (   0.2477734   0.0122752   0.2895771  )
        84        H      tau(  84) = (   0.8284890   0.8636987   0.3754745  )
        85        H      tau(  85) = (  -0.0013413   0.8636987   0.5815014  )
        86        H      tau(  86) = (   0.5793733   0.0122752   0.6673987  )
        87        Ti     tau(  87) = (  -0.0864267   0.2729532   0.4784880  )

     --------------------------------------------
     DFT-D3 Dispersion Correction (3-body terms):
     --------------------------------------------
       Reference C6 values for interpolation: 

         atom   Coordination number   C6
         H          0.912             6.05
         H          0.000            15.18
         O          0.000            31.01
         O          0.993            25.63
         O          1.989            20.74
         Mg         0.000          1366.75
         Mg         0.963           902.54
         Mg         1.950           351.12
         Al         0.000          1081.08
         Al         0.965           875.51
         Al         1.931           513.50
         Al         2.915           307.19
         Si         0.000           635.71
         Si         0.951           540.53
         Si         1.944           466.25
         Si         2.941           443.01
         Si         3.868           299.55
         K          0.000          9967.00
         K          0.977           676.04
         Ti         0.000          2723.84
         Ti         1.830           604.00
         Ti         3.868           643.18

       Values used:

         atom   Coordination number  R0_AB[au]  C6      C8
         K         12.834            4.007    676.04 129074.98
         K         12.584            4.007    676.04 129074.98
         K         12.691            4.007    676.04 129074.98
         K         12.691            4.007    676.04 129074.98
         Mg        10.722            3.292    351.12  31436.69
         Mg        11.557            3.292    351.12  31436.69
         Mg        11.588            3.292    351.12  31436.69
         Mg        11.588            3.292    351.12  31436.69
         Mg        10.895            3.292    351.12  31436.69
         Mg        10.895            3.292    351.12  31436.69
         Mg        11.180            3.292    351.12  31436.69
         Mg        11.180            3.292    351.12  31436.69
         Mg        12.055            3.292    351.12  31436.69
         Mg        11.781            3.292    351.12  31436.69
         Si         6.436            3.583    299.55  21425.58
         Si         6.887            3.583    299.55  21425.58
         Si         6.887            3.583    299.55  21425.58
         Si         6.436            3.583    299.55  21425.58
         Si         6.395            3.583    299.55  21425.58
         Si         6.240            3.583    299.55  21425.58
         Si         6.240            3.583    299.55  21425.58
         Si         6.395            3.583    299.55  21425.58
         Si         6.341            3.583    299.55  21425.58
         Si         6.536            3.583    299.55  21425.58
         Si         6.536            3.583    299.55  21425.58
         Si         6.341            3.583    299.55  21425.58
         Al         7.563            3.789    307.19  29441.29
         Al         7.455            3.789    307.19  29441.29
         Al         7.455            3.789    307.19  29441.29
         Al         7.563            3.789    307.19  29441.29
         O          2.972            2.345     20.74    418.58
         O          3.930            2.345     20.74    418.58
         O          3.930            2.345     20.74    418.58
         O          2.972            2.345     20.74    418.58
         O          3.905            2.345     20.74    418.58
         O          3.018            2.345     20.74    418.58
         O          3.018            2.345     20.74    418.58
         O          3.905            2.345     20.74    418.58
         O          3.886            2.345     20.74    418.58
         O          3.900            2.345     20.74    418.58
         O          3.900            2.345     20.74    418.58
         O          3.886            2.345     20.74    418.58
         O          3.904            2.345     20.74    418.58
         O          3.970            2.345     20.74    418.58
         O          3.970            2.345     20.74    418.58
         O          3.904            2.345     20.74    418.58
         O          3.030            2.345     20.74    418.58
         O          3.297            2.345     20.74    418.58
         O          3.297            2.345     20.74    418.58
         O          3.030            2.345     20.74    418.58
         O          3.003            2.345     20.74    418.58
         O          3.137            2.345     20.74    418.58
         O          3.137            2.345     20.74    418.58
         O          3.003            2.345     20.74    418.58
         O          3.088            2.345     20.74    418.58
         O          2.966            2.345     20.74    418.58
         O          2.966            2.345     20.74    418.58
         O          3.088            2.345     20.74    418.58
         O          2.841            2.345     20.74    418.58
         O          3.172            2.345     20.74    418.58
         O          3.172            2.345     20.74    418.58
         O          2.841            2.345     20.74    418.58
         O          3.097            2.345     20.74    418.58
         O          3.128            2.345     20.74    418.58
         O          3.128            2.345     20.74    418.58
         O          3.097            2.345     20.74    418.58
         O          3.256            2.345     20.74    418.58
         O          3.155            2.345     20.74    418.58
         O          3.155            2.345     20.74    418.58
         O          3.256            2.345     20.74    418.58
         O          3.934            2.345     20.74    418.58
         O          3.986            2.345     20.74    418.58
         O          3.986            2.345     20.74    418.58
         O          3.934            2.345     20.74    418.58
         O          3.980            2.345     20.74    418.58
         O          3.092            2.345     20.74    418.58
         O          3.092            2.345     20.74    418.58
         O          3.980            2.345     20.74    418.58
         H          1.218            2.062      6.08     73.49
         H          1.269            2.062      6.07     73.39
         H          1.269            2.062      6.07     73.39
         H          1.218            2.062      6.08     73.49
         H          1.183            2.062      6.09     73.58
         H          1.154            2.062      6.10     73.68
         H          1.154            2.062      6.10     73.68
         H          1.183            2.062      6.09     73.58
         Ti        10.444            3.557    643.18  76289.64

         Molecular C6 ( Ry / a.u.^6 ) =    654187.64


   Crystallographic axes

     site n.     atom                  positions (cryst. coord.)
         1        K      tau(   1) = (  0.0000000  0.5043920  0.0000000  )
         2        K      tau(   2) = (  0.5000000  0.4884210  0.0000000  )
         3        K      tau(   3) = (  0.2516493  0.0042520  0.9835635  )
         4        K      tau(   4) = (  0.7483507  0.0042520  0.0164365  )
         5        Mg     tau(   5) = (  0.0000000  0.6740072  0.5000000  )
         6        Mg     tau(   6) = (  0.5000000  0.6684796  0.5000000  )
         7        Mg     tau(   7) = (  0.2522042  0.4986975  0.5006946  )
         8        Mg     tau(   8) = (  0.7477958  0.4986975  0.4993054  )
         9        Mg     tau(   9) = (  0.2429257  0.8413329  0.5009770  )
        10        Mg     tau(  10) = (  0.7570743  0.8413329  0.4990230  )
        11        Mg     tau(  11) = (  0.2512424  0.1633947  0.5038711  )
        12        Mg     tau(  12) = (  0.7487577  0.1633947  0.4961289  )
        13        Mg     tau(  13) = (  0.5000000  0.3323300  0.5000000  )
        14        Mg     tau(  14) = (  0.5000000  0.0029986  0.5000000  )
        15        Si     tau(  15) = (  0.0416356  0.1675811  0.2197751  )
        16        Si     tau(  16) = (  0.5413114  0.1668857  0.2253425  )
        17        Si     tau(  17) = (  0.4586886  0.1668857  0.7746575  )
        18        Si     tau(  18) = (  0.9583644  0.1675811  0.7802249  )
        19        Si     tau(  19) = (  0.4660768  0.8356043  0.7677865  )
        20        Si     tau(  20) = (  0.9658518  0.8334802  0.7684336  )
        21        Si     tau(  21) = (  0.0341482  0.8334802  0.2315664  )
        22        Si     tau(  22) = (  0.5339232  0.8356043  0.2322135  )
        23        Si     tau(  23) = (  0.2813507  0.6694100  0.2294871  )
        24        Si     tau(  24) = (  0.7827354  0.6696493  0.2283399  )
        25        Si     tau(  25) = (  0.2172646  0.6696493  0.7716600  )
        26        Si     tau(  26) = (  0.7186493  0.6694100  0.7705129  )
        27        Al     tau(  27) = (  0.2074282  0.3315833  0.7797040  )
        28        Al     tau(  28) = (  0.7083992  0.3322613  0.7696812  )
        29        Al     tau(  29) = (  0.2916008  0.3322613  0.2303188  )
        30        Al     tau(  30) = (  0.7925718  0.3315833  0.2202960  )
        31        O      tau(  31) = (  0.0621788  0.1846601  0.3823684  )
        32        O      tau(  32) = (  0.5643413  0.1651234  0.3859116  )
        33        O      tau(  33) = (  0.4356587  0.1651234  0.6140884  )
        34        O      tau(  34) = (  0.9378212  0.1846601  0.6176316  )
        35        O      tau(  35) = (  0.4362638  0.8341461  0.6088041  )
        36        O      tau(  36) = (  0.9341072  0.8217646  0.6125746  )
        37        O      tau(  37) = (  0.0658927  0.8217646  0.3874254  )
        38        O      tau(  38) = (  0.5637363  0.8341461  0.3911959  )
        39        O      tau(  39) = (  0.3109385  0.6702621  0.3896132  )
        40        O      tau(  40) = (  0.8133326  0.6672606  0.3882186  )
        41        O      tau(  41) = (  0.1866674  0.6672606  0.6117823  )
        42        O      tau(  42) = (  0.6890615  0.6702621  0.6103877  )
        43        O      tau(  43) = (  0.1690199  0.3326586  0.6047307  )
        44        O      tau(  44) = (  0.6845044  0.3324014  0.5986869  )
        45        O      tau(  45) = (  0.3154966  0.3324014  0.4013132  )
        46        O      tau(  46) = (  0.8309811  0.3326586  0.3952693  )
        47        O      tau(  47) = (  0.1718712  0.2049868  0.1668765  )
        48        O      tau(  48) = (  0.6649960  0.2164235  0.1643751  )
        49        O      tau(  49) = (  0.3350040  0.2164235  0.8356249  )
        50        O      tau(  50) = (  0.8281288  0.2049868  0.8331235  )
        51        O      tau(  51) = (  0.0025728  0.9989829  0.1753985  )
        52        O      tau(  52) = (  0.5020294  0.9987085  0.1703962  )
        53        O      tau(  53) = (  0.4979706  0.9987085  0.8296038  )
        54        O      tau(  54) = (  0.9974282  0.9989829  0.8246015  )
        55        O      tau(  55) = (  0.3452210  0.7692190  0.8295061  )
        56        O      tau(  56) = (  0.8425381  0.7746652  0.8325586  )
        57        O      tau(  57) = (  0.1574619  0.7746652  0.1674414  )
        58        O      tau(  58) = (  0.6547790  0.7692190  0.1704939  )
        59        O      tau(  59) = (  0.4071328  0.7354385  0.1732533  )
        60        O      tau(  60) = (  0.9057923  0.7373594  0.1683414  )
        61        O      tau(  61) = (  0.0942077  0.7373594  0.8316575  )
        62        O      tau(  62) = (  0.5928672  0.7354385  0.8267456  )
        63        O      tau(  63) = (  0.2483933  0.5088338  0.1685597  )
        64        O      tau(  64) = (  0.7542240  0.5094471  0.1653490  )
        65        O      tau(  65) = (  0.2457760  0.5094471  0.8346511  )
        66        O      tau(  66) = (  0.7516067  0.5088338  0.8314403  )
        67        O      tau(  67) = (  0.0727714  0.2761864  0.8440659  )
        68        O      tau(  68) = (  0.5742455  0.2764509  0.8343081  )
        69        O      tau(  69) = (  0.4257545  0.2764509  0.1656919  )
        70        O      tau(  70) = (  0.9272286  0.2761864  0.1559341  )
        71        O      tau(  71) = (  0.0619265  0.4940175  0.4022802  )
        72        O      tau(  72) = (  0.5651242  0.5033700  0.3954104  )
        73        O      tau(  73) = (  0.4348758  0.5033700  0.6045896  )
        74        O      tau(  74) = (  0.9380735  0.4940175  0.5977198  )
        75        O      tau(  75) = (  0.3169436  0.0004801  0.3966833  )
        76        O      tau(  76) = (  0.8043240  0.0026350  0.3868535  )
        77        O      tau(  77) = (  0.1956761  0.0026350  0.6131465  )
        78        O      tau(  78) = (  0.6830565  0.0004801  0.6033167  )
        79        H      tau(  79) = (  0.0469690  0.4851727  0.3074679  )
        80        H      tau(  80) = (  0.5465440  0.4976222  0.3007587  )
        81        H      tau(  81) = (  0.4534560  0.4976222  0.6992413  )
        82        H      tau(  82) = (  0.9530310  0.4851727  0.6925321  )
        83        H      tau(  83) = (  0.3000781  0.0141754  0.3025961  )
        84        H      tau(  84) = (  0.8963089  0.9973993  0.3923552  )
        85        H      tau(  85) = (  0.1036921  0.9973993  0.6076448  )
        86        H      tau(  86) = (  0.6999219  0.0141754  0.6974039  )
        87        Ti     tau(  87) = (  0.0000000  0.3152064  0.5000000  )

     number of k points=    10  Gaussian smearing, width (Ry)=  0.0010
                       cart. coord. in units 2pi/alat
        k(    1) = (   0.0000000   0.0000000   0.0000000), wk =   0.0370370
        k(    2) = (   0.0000000   0.0000000   0.3483195), wk =   0.0740741
        k(    3) = (   0.0000000   0.3849334   0.0000000), wk =   0.0740741
        k(    4) = (   0.0000000   0.3849334   0.3483195), wk =   0.1481481
        k(    5) = (   0.3333333   0.0000000   0.0602082), wk =   0.0740741
        k(    6) = (   0.3333333   0.0000000   0.4085276), wk =   0.0740741
        k(    7) = (   0.3333333   0.0000000  -0.2881113), wk =   0.0740741
        k(    8) = (   0.3333333   0.3849334   0.0602082), wk =   0.1481481
        k(    9) = (   0.3333333   0.3849334   0.4085276), wk =   0.1481481
        k(   10) = (   0.3333333   0.3849334  -0.2881113), wk =   0.1481481

                       cryst. coord.
        k(    1) = (   0.0000000   0.0000000   0.0000000), wk =   0.0370370
        k(    2) = (   0.0000000   0.0000000   0.3333333), wk =   0.0740741
        k(    3) = (   0.0000000   0.3333333   0.0000000), wk =   0.0740741
        k(    4) = (   0.0000000   0.3333333   0.3333333), wk =   0.1481481
        k(    5) = (   0.3333333   0.0000000  -0.0000000), wk =   0.0740741
        k(    6) = (   0.3333333   0.0000000   0.3333333), wk =   0.0740741
        k(    7) = (   0.3333333   0.0000000  -0.3333333), wk =   0.0740741
        k(    8) = (   0.3333333   0.3333333  -0.0000000), wk =   0.1481481
        k(    9) = (   0.3333333   0.3333333   0.3333333), wk =   0.1481481
        k(   10) = (   0.3333333   0.3333333  -0.3333333), wk =   0.1481481

     Dense  grid:  1197951 G-vectors     FFT dimensions: ( 144, 125, 144)

     Smooth grid:   423533 G-vectors     FFT dimensions: ( 100,  90, 100)

     Dynamical RAM for                 wfc:      40.66 MB

     Dynamical RAM for     wfc (w. buffer):     853.81 MB

     Dynamical RAM for           str. fact:      21.33 MB

     Dynamical RAM for           local pot:       0.00 MB

     Dynamical RAM for          nlocal pot:     115.51 MB

     Dynamical RAM for                qrad:      24.61 MB

     Dynamical RAM for          rho,v,vnew:      38.05 MB

     Dynamical RAM for               rhoin:      12.68 MB

     Dynamical RAM for            rho*nmix:      97.49 MB

     Dynamical RAM for           G-vectors:      11.96 MB

     Dynamical RAM for          h,s,v(r/c):       4.17 MB

     Dynamical RAM for          <psi|beta>:       3.95 MB

     Dynamical RAM for                 psi:      81.32 MB

     Dynamical RAM for                hpsi:      81.32 MB

     Dynamical RAM for                spsi:      81.32 MB

     Dynamical RAM for      wfcinit/wfcrot:      98.76 MB

     Dynamical RAM for           addusdens:     715.94 MB

     Dynamical RAM for          addusforce:    1002.69 MB

     Dynamical RAM for         addusstress:     616.92 MB

     Estimated static dynamical RAM per process >       1.10 GB

     Estimated max dynamical RAM per process >       2.17 GB

     Estimated total dynamical RAM >      13.02 GB

     Check: negative core charge=   -0.000004
     Generating pointlists ...
     new r_m :   0.0674 (alat units)  1.3562 (a.u.) for type    1
     new r_m :   0.0741 (alat units)  1.4904 (a.u.) for type    2
     new r_m :   0.0374 (alat units)  0.7530 (a.u.) for type    3
     new r_m :   0.1057 (alat units)  2.1263 (a.u.) for type    4
     new r_m :   0.0775 (alat units)  1.5582 (a.u.) for type    5
     new r_m :   0.0374 (alat units)  0.7530 (a.u.) for type    6
     new r_m :   0.0617 (alat units)  1.2411 (a.u.) for type    7

     Initial potential from superposition of free atoms

     starting charge     503.8979, renormalised to     504.0000
     Starting wfcs are  356 randomized atomic wfcs
     Checking if some PAW data can be deallocated... 
       PAW data deallocated on    5 nodes for type:  1
       PAW data deallocated on    5 nodes for type:  2
       PAW data deallocated on    5 nodes for type:  3
       PAW data deallocated on    5 nodes for type:  4
       PAW data deallocated on    5 nodes for type:  5
       PAW data deallocated on    2 nodes for type:  6
       PAW data deallocated on    4 nodes for type:  7

     total cpu time spent up to now is      575.2 secs

     Self-consistent Calculation

     iteration #  1     ecut=    60.00 Ry     beta= 0.70
     Davidson diagonalization with overlap

---- Real-time Memory Report at c_bands before calling an iterative solver
          1239 MiB given to the printing process from OS
             0 MiB allocation reported by mallinfo(arena+hblkhd)
           838 MiB available memory on the node where the printing process lives
------------------
     ethr =  1.00E-02,  avg # of iterations =  5.8

     total cpu time spent up to now is     2413.6 secs

     total energy              =   -4772.41878015 Ry
     estimated scf accuracy    <      25.76783528 Ry

     total magnetization       =     0.00 Bohr mag/cell
     absolute magnetization    =     0.50 Bohr mag/cell

     iteration #  2     ecut=    60.00 Ry     beta= 0.70
     Davidson diagonalization with overlap

---- Real-time Memory Report at c_bands before calling an iterative solver
          1839 MiB given to the printing process from OS
             0 MiB allocation reported by mallinfo(arena+hblkhd)
          3422 MiB available memory on the node where the printing process lives
------------------
     ethr =  5.11E-03,  avg # of iterations =  5.0

     total cpu time spent up to now is     5211.2 secs

     total energy              =   -4768.64863404 Ry
     estimated scf accuracy    <      75.56288570 Ry

     total magnetization       =     0.02 Bohr mag/cell
     absolute magnetization    =     0.63 Bohr mag/cell

     iteration #  3     ecut=    60.00 Ry     beta= 0.70
     Davidson diagonalization with overlap

---- Real-time Memory Report at c_bands before calling an iterative solver
          1845 MiB given to the printing process from OS
             0 MiB allocation reported by mallinfo(arena+hblkhd)
          3585 MiB available memory on the node where the printing process lives
------------------
     ethr =  5.11E-03,  avg # of iterations =  5.4

     total cpu time spent up to now is     6807.2 secs

     total energy              =   -4782.94587555 Ry
     estimated scf accuracy    <      28.48972447 Ry

     total magnetization       =     0.15 Bohr mag/cell
     absolute magnetization    =     0.49 Bohr mag/cell

     iteration #  4     ecut=    60.00 Ry     beta= 0.70
     Davidson diagonalization with overlap

---- Real-time Memory Report at c_bands before calling an iterative solver
          1850 MiB given to the printing process from OS
             0 MiB allocation reported by mallinfo(arena+hblkhd)
          3635 MiB available memory on the node where the printing process lives
------------------
     ethr =  5.11E-03,  avg # of iterations =  2.0

     total cpu time spent up to now is     8390.8 secs

     total energy              =   -4787.18050918 Ry
     estimated scf accuracy    <       4.10378010 Ry

     total magnetization       =     0.00 Bohr mag/cell
     absolute magnetization    =     0.26 Bohr mag/cell

     iteration #  5     ecut=    60.00 Ry     beta= 0.70
     Davidson diagonalization with overlap

---- Real-time Memory Report at c_bands before calling an iterative solver
          1855 MiB given to the printing process from OS
             0 MiB allocation reported by mallinfo(arena+hblkhd)
          3484 MiB available memory on the node where the printing process lives
------------------
     ethr =  8.14E-04,  avg # of iterations = 11.9

     total cpu time spent up to now is    10409.6 secs

     total energy              =   -4787.60183757 Ry
     estimated scf accuracy    <       1.71125414 Ry

     total magnetization       =     0.00 Bohr mag/cell
     absolute magnetization    =     0.23 Bohr mag/cell

     iteration #  6     ecut=    60.00 Ry     beta= 0.70
     Davidson diagonalization with overlap

---- Real-time Memory Report at c_bands before calling an iterative solver
          1860 MiB given to the printing process from OS
             0 MiB allocation reported by mallinfo(arena+hblkhd)
          3269 MiB available memory on the node where the printing process lives
------------------
     ethr =  3.40E-04,  avg # of iterations = 14.8

     total cpu time spent up to now is    12942.3 secs

     total energy              =   -4787.98604300 Ry
     estimated scf accuracy    <       0.45134327 Ry

     total magnetization       =     0.00 Bohr mag/cell
     absolute magnetization    =     0.12 Bohr mag/cell

     iteration #  7     ecut=    60.00 Ry     beta= 0.70
     Davidson diagonalization with overlap

---- Real-time Memory Report at c_bands before calling an iterative solver
          1864 MiB given to the printing process from OS
             0 MiB allocation reported by mallinfo(arena+hblkhd)
          3362 MiB available memory on the node where the printing process lives
------------------
     c_bands:  2 eigenvalues not converged
     c_bands:  1 eigenvalues not converged
     ethr =  8.96E-05,  avg # of iterations = 13.2

     total cpu time spent up to now is    15234.5 secs

     total energy              =   -4788.01861486 Ry
     estimated scf accuracy    <       0.18045960 Ry

     total magnetization       =    -0.00 Bohr mag/cell
     absolute magnetization    =     0.10 Bohr mag/cell

     iteration #  8     ecut=    60.00 Ry     beta= 0.70
     Davidson diagonalization with overlap

---- Real-time Memory Report at c_bands before calling an iterative solver
          1869 MiB given to the printing process from OS
             0 MiB allocation reported by mallinfo(arena+hblkhd)
          3646 MiB available memory on the node where the printing process lives
------------------
     ethr =  3.58E-05,  avg # of iterations =  9.1

     total cpu time spent up to now is    17389.7 secs

     total energy              =   -4788.05814891 Ry
     estimated scf accuracy    <       0.03953798 Ry

     total magnetization       =    -0.00 Bohr mag/cell
     absolute magnetization    =     0.07 Bohr mag/cell

     iteration #  9     ecut=    60.00 Ry     beta= 0.70
     Davidson diagonalization with overlap

---- Real-time Memory Report at c_bands before calling an iterative solver
          1874 MiB given to the printing process from OS
             0 MiB allocation reported by mallinfo(arena+hblkhd)
          3418 MiB available memory on the node where the printing process lives
------------------
     c_bands:  1 eigenvalues not converged
     c_bands:  1 eigenvalues not converged
     c_bands:  1 eigenvalues not converged
     c_bands:  1 eigenvalues not converged
     c_bands:  4 eigenvalues not converged
     c_bands:  1 eigenvalues not converged
     c_bands:  1 eigenvalues not converged
     ethr =  7.84E-06,  avg # of iterations = 16.1

     total cpu time spent up to now is    20053.6 secs

     total energy              =   -4788.06522947 Ry
     estimated scf accuracy    <       0.02133288 Ry

     total magnetization       =    -0.00 Bohr mag/cell
     absolute magnetization    =     0.04 Bohr mag/cell

     iteration # 10     ecut=    60.00 Ry     beta= 0.70
     Davidson diagonalization with overlap

---- Real-time Memory Report at c_bands before calling an iterative solver
          1879 MiB given to the printing process from OS
             0 MiB allocation reported by mallinfo(arena+hblkhd)
          3499 MiB available memory on the node where the printing process lives
------------------
     c_bands:  1 eigenvalues not converged
     c_bands:  1 eigenvalues not converged
     c_bands:  2 eigenvalues not converged
     c_bands:  1 eigenvalues not converged
     c_bands:  1 eigenvalues not converged
     ethr =  4.23E-06,  avg # of iterations =  7.5

     total cpu time spent up to now is    21712.5 secs

     total energy              =   -4788.06412952 Ry
     estimated scf accuracy    <       0.00806945 Ry

     total magnetization       =    -0.00 Bohr mag/cell
     absolute magnetization    =     0.04 Bohr mag/cell

     iteration # 11     ecut=    60.00 Ry     beta= 0.70
     Davidson diagonalization with overlap

---- Real-time Memory Report at c_bands before calling an iterative solver
          1883 MiB given to the printing process from OS
             0 MiB allocation reported by mallinfo(arena+hblkhd)
          3429 MiB available memory on the node where the printing process lives
------------------
     c_bands:  1 eigenvalues not converged
     c_bands:  3 eigenvalues not converged
     c_bands:  1 eigenvalues not converged
     c_bands:  1 eigenvalues not converged
     c_bands:  4 eigenvalues not converged
     c_bands:  3 eigenvalues not converged
     c_bands:  2 eigenvalues not converged
     c_bands:  3 eigenvalues not converged
     c_bands:  1 eigenvalues not converged
     c_bands:  2 eigenvalues not converged
     c_bands:  1 eigenvalues not converged
     ethr =  1.60E-06,  avg # of iterations = 16.6

     total cpu time spent up to now is    24729.0 secs

     total energy              =   -4788.06749096 Ry
     estimated scf accuracy    <       0.00360319 Ry

     total magnetization       =    -0.00 Bohr mag/cell
     absolute magnetization    =     0.01 Bohr mag/cell

     iteration # 12     ecut=    60.00 Ry     beta= 0.70
     Davidson diagonalization with overlap

---- Real-time Memory Report at c_bands before calling an iterative solver
          1884 MiB given to the printing process from OS
             0 MiB allocation reported by mallinfo(arena+hblkhd)
          3449 MiB available memory on the node where the printing process lives
------------------
     c_bands:  1 eigenvalues not converged
     c_bands:  1 eigenvalues not converged
     ethr =  7.15E-07,  avg # of iterations =  4.6

     total cpu time spent up to now is    26296.9 secs

     total energy              =   -4788.06791099 Ry
     estimated scf accuracy    <       0.00103184 Ry

     total magnetization       =    -0.00 Bohr mag/cell
     absolute magnetization    =     0.01 Bohr mag/cell

     iteration # 13     ecut=    60.00 Ry     beta= 0.70
     Davidson diagonalization with overlap

---- Real-time Memory Report at c_bands before calling an iterative solver
          1884 MiB given to the printing process from OS
             0 MiB allocation reported by mallinfo(arena+hblkhd)
          3487 MiB available memory on the node where the printing process lives
------------------
     c_bands:  1 eigenvalues not converged
     ethr =  2.05E-07,  avg # of iterations =  7.2

     total cpu time spent up to now is    28353.2 secs

     total energy              =   -4788.06819765 Ry
     estimated scf accuracy    <       0.00030521 Ry

     total magnetization       =     0.00 Bohr mag/cell
     absolute magnetization    =     0.01 Bohr mag/cell

     iteration # 14     ecut=    60.00 Ry     beta= 0.70
     Davidson diagonalization with overlap

---- Real-time Memory Report at c_bands before calling an iterative solver
          1884 MiB given to the printing process from OS
             0 MiB allocation reported by mallinfo(arena+hblkhd)
          3527 MiB available memory on the node where the printing process lives
------------------
     c_bands:  1 eigenvalues not converged
     ethr =  6.06E-08,  avg # of iterations =  6.2

     total cpu time spent up to now is    30160.4 secs

     total energy              =   -4788.06822804 Ry
     estimated scf accuracy    <       0.00009435 Ry

     total magnetization       =    -0.00 Bohr mag/cell
     absolute magnetization    =     0.00 Bohr mag/cell

     iteration # 15     ecut=    60.00 Ry     beta= 0.70
     Davidson diagonalization with overlap

---- Real-time Memory Report at c_bands before calling an iterative solver
          1884 MiB given to the printing process from OS
             0 MiB allocation reported by mallinfo(arena+hblkhd)
          3586 MiB available memory on the node where the printing process lives
------------------
     ethr =  1.87E-08,  avg # of iterations =  5.8

     total cpu time spent up to now is    32772.6 secs

     total energy              =   -4788.06828181 Ry
     estimated scf accuracy    <       0.00001619 Ry

     total magnetization       =     0.00 Bohr mag/cell
     absolute magnetization    =     0.00 Bohr mag/cell

     iteration # 16     ecut=    60.00 Ry     beta= 0.70
     Davidson diagonalization with overlap

---- Real-time Memory Report at c_bands before calling an iterative solver
          1884 MiB given to the printing process from OS
             0 MiB allocation reported by mallinfo(arena+hblkhd)
          3381 MiB available memory on the node where the printing process lives
------------------
     ethr =  3.21E-09,  avg # of iterations =  7.0

     total cpu time spent up to now is    35132.3 secs

     total energy              =   -4788.06828904 Ry
     estimated scf accuracy    <       0.00000187 Ry

     total magnetization       =    -0.00 Bohr mag/cell
     absolute magnetization    =     0.00 Bohr mag/cell

     iteration # 17     ecut=    60.00 Ry     beta= 0.70
     Davidson diagonalization with overlap

---- Real-time Memory Report at c_bands before calling an iterative solver
          1884 MiB given to the printing process from OS
             0 MiB allocation reported by mallinfo(arena+hblkhd)
          3640 MiB available memory on the node where the printing process lives
------------------
     ethr =  3.70E-10,  avg # of iterations =  9.2

     Magnetic moment per site  (integrated on atomic sphere of radius R)
     atom   1 (R=0.106)  charge=  7.4944  magn=  0.0000
     atom   2 (R=0.106)  charge=  7.4927  magn= -0.0000
     atom   3 (R=0.106)  charge=  7.4940  magn=  0.0000
     atom   4 (R=0.106)  charge=  7.4940  magn=  0.0000
     atom   5 (R=0.077)  charge=  8.0842  magn=  0.0000
     atom   6 (R=0.077)  charge=  8.0777  magn=  0.0000
     atom   7 (R=0.077)  charge=  8.0794  magn=  0.0000
     atom   8 (R=0.077)  charge=  8.0794  magn=  0.0000
     atom   9 (R=0.077)  charge=  8.0819  magn=  0.0000
     atom  10 (R=0.077)  charge=  8.0819  magn=  0.0000
     atom  11 (R=0.077)  charge=  8.0840  magn=  0.0000
     atom  12 (R=0.077)  charge=  8.0840  magn=  0.0000
     atom  13 (R=0.077)  charge=  8.0830  magn= -0.0000
     atom  14 (R=0.077)  charge=  8.0825  magn=  0.0000
     atom  15 (R=0.062)  charge=  0.5143  magn=  0.0000
     atom  16 (R=0.062)  charge=  0.5137  magn=  0.0000
     atom  17 (R=0.062)  charge=  0.5137  magn=  0.0000
     atom  18 (R=0.062)  charge=  0.5143  magn=  0.0000
     atom  19 (R=0.062)  charge=  0.5062  magn=  0.0000
     atom  20 (R=0.062)  charge=  0.5115  magn=  0.0000
     atom  21 (R=0.062)  charge=  0.5115  magn=  0.0000
     atom  22 (R=0.062)  charge=  0.5062  magn=  0.0000
     atom  23 (R=0.062)  charge=  0.5064  magn=  0.0000
     atom  24 (R=0.062)  charge=  0.5073  magn=  0.0000
     atom  25 (R=0.062)  charge=  0.5073  magn=  0.0000
     atom  26 (R=0.062)  charge=  0.5064  magn=  0.0000
     atom  27 (R=0.067)  charge=  0.3378  magn=  0.0000
     atom  28 (R=0.067)  charge=  0.3403  magn= -0.0000
     atom  29 (R=0.067)  charge=  0.3403  magn= -0.0000
     atom  30 (R=0.067)  charge=  0.3378  magn=  0.0000
     atom  31 (R=0.037)  charge=  1.9360  magn= -0.0000
     atom  32 (R=0.037)  charge=  1.9384  magn= -0.0000
     atom  33 (R=0.037)  charge=  1.9384  magn= -0.0000
     atom  34 (R=0.037)  charge=  1.9360  magn= -0.0000
     atom  35 (R=0.037)  charge=  1.9405  magn= -0.0000
     atom  36 (R=0.037)  charge=  1.9404  magn=  0.0000
     atom  37 (R=0.037)  charge=  1.9404  magn=  0.0000
     atom  38 (R=0.037)  charge=  1.9405  magn= -0.0000
     atom  39 (R=0.037)  charge=  1.9361  magn= -0.0000
     atom  40 (R=0.037)  charge=  1.9393  magn= -0.0000
     atom  41 (R=0.037)  charge=  1.9393  magn= -0.0000
     atom  42 (R=0.037)  charge=  1.9361  magn= -0.0000
     atom  43 (R=0.037)  charge=  1.9328  magn= -0.0000
     atom  44 (R=0.037)  charge=  1.9315  magn=  0.0000
     atom  45 (R=0.037)  charge=  1.9315  magn=  0.0000
     atom  46 (R=0.037)  charge=  1.9328  magn= -0.0000
     atom  47 (R=0.037)  charge=  1.9422  magn= -0.0000
     atom  48 (R=0.037)  charge=  1.9461  magn=  0.0000
     atom  49 (R=0.037)  charge=  1.9461  magn=  0.0000
     atom  50 (R=0.037)  charge=  1.9422  magn= -0.0000
     atom  51 (R=0.037)  charge=  1.9517  magn= -0.0000
     atom  52 (R=0.037)  charge=  1.9475  magn= -0.0000
     atom  53 (R=0.037)  charge=  1.9475  magn= -0.0000
     atom  54 (R=0.037)  charge=  1.9517  magn= -0.0000
     atom  55 (R=0.037)  charge=  1.9483  magn= -0.0000
     atom  56 (R=0.037)  charge=  1.9437  magn= -0.0000
     atom  57 (R=0.037)  charge=  1.9437  magn= -0.0000
     atom  58 (R=0.037)  charge=  1.9483  magn= -0.0000
     atom  59 (R=0.037)  charge=  1.9461  magn= -0.0000
     atom  60 (R=0.037)  charge=  1.9460  magn= -0.0000
     atom  61 (R=0.037)  charge=  1.9460  magn= -0.0000
     atom  62 (R=0.037)  charge=  1.9461  magn= -0.0000
     atom  63 (R=0.037)  charge=  1.9391  magn=  0.0000
     atom  64 (R=0.037)  charge=  1.9418  magn= -0.0000
     atom  65 (R=0.037)  charge=  1.9418  magn= -0.0000
     atom  66 (R=0.037)  charge=  1.9391  magn=  0.0000
     atom  67 (R=0.037)  charge=  1.9371  magn= -0.0000
     atom  68 (R=0.037)  charge=  1.9417  magn=  0.0000
     atom  69 (R=0.037)  charge=  1.9417  magn=  0.0000
     atom  70 (R=0.037)  charge=  1.9371  magn= -0.0000
     atom  71 (R=0.037)  charge=  1.9393  magn= -0.0000
     atom  72 (R=0.037)  charge=  1.9396  magn= -0.0000
     atom  73 (R=0.037)  charge=  1.9396  magn= -0.0000
     atom  74 (R=0.037)  charge=  1.9393  magn= -0.0000
     atom  75 (R=0.037)  charge=  1.9408  magn= -0.0000
     atom  76 (R=0.037)  charge=  1.9326  magn= -0.0000
     atom  77 (R=0.037)  charge=  1.9326  magn= -0.0000
     atom  78 (R=0.037)  charge=  1.9408  magn= -0.0000
     atom  79 (R=0.037)  charge=  0.3956  magn=  0.0000
     atom  80 (R=0.037)  charge=  0.3998  magn=  0.0000
     atom  81 (R=0.037)  charge=  0.3998  magn=  0.0000
     atom  82 (R=0.037)  charge=  0.3956  magn=  0.0000
     atom  83 (R=0.037)  charge=  0.3985  magn=  0.0000
     atom  84 (R=0.037)  charge=  0.3967  magn= -0.0000
     atom  85 (R=0.037)  charge=  0.3967  magn= -0.0000
     atom  86 (R=0.037)  charge=  0.3985  magn=  0.0000
     atom  87 (R=0.074)  charge=  8.3744  magn=  0.0001

     total cpu time spent up to now is    38339.9 secs

     End of self-consistent calculation

 ------ SPIN UP ------------


          k = 0.0000 0.0000 0.0000 ( 52949 PWs)   bands (ev):

   -68.0471 -67.9621 -67.9620 -67.9176 -67.9059 -67.6531 -67.6531 -67.6486
   -67.6485 -67.5630 -52.5399 -34.8091 -34.7986 -34.7889 -34.7314 -34.7309
   -34.7151 -34.7145 -34.6959 -34.6933 -34.6815 -34.6681 -34.6666 -34.6630
   -34.6609 -34.6390 -34.4328 -34.4322 -34.4246 -34.4242 -34.4158 -34.4157
   -34.4065 -34.4064 -34.3818 -34.3817 -34.3510 -34.3506 -34.3322 -34.3242
   -34.2842 -28.8340 -28.8011 -28.7838 -23.5355 -23.4886 -23.4169 -23.4163
   -15.3154 -15.2695 -14.9803 -14.9447 -14.6810 -14.6479 -14.5264 -14.4794
   -14.2538 -14.1911 -14.1834 -13.9349 -13.8494 -13.8298 -13.7607 -13.7350
   -13.5770 -13.4619 -13.4596 -13.3690 -13.3556 -13.3026 -13.3012 -13.2778
   -13.2232 -13.1784 -13.0770 -13.0450 -13.0439 -12.9765 -12.9741 -12.9281
   -12.9026 -12.8415 -12.7267 -12.7261 -12.6935 -12.6910 -12.6470 -12.6204
   -12.5756 -12.5393 -12.5099 -12.3608 -12.0768 -12.0637 -11.4528 -11.4366
    -7.1057  -7.0475  -7.0111  -6.9940  -6.9558  -6.9543  -6.9373  -6.9358
    -6.9147  -6.9123  -6.9007  -6.8985  -4.5720  -4.5299  -3.6962  -3.6448
    -3.0663  -2.9988  -2.8313  -2.7577  -2.3950  -2.1069  -2.0158  -1.8779
    -1.6213  -1.5736  -1.5561  -1.5529  -1.3336  -1.2978  -1.2636  -1.1270
    -1.0736  -1.0688  -1.0416  -0.9791  -0.9189  -0.7443  -0.6604  -0.6047
    -0.5945  -0.4738  -0.4482  -0.3242  -0.3019  -0.2851  -0.2040  -0.1203
    -0.0438  -0.0067   0.0614   0.0872   0.0919   0.1477   0.1894   0.2926
     0.3264   0.3336   0.4233   0.4673   0.5059   0.5740   0.6044   0.6470
     0.6501   0.7910   0.8189   0.8667   0.8786   0.9500   1.0678   1.0710
     1.1709   1.1868   1.2172   1.2574   1.2859   1.3172   1.3414   1.4137
     1.4140   1.4659   1.5119   1.5908   1.6643   1.7256   1.7884   1.7998
     1.8534   1.9292   1.9443   1.9709   1.9962   2.0641   2.1014   2.1270
     2.1527   2.1847   2.1861   2.2292   2.2534   2.2822   2.3382   2.3980
     2.4231   2.4286   2.4320   2.5110   2.5527   2.5730   2.6167   2.6196
     2.6228   2.6872   2.7146   2.7530   2.7858   2.8133   2.8425   2.8432
     2.8575   2.8863   2.9313   2.9375   2.9526   2.9747   2.9921   3.0149
     3.0450   3.0676   3.1200   3.1359   3.1695   3.2313   3.2447   3.2908
     3.2911   3.2992   3.3400   3.3482   3.3910   3.4043   3.4075   3.4624
     3.5435   3.5789   3.6281   3.6664   3.6905   3.8277   3.8852   3.9674
     4.1025   4.1940   4.4201   4.4220   7.2329   7.3486   7.3585   8.7296
     9.3425   9.7888  10.1905  10.5712  10.8764  10.9212  11.1177  11.1866
    11.4493  11.5470  11.6178  11.7600  11.7715  12.0633  12.0840  12.0954
    12.1511  12.2136  12.4126  12.5385  12.6429  12.6982  12.7035  12.7119
    12.7712  12.8311  12.9069  12.9491  13.0224  13.0651  13.1383  13.1890
    13.2253  13.2530  13.3345  13.3584  13.4408  13.4572  13.5144  13.5346
    13.6006  13.6107  13.6571  13.7335  13.7430  13.7860

     occupation numbers 
     1.0000   1.0000   1.0000   1.0000   1.0000   1.0000   1.0000   1.0000
     1.0000   1.0000   1.0000   1.0000   1.0000   1.0000   1.0000   1.0000
     1.0000   1.0000   1.0000   1.0000   1.0000   1.0000   1.0000   1.0000
     1.0000   1.0000   1.0000   1.0000   1.0000   1.0000   1.0000   1.0000
     1.0000   1.0000   1.0000   1.0000   1.0000   1.0000   1.0000   1.0000
     1.0000   1.0000   1.0000   1.0000   1.0000   1.0000   1.0000   1.0000
     1.0000   1.0000   1.0000   1.0000   1.0000   1.0000   1.0000   1.0000
     1.0000   1.0000   1.0000   1.0000   1.0000   1.0000   1.0000   1.0000
     1.0000   1.0000   1.0000   1.0000   1.0000   1.0000   1.0000   1.0000
     1.0000   1.0000   1.0000   1.0000   1.0000   1.0000   1.0000   1.0000
     1.0000   1.0000   1.0000   1.0000   1.0000   1.0000   1.0000   1.0000
     1.0000   1.0000   1.0000   1.0000   1.0000   1.0000   1.0000   1.0000
     1.0000   1.0000   1.0000   1.0000   1.0000   1.0000   1.0000   1.0000
     1.0000   1.0000   1.0000   1.0000   1.0000   1.0000   1.0000   1.0000
     1.0000   1.0000   1.0000   1.0000   1.0000   1.0000   1.0000   1.0000
     1.0000   1.0000   1.0000   1.0000   1.0000   1.0000   1.0000   1.0000
     1.0000   1.0000   1.0000   1.0000   1.0000   1.0000   1.0000   1.0000
     1.0000   1.0000   1.0000   1.0000   1.0000   1.0000   1.0000   1.0000
     1.0000   1.0000   1.0000   1.0000   1.0000   1.0000   1.0000   1.0000
     1.0000   1.0000   1.0000   1.0000   1.0000   1.0000   1.0000   1.0000
     1.0000   1.0000   1.0000   1.0000   1.0000   1.0000   1.0000   1.0000
     1.0000   1.0000   1.0000   1.0000   1.0000   1.0000   1.0000   1.0000
     1.0000   1.0000   1.0000   1.0000   1.0000   1.0000   1.0000   1.0000
     1.0000   1.0000   1.0000   1.0000   1.0000   1.0000   1.0000   1.0000
     1.0000   1.0000   1.0000   1.0000   1.0000   1.0000   1.0000   1.0000
     1.0000   1.0000   1.0000   1.0000   1.0000   1.0000   1.0000   1.0000
     1.0000   1.0000   1.0000   1.0000   1.0000   1.0000   1.0000   1.0000
     1.0000   1.0000   1.0000   1.0000   1.0000   1.0000   1.0000   1.0000
     1.0000   1.0000   1.0000   1.0000   1.0000   1.0000   1.0000   1.0000
     1.0000   1.0000   1.0000   1.0000   1.0000   1.0000   1.0000   1.0000
     1.0000   1.0000   1.0000   1.0000   1.0000   1.0000   1.0000   1.0000
     1.0000   1.0000   1.0000   1.0000   0.0000   0.0000   0.0000   0.0000
     0.0000   0.0000   0.0000   0.0000   0.0000   0.0000   0.0000   0.0000
     0.0000   0.0000   0.0000   0.0000   0.0000   0.0000   0.0000   0.0000
     0.0000   0.0000   0.0000   0.0000   0.0000   0.0000   0.0000   0.0000
     0.0000   0.0000   0.0000   0.0000   0.0000   0.0000   0.0000   0.0000
     0.0000   0.0000   0.0000   0.0000   0.0000   0.0000   0.0000   0.0000
     0.0000   0.0000   0.0000   0.0000   0.0000   0.0000

          k = 0.0000 0.0000 0.3483 ( 52964 PWs)   bands (ev):

   -68.0471 -67.9621 -67.9620 -67.9176 -67.9059 -67.6531 -67.6531 -67.6486
   -67.6485 -67.5630 -52.5399 -34.8091 -34.7986 -34.7889 -34.7314 -34.7309
   -34.7151 -34.7145 -34.6959 -34.6933 -34.6815 -34.6681 -34.6666 -34.6630
   -34.6608 -34.6390 -34.4328 -34.4322 -34.4246 -34.4242 -34.4158 -34.4157
   -34.4065 -34.4064 -34.3818 -34.3817 -34.3510 -34.3506 -34.3322 -34.3242
   -34.2842 -28.8340 -28.8011 -28.7838 -23.5355 -23.4886 -23.4169 -23.4163
   -15.3046 -15.2809 -14.9729 -14.9527 -14.6744 -14.6545 -14.5150 -14.4914
   -14.2486 -14.2030 -14.1760 -13.9356 -13.8498 -13.8295 -13.7564 -13.7414
   -13.5735 -13.4691 -13.4549 -13.3631 -13.3497 -13.3197 -13.3032 -13.2700
   -13.2155 -13.1872 -13.0763 -13.0371 -13.0347 -12.9857 -12.9803 -12.9297
   -12.8992 -12.8323 -12.7364 -12.7303 -12.7008 -12.6729 -12.6449 -12.6221
   -12.5762 -12.5420 -12.5152 -12.3596 -12.0768 -12.0637 -11.4532 -11.4366
    -7.1057  -7.0476  -7.0111  -6.9940  -6.9558  -6.9543  -6.9373  -6.9358
    -6.9147  -6.9123  -6.9006  -6.8985  -4.5725  -4.5297  -3.6842  -3.6569
    -3.0506  -3.0165  -2.8144  -2.7768  -2.3872  -2.0923  -2.0324  -1.8525
    -1.6107  -1.5827  -1.5732  -1.5391  -1.3414  -1.2951  -1.2648  -1.1149
    -1.0866  -1.0572  -1.0269  -0.9556  -0.9328  -0.7192  -0.6855  -0.6131
    -0.5863  -0.5220  -0.4278  -0.3658  -0.3261  -0.2898  -0.2704  -0.0996
    -0.0628  -0.0143   0.0460   0.0801   0.0991   0.1148   0.1947   0.2991
     0.3352   0.3523   0.4128   0.4798   0.5185   0.5721   0.6211   0.6420
     0.6889   0.7835   0.8262   0.8910   0.9412   0.9497   1.0505   1.0869
     1.1535   1.1850   1.2055   1.2601   1.2718   1.3252   1.3599   1.3829
     1.4791   1.5088   1.5591   1.6532   1.6759   1.7412   1.7778   1.7993
     1.8564   1.9018   1.9281   1.9664   1.9913   2.0418   2.0787   2.1140
     2.1434   2.1578   2.1881   2.2293   2.2318   2.2612   2.3301   2.3879
     2.4099   2.4341   2.4766   2.5085   2.5367   2.5434   2.6069   2.6249
     2.6426   2.7066   2.7372   2.7409   2.7717   2.7827   2.8158   2.8456
     2.8519   2.8662   2.8950   2.9449   2.9600   2.9812   3.0124   3.0437
     3.0605   3.0824   3.1298   3.1661   3.1879   3.2094   3.2272   3.2407
     3.2812   3.3132   3.3376   3.3476   3.3532   3.3899   3.4242   3.4454
     3.5414   3.5922   3.6440   3.6782   3.7029   3.8228   3.8895   3.9697
     4.1023   4.1943   4.4163   4.4238   7.2359   7.3484   7.3597   9.0271
     9.3344   9.7212   9.8328  10.5541  10.8677  10.9644  11.0966  11.2282
    11.4190  11.5058  11.6601  11.7194  11.8644  12.0016  12.1393  12.1482
    12.2532  12.2907  12.3427  12.5670  12.6110  12.6550  12.7225  12.7604
    12.8505  12.8798  12.8956  12.9142  12.9751  13.0451  13.0961  13.1241
    13.2426  13.2756  13.3129  13.3610  13.3844  13.4273  13.4721  13.5163
    13.5902  13.6271  13.6417  13.7125  13.7586  13.8206

     occupation numbers 
     1.0000   1.0000   1.0000   1.0000   1.0000   1.0000   1.0000   1.0000
     1.0000   1.0000   1.0000   1.0000   1.0000   1.0000   1.0000   1.0000
     1.0000   1.0000   1.0000   1.0000   1.0000   1.0000   1.0000   1.0000
     1.0000   1.0000   1.0000   1.0000   1.0000   1.0000   1.0000   1.0000
     1.0000   1.0000   1.0000   1.0000   1.0000   1.0000   1.0000   1.0000
     1.0000   1.0000   1.0000   1.0000   1.0000   1.0000   1.0000   1.0000
     1.0000   1.0000   1.0000   1.0000   1.0000   1.0000   1.0000   1.0000
     1.0000   1.0000   1.0000   1.0000   1.0000   1.0000   1.0000   1.0000
     1.0000   1.0000   1.0000   1.0000   1.0000   1.0000   1.0000   1.0000
     1.0000   1.0000   1.0000   1.0000   1.0000   1.0000   1.0000   1.0000
     1.0000   1.0000   1.0000   1.0000   1.0000   1.0000   1.0000   1.0000
     1.0000   1.0000   1.0000   1.0000   1.0000   1.0000   1.0000   1.0000
     1.0000   1.0000   1.0000   1.0000   1.0000   1.0000   1.0000   1.0000
     1.0000   1.0000   1.0000   1.0000   1.0000   1.0000   1.0000   1.0000
     1.0000   1.0000   1.0000   1.0000   1.0000   1.0000   1.0000   1.0000
     1.0000   1.0000   1.0000   1.0000   1.0000   1.0000   1.0000   1.0000
     1.0000   1.0000   1.0000   1.0000   1.0000   1.0000   1.0000   1.0000
     1.0000   1.0000   1.0000   1.0000   1.0000   1.0000   1.0000   1.0000
     1.0000   1.0000   1.0000   1.0000   1.0000   1.0000   1.0000   1.0000
     1.0000   1.0000   1.0000   1.0000   1.0000   1.0000   1.0000   1.0000
     1.0000   1.0000   1.0000   1.0000   1.0000   1.0000   1.0000   1.0000
     1.0000   1.0000   1.0000   1.0000   1.0000   1.0000   1.0000   1.0000
     1.0000   1.0000   1.0000   1.0000   1.0000   1.0000   1.0000   1.0000
     1.0000   1.0000   1.0000   1.0000   1.0000   1.0000   1.0000   1.0000
     1.0000   1.0000   1.0000   1.0000   1.0000   1.0000   1.0000   1.0000
     1.0000   1.0000   1.0000   1.0000   1.0000   1.0000   1.0000   1.0000
     1.0000   1.0000   1.0000   1.0000   1.0000   1.0000   1.0000   1.0000
     1.0000   1.0000   1.0000   1.0000   1.0000   1.0000   1.0000   1.0000
     1.0000   1.0000   1.0000   1.0000   1.0000   1.0000   1.0000   1.0000
     1.0000   1.0000   1.0000   1.0000   1.0000   1.0000   1.0000   1.0000
     1.0000   1.0000   1.0000   1.0000   1.0000   1.0000   1.0000   1.0000
     1.0000   1.0000   1.0000   1.0000   0.0000   0.0000   0.0000   0.0000
     0.0000   0.0000   0.0000   0.0000   0.0000   0.0000   0.0000   0.0000
     0.0000   0.0000   0.0000   0.0000   0.0000   0.0000   0.0000   0.0000
     0.0000   0.0000   0.0000   0.0000   0.0000   0.0000   0.0000   0.0000
     0.0000   0.0000   0.0000   0.0000   0.0000   0.0000   0.0000   0.0000
     0.0000   0.0000   0.0000   0.0000   0.0000   0.0000   0.0000   0.0000
     0.0000   0.0000   0.0000   0.0000   0.0000   0.0000

          k = 0.0000 0.3849 0.0000 ( 52911 PWs)   bands (ev):

   -68.0471 -67.9621 -67.9620 -67.9176 -67.9059 -67.6531 -67.6531 -67.6486
   -67.6485 -67.5630 -52.5399 -34.8091 -34.7986 -34.7889 -34.7314 -34.7309
   -34.7151 -34.7145 -34.6959 -34.6933 -34.6814 -34.6680 -34.6666 -34.6629
   -34.6608 -34.6390 -34.4327 -34.4322 -34.4245 -34.4241 -34.4158 -34.4157
   -34.4065 -34.4065 -34.3818 -34.3817 -34.3510 -34.3507 -34.3322 -34.3242
   -34.2842 -28.8340 -28.8011 -28.7838 -23.5355 -23.4886 -23.4169 -23.4163
   -15.3063 -15.2622 -14.9780 -14.9435 -14.6812 -14.6524 -14.5803 -14.5144
   -14.2578 -14.1912 -14.1494 -13.9259 -13.8495 -13.8301 -13.7012 -13.6633
   -13.5746 -13.4464 -13.4426 -13.3890 -13.3515 -13.3245 -13.3215 -13.2774
   -13.2561 -13.2414 -13.0726 -13.0475 -13.0322 -12.9862 -12.9679 -12.9372
   -12.9044 -12.8437 -12.7270 -12.7204 -12.6917 -12.6894 -12.6499 -12.6126
   -12.5704 -12.5324 -12.5113 -12.3617 -12.0758 -12.0647 -11.4523 -11.4361
    -7.1062  -7.0476  -7.0104  -6.9939  -6.9557  -6.9539  -6.9372  -6.9362
    -6.9149  -6.9128  -6.9011  -6.8984  -4.5216  -4.4784  -3.7090  -3.6573
    -3.0907  -3.0388  -2.9742  -2.9139  -2.3795  -2.0611  -1.9816  -1.8544
    -1.6286  -1.5774  -1.4409  -1.4155  -1.3139  -1.2766  -1.2419  -1.1357
    -1.1205  -1.0184  -1.0139  -0.9342  -0.9240  -0.7415  -0.6733  -0.6164
    -0.5823  -0.4794  -0.4493  -0.3335  -0.2913  -0.2455  -0.2246  -0.1616
    -0.0858  -0.0225  -0.0208   0.0459   0.1069   0.1701   0.2001   0.2433
     0.2935   0.3178   0.4066   0.4246   0.5362   0.5558   0.5678   0.6675
     0.6762   0.7098   0.7951   0.9513   0.9587   1.0381   1.0488   1.0597
     1.1240   1.1799   1.2220   1.2852   1.2909   1.3479   1.3585   1.4183
     1.4341   1.5070   1.5200   1.6401   1.6799   1.7578   1.7663   1.8200
     1.8464   1.8613   1.9571   1.9661   1.9986   2.0172   2.0692   2.0945
     2.1217   2.1533   2.1746   2.1811   2.2424   2.3212   2.3446   2.3680
     2.4098   2.4472   2.4571   2.5499   2.5754   2.5898   2.6018   2.6091
     2.6413   2.6655   2.6935   2.7524   2.7981   2.8191   2.8544   2.8657
     2.9035   2.9260   2.9515   2.9660   2.9952   3.0071   3.0467   3.0615
     3.0786   3.0916   3.1268   3.1347   3.1691   3.1881   3.2022   3.2290
     3.2861   3.3015   3.3153   3.3461   3.3559   3.4049   3.4407   3.4720
     3.5281   3.5661   3.6042   3.6696   3.7046   3.7808   3.8466   3.8758
     4.0705   4.0905   4.4222   4.4235   7.2323   7.3467   7.3602   9.1160
     9.3115   9.8141  10.0723  10.4179  10.6654  10.9423  11.1474  11.3062
    11.3101  11.4339  11.6099  11.7087  11.8973  11.9851  12.0650  12.1991
    12.2156  12.2753  12.3522  12.4368  12.5924  12.7311  12.7380  12.7792
    12.7891  12.8852  12.9380  12.9481  13.0143  13.0716  13.1138  13.1407
    13.1810  13.2671  13.2875  13.3147  13.3526  13.4147  13.4354  13.5423
    13.6510  13.6966  13.7860  13.8354  13.8446  13.8978

     occupation numbers 
     1.0000   1.0000   1.0000   1.0000   1.0000   1.0000   1.0000   1.0000
     1.0000   1.0000   1.0000   1.0000   1.0000   1.0000   1.0000   1.0000
     1.0000   1.0000   1.0000   1.0000   1.0000   1.0000   1.0000   1.0000
     1.0000   1.0000   1.0000   1.0000   1.0000   1.0000   1.0000   1.0000
     1.0000   1.0000   1.0000   1.0000   1.0000   1.0000   1.0000   1.0000
     1.0000   1.0000   1.0000   1.0000   1.0000   1.0000   1.0000   1.0000
     1.0000   1.0000   1.0000   1.0000   1.0000   1.0000   1.0000   1.0000
     1.0000   1.0000   1.0000   1.0000   1.0000   1.0000   1.0000   1.0000
     1.0000   1.0000   1.0000   1.0000   1.0000   1.0000   1.0000   1.0000
     1.0000   1.0000   1.0000   1.0000   1.0000   1.0000   1.0000   1.0000
     1.0000   1.0000   1.0000   1.0000   1.0000   1.0000   1.0000   1.0000
     1.0000   1.0000   1.0000   1.0000   1.0000   1.0000   1.0000   1.0000
     1.0000   1.0000   1.0000   1.0000   1.0000   1.0000   1.0000   1.0000
     1.0000   1.0000   1.0000   1.0000   1.0000   1.0000   1.0000   1.0000
     1.0000   1.0000   1.0000   1.0000   1.0000   1.0000   1.0000   1.0000
     1.0000   1.0000   1.0000   1.0000   1.0000   1.0000   1.0000   1.0000
     1.0000   1.0000   1.0000   1.0000   1.0000   1.0000   1.0000   1.0000
     1.0000   1.0000   1.0000   1.0000   1.0000   1.0000   1.0000   1.0000
     1.0000   1.0000   1.0000   1.0000   1.0000   1.0000   1.0000   1.0000
     1.0000   1.0000   1.0000   1.0000   1.0000   1.0000   1.0000   1.0000
     1.0000   1.0000   1.0000   1.0000   1.0000   1.0000   1.0000   1.0000
     1.0000   1.0000   1.0000   1.0000   1.0000   1.0000   1.0000   1.0000
     1.0000   1.0000   1.0000   1.0000   1.0000   1.0000   1.0000   1.0000
     1.0000   1.0000   1.0000   1.0000   1.0000   1.0000   1.0000   1.0000
     1.0000   1.0000   1.0000   1.0000   1.0000   1.0000   1.0000   1.0000
     1.0000   1.0000   1.0000   1.0000   1.0000   1.0000   1.0000   1.0000
     1.0000   1.0000   1.0000   1.0000   1.0000   1.0000   1.0000   1.0000
     1.0000   1.0000   1.0000   1.0000   1.0000   1.0000   1.0000   1.0000
     1.0000   1.0000   1.0000   1.0000   1.0000   1.0000   1.0000   1.0000
     1.0000   1.0000   1.0000   1.0000   1.0000   1.0000   1.0000   1.0000
     1.0000   1.0000   1.0000   1.0000   1.0000   1.0000   1.0000   1.0000
     1.0000   1.0000   1.0000   1.0000   0.0000   0.0000   0.0000   0.0000
     0.0000   0.0000   0.0000   0.0000   0.0000   0.0000   0.0000   0.0000
     0.0000   0.0000   0.0000   0.0000   0.0000   0.0000   0.0000   0.0000
     0.0000   0.0000   0.0000   0.0000   0.0000   0.0000   0.0000   0.0000
     0.0000   0.0000   0.0000   0.0000   0.0000   0.0000   0.0000   0.0000
     0.0000   0.0000   0.0000   0.0000   0.0000   0.0000   0.0000   0.0000
     0.0000   0.0000   0.0000   0.0000   0.0000   0.0000

          k = 0.0000 0.3849 0.3483 ( 52923 PWs)   bands (ev):

   -68.0471 -67.9621 -67.9620 -67.9176 -67.9059 -67.6531 -67.6531 -67.6486
   -67.6485 -67.5630 -52.5399 -34.8091 -34.7986 -34.7889 -34.7314 -34.7309
   -34.7151 -34.7145 -34.6959 -34.6933 -34.6814 -34.6680 -34.6666 -34.6630
   -34.6608 -34.6390 -34.4327 -34.4322 -34.4245 -34.4241 -34.4158 -34.4157
   -34.4065 -34.4065 -34.3818 -34.3817 -34.3511 -34.3507 -34.3322 -34.3242
   -34.2842 -28.8340 -28.8011 -28.7838 -23.5355 -23.4886 -23.4169 -23.4163
   -15.2957 -15.2734 -14.9716 -14.9503 -14.6761 -14.6563 -14.5703 -14.5281
   -14.2494 -14.2056 -14.1412 -13.9262 -13.8500 -13.8297 -13.6929 -13.6741
   -13.5714 -13.4524 -13.4407 -13.3822 -13.3487 -13.3290 -13.3219 -13.2794
   -13.2539 -13.2435 -13.0718 -13.0369 -13.0237 -12.9969 -12.9754 -12.9372
   -12.9035 -12.8345 -12.7321 -12.7302 -12.7000 -12.6710 -12.6489 -12.6105
   -12.5717 -12.5347 -12.5169 -12.3605 -12.0759 -12.0647 -11.4527 -11.4362
    -7.1062  -7.0477  -7.0104  -6.9939  -6.9557  -6.9539  -6.9373  -6.9362
    -6.9148  -6.9128  -6.9010  -6.8984  -4.5190  -4.4812  -3.6987  -3.6680
    -3.0762  -3.0475  -2.9666  -2.9306  -2.3729  -2.0488  -1.9952  -1.8331
    -1.6185  -1.5814  -1.4343  -1.4160  -1.3259  -1.2758  -1.2417  -1.1210
    -1.1087  -1.0347  -0.9981  -0.9434  -0.9203  -0.7126  -0.7033  -0.6081
    -0.5576  -0.5233  -0.4445  -0.3849  -0.3250  -0.2971  -0.2484  -0.1376
    -0.0988  -0.0299  -0.0198   0.0301   0.1025   0.1757   0.1953   0.2351
     0.2984   0.3116   0.3975   0.4337   0.5470   0.5716   0.6148   0.6529
     0.6857   0.7248   0.8156   0.9324   0.9991   1.0285   1.0617   1.1033
     1.1432   1.1805   1.2270   1.2654   1.2916   1.3562   1.4091   1.4274
     1.4568   1.5250   1.5661   1.6098   1.7175   1.7480   1.7857   1.8041
     1.8272   1.8808   1.9231   1.9592   1.9810   2.0347   2.0545   2.0675
     2.1075   2.1231   2.1699   2.2083   2.2321   2.2792   2.3287   2.3817
     2.4139   2.4451   2.4605   2.5233   2.5421   2.5474   2.6025   2.6268
     2.6517   2.6995   2.7122   2.7489   2.7893   2.8105   2.8235   2.8687
     2.8952   2.9044   2.9378   2.9762   3.0063   3.0251   3.0343   3.0582
     3.0800   3.1309   3.1396   3.1622   3.1778   3.1873   3.1963   3.2385
     3.2463   3.2786   3.3026   3.3303   3.3551   3.4178   3.4248   3.4636
     3.5185   3.5584   3.6510   3.6784   3.7134   3.7708   3.8532   3.8806
     4.0685   4.0975   4.4193   4.4250   7.2355   7.3461   7.3616   9.2450
     9.4225   9.8388  10.0170  10.2643  10.6602  10.7433  11.0707  11.2494
    11.3695  11.4238  11.5969  11.6363  11.8524  11.9497  12.1777  12.2297
    12.2991  12.3550  12.4179  12.5623  12.6317  12.6677  12.7511  12.8049
    12.8388  12.9110  12.9543  13.0052  13.0375  13.0639  13.1432  13.1683
    13.2098  13.2679  13.2987  13.3682  13.3876  13.4462  13.4657  13.5345
    13.5800  13.6337  13.6772  13.7437  13.7819  13.8640

     occupation numbers 
     1.0000   1.0000   1.0000   1.0000   1.0000   1.0000   1.0000   1.0000
     1.0000   1.0000   1.0000   1.0000   1.0000   1.0000   1.0000   1.0000
     1.0000   1.0000   1.0000   1.0000   1.0000   1.0000   1.0000   1.0000
     1.0000   1.0000   1.0000   1.0000   1.0000   1.0000   1.0000   1.0000
     1.0000   1.0000   1.0000   1.0000   1.0000   1.0000   1.0000   1.0000
     1.0000   1.0000   1.0000   1.0000   1.0000   1.0000   1.0000   1.0000
     1.0000   1.0000   1.0000   1.0000   1.0000   1.0000   1.0000   1.0000
     1.0000   1.0000   1.0000   1.0000   1.0000   1.0000   1.0000   1.0000
     1.0000   1.0000   1.0000   1.0000   1.0000   1.0000   1.0000   1.0000
     1.0000   1.0000   1.0000   1.0000   1.0000   1.0000   1.0000   1.0000
     1.0000   1.0000   1.0000   1.0000   1.0000   1.0000   1.0000   1.0000
     1.0000   1.0000   1.0000   1.0000   1.0000   1.0000   1.0000   1.0000
     1.0000   1.0000   1.0000   1.0000   1.0000   1.0000   1.0000   1.0000
     1.0000   1.0000   1.0000   1.0000   1.0000   1.0000   1.0000   1.0000
     1.0000   1.0000   1.0000   1.0000   1.0000   1.0000   1.0000   1.0000
     1.0000   1.0000   1.0000   1.0000   1.0000   1.0000   1.0000   1.0000
     1.0000   1.0000   1.0000   1.0000   1.0000   1.0000   1.0000   1.0000
     1.0000   1.0000   1.0000   1.0000   1.0000   1.0000   1.0000   1.0000
     1.0000   1.0000   1.0000   1.0000   1.0000   1.0000   1.0000   1.0000
     1.0000   1.0000   1.0000   1.0000   1.0000   1.0000   1.0000   1.0000
     1.0000   1.0000   1.0000   1.0000   1.0000   1.0000   1.0000   1.0000
     1.0000   1.0000   1.0000   1.0000   1.0000   1.0000   1.0000   1.0000
     1.0000   1.0000   1.0000   1.0000   1.0000   1.0000   1.0000   1.0000
     1.0000   1.0000   1.0000   1.0000   1.0000   1.0000   1.0000   1.0000
     1.0000   1.0000   1.0000   1.0000   1.0000   1.0000   1.0000   1.0000
     1.0000   1.0000   1.0000   1.0000   1.0000   1.0000   1.0000   1.0000
     1.0000   1.0000   1.0000   1.0000   1.0000   1.0000   1.0000   1.0000
     1.0000   1.0000   1.0000   1.0000   1.0000   1.0000   1.0000   1.0000
     1.0000   1.0000   1.0000   1.0000   1.0000   1.0000   1.0000   1.0000
     1.0000   1.0000   1.0000   1.0000   1.0000   1.0000   1.0000   1.0000
     1.0000   1.0000   1.0000   1.0000   1.0000   1.0000   1.0000   1.0000
     1.0000   1.0000   1.0000   1.0000   0.0000   0.0000   0.0000   0.0000
     0.0000   0.0000   0.0000   0.0000   0.0000   0.0000   0.0000   0.0000
     0.0000   0.0000   0.0000   0.0000   0.0000   0.0000   0.0000   0.0000
     0.0000   0.0000   0.0000   0.0000   0.0000   0.0000   0.0000   0.0000
     0.0000   0.0000   0.0000   0.0000   0.0000   0.0000   0.0000   0.0000
     0.0000   0.0000   0.0000   0.0000   0.0000   0.0000   0.0000   0.0000
     0.0000   0.0000   0.0000   0.0000   0.0000   0.0000

          k = 0.3333 0.0000 0.0602 ( 52962 PWs)   bands (ev):

   -68.0471 -67.9621 -67.9620 -67.9176 -67.9059 -67.6531 -67.6531 -67.6486
   -67.6485 -67.5630 -52.5399 -34.8091 -34.7986 -34.7889 -34.7314 -34.7309
   -34.7153 -34.7144 -34.6959 -34.6933 -34.6814 -34.6681 -34.6666 -34.6630
   -34.6608 -34.6390 -34.4328 -34.4322 -34.4245 -34.4243 -34.4158 -34.4157
   -34.4065 -34.4064 -34.3818 -34.3817 -34.3510 -34.3506 -34.3322 -34.3242
   -34.2842 -28.8340 -28.8011 -28.7838 -23.5355 -23.4886 -23.4167 -23.4164
   -15.2600 -15.2153 -15.1097 -15.0687 -14.6059 -14.5694 -14.4886 -14.4495
   -14.2582 -14.1520 -14.1452 -13.9928 -13.9756 -13.9317 -13.6822 -13.6575
   -13.6100 -13.4979 -13.4567 -13.4003 -13.3423 -13.3121 -13.2681 -13.2613
   -13.2036 -13.1651 -13.0623 -13.0501 -13.0211 -12.9835 -12.9651 -12.9357
   -12.8930 -12.8430 -12.7683 -12.7484 -12.7122 -12.6742 -12.6377 -12.6073
   -12.5990 -12.5303 -12.4963 -12.3627 -12.0799 -12.0605 -11.4496 -11.4393
    -7.1053  -7.0477  -7.0111  -6.9936  -6.9563  -6.9543  -6.9368  -6.9359
    -6.9143  -6.9131  -6.9004  -6.8988  -4.4202  -4.3735  -4.0262  -3.9691
    -2.8835  -2.8076  -2.7467  -2.6602  -2.3888  -2.1339  -2.0220  -1.9594
    -1.7741  -1.7362  -1.5412  -1.5370  -1.3831  -1.2032  -1.1790  -1.1072
    -1.0983  -1.0642  -1.0137  -0.9770  -0.8861  -0.7923  -0.7163  -0.6148
    -0.4922  -0.4373  -0.4299  -0.3801  -0.2794  -0.2522  -0.2193  -0.1529
    -0.0720  -0.0040   0.0073   0.0387   0.0918   0.1990   0.2219   0.2637
     0.3456   0.4121   0.4202   0.4580   0.4796   0.4990   0.5740   0.6307
     0.6910   0.7762   0.8486   0.8880   0.9385   0.9802   1.0121   1.0953
     1.1431   1.1881   1.2169   1.2535   1.2816   1.3100   1.3693   1.4689
     1.5022   1.5125   1.5502   1.5908   1.6490   1.7293   1.7551   1.8159
     1.8448   1.8680   1.9489   1.9964   2.0084   2.0310   2.0667   2.1037
     2.1184   2.1677   2.1960   2.2155   2.2492   2.2948   2.3518   2.3863
     2.4472   2.4620   2.5147   2.5263   2.5507   2.5778   2.6071   2.6165
     2.6306   2.6899   2.6985   2.7385   2.7505   2.7718   2.8279   2.8491
     2.8632   2.8808   2.8974   2.9204   2.9477   2.9552   3.0213   3.0323
     3.0495   3.0968   3.1327   3.1467   3.2072   3.2167   3.2355   3.2933
     3.3062   3.3208   3.3304   3.3648   3.3737   3.3915   3.3965   3.4420
     3.5215   3.5497   3.6060   3.6424   3.7043   3.7741   3.8573   3.9771
     4.1051   4.1941   4.4163   4.4300   7.2339   7.3483   7.3594   9.0307
     9.3426   9.6444  10.0075  10.3815  10.7805  10.9359  11.1375  11.3363
    11.5311  11.6272  11.7611  11.8376  11.8765  11.9337  12.0906  12.1758
    12.2793  12.3175  12.3691  12.4405  12.5428  12.6002  12.6428  12.7460
    12.8134  12.8528  12.8966  13.0134  13.0640  13.0983  13.1245  13.1430
    13.1624  13.2003  13.2547  13.3229  13.3512  13.3783  13.4345  13.5014
    13.6019  13.6472  13.7104  13.7625  13.7769  13.8161

     occupation numbers 
     1.0000   1.0000   1.0000   1.0000   1.0000   1.0000   1.0000   1.0000
     1.0000   1.0000   1.0000   1.0000   1.0000   1.0000   1.0000   1.0000
     1.0000   1.0000   1.0000   1.0000   1.0000   1.0000   1.0000   1.0000
     1.0000   1.0000   1.0000   1.0000   1.0000   1.0000   1.0000   1.0000
     1.0000   1.0000   1.0000   1.0000   1.0000   1.0000   1.0000   1.0000
     1.0000   1.0000   1.0000   1.0000   1.0000   1.0000   1.0000   1.0000
     1.0000   1.0000   1.0000   1.0000   1.0000   1.0000   1.0000   1.0000
     1.0000   1.0000   1.0000   1.0000   1.0000   1.0000   1.0000   1.0000
     1.0000   1.0000   1.0000   1.0000   1.0000   1.0000   1.0000   1.0000
     1.0000   1.0000   1.0000   1.0000   1.0000   1.0000   1.0000   1.0000
     1.0000   1.0000   1.0000   1.0000   1.0000   1.0000   1.0000   1.0000
     1.0000   1.0000   1.0000   1.0000   1.0000   1.0000   1.0000   1.0000
     1.0000   1.0000   1.0000   1.0000   1.0000   1.0000   1.0000   1.0000
     1.0000   1.0000   1.0000   1.0000   1.0000   1.0000   1.0000   1.0000
     1.0000   1.0000   1.0000   1.0000   1.0000   1.0000   1.0000   1.0000
     1.0000   1.0000   1.0000   1.0000   1.0000   1.0000   1.0000   1.0000
     1.0000   1.0000   1.0000   1.0000   1.0000   1.0000   1.0000   1.0000
     1.0000   1.0000   1.0000   1.0000   1.0000   1.0000   1.0000   1.0000
     1.0000   1.0000   1.0000   1.0000   1.0000   1.0000   1.0000   1.0000
[...]
     atom    7 type  5   force =    -0.00000977   -0.00001278   -0.00000221
     atom    8 type  5   force =     0.00000977   -0.00001278    0.00000221
     atom    9 type  5   force =    -0.00000836    0.00000272    0.00000247
     atom   10 type  5   force =     0.00000836    0.00000272   -0.00000247
     atom   11 type  5   force =    -0.00001760    0.00000927   -0.00000109
     atom   12 type  5   force =     0.00001760    0.00000927    0.00000109
     atom   13 type  5   force =    -0.00000000    0.00000324   -0.00000000
     atom   14 type  5   force =    -0.00000000    0.00000271    0.00000000
     atom   15 type  7   force =    -0.00000165    0.00000332    0.00000890
     atom   16 type  7   force =     0.00000192    0.00000123   -0.00000186
     atom   17 type  7   force =    -0.00000192    0.00000123    0.00000186
     atom   18 type  7   force =     0.00000165    0.00000332   -0.00000890
     atom   19 type  7   force =    -0.00000103    0.00000081   -0.00000104
     atom   20 type  7   force =     0.00000144   -0.00000173   -0.00000358
     atom   21 type  7   force =    -0.00000144   -0.00000173    0.00000358
     atom   22 type  7   force =     0.00000103    0.00000081    0.00000104
     atom   23 type  7   force =    -0.00000247   -0.00000280    0.00000006
     atom   24 type  7   force =     0.00000232   -0.00000153    0.00000296
     atom   25 type  7   force =    -0.00000232   -0.00000153   -0.00000296
     atom   26 type  7   force =     0.00000247   -0.00000280   -0.00000006
     atom   27 type  1   force =    -0.00000143   -0.00000011   -0.00000404
     atom   28 type  1   force =     0.00000104    0.00000063   -0.00000338
     atom   29 type  1   force =    -0.00000104    0.00000063    0.00000338
     atom   30 type  1   force =     0.00000143   -0.00000011    0.00000404
     atom   31 type  6   force =    -0.00000549    0.00000240    0.00002581
     atom   32 type  6   force =     0.00000438   -0.00000097   -0.00000132
     atom   33 type  6   force =    -0.00000438   -0.00000097    0.00000132
     atom   34 type  6   force =     0.00000549    0.00000240   -0.00002581
     atom   35 type  6   force =    -0.00000405    0.00000150    0.00000726
     atom   36 type  6   force =     0.00000383    0.00000001    0.00000236
     atom   37 type  6   force =    -0.00000383    0.00000001   -0.00000236
     atom   38 type  6   force =     0.00000405    0.00000150   -0.00000726
     atom   39 type  6   force =    -0.00000562   -0.00000247   -0.00000522
     atom   40 type  6   force =     0.00000680   -0.00000087   -0.00000183
     atom   41 type  6   force =    -0.00000680   -0.00000087    0.00000183
     atom   42 type  6   force =     0.00000562   -0.00000247    0.00000522
     atom   43 type  6   force =    -0.00000632   -0.00000254   -0.00001626
     atom   44 type  6   force =     0.00000812    0.00000086   -0.00001064
     atom   45 type  6   force =    -0.00000812    0.00000086    0.00001064
     atom   46 type  6   force =     0.00000632   -0.00000254    0.00001626
     atom   47 type  6   force =     0.00000792    0.00000428   -0.00000389
     atom   48 type  6   force =    -0.00000282   -0.00000523    0.00000014
     atom   49 type  6   force =     0.00000282   -0.00000523   -0.00000014
     atom   50 type  6   force =    -0.00000792    0.00000428    0.00000389
     atom   51 type  6   force =    -0.00000410   -0.00001382    0.00000607
     atom   52 type  6   force =     0.00000549   -0.00000005    0.00000560
     atom   53 type  6   force =    -0.00000549   -0.00000005   -0.00000560
     atom   54 type  6   force =     0.00000410   -0.00001382   -0.00000607
     atom   55 type  6   force =    -0.00000340    0.00000045   -0.00000937
     atom   56 type  6   force =     0.00000554   -0.00000541   -0.00000759
     atom   57 type  6   force =    -0.00000554   -0.00000541    0.00000759
     atom   58 type  6   force =     0.00000340    0.00000045    0.00000937
     atom   59 type  6   force =    -0.00000216   -0.00000062    0.00000502
     atom   60 type  6   force =     0.00000159    0.00000030    0.00001103
     atom   61 type  6   force =    -0.00000159    0.00000030   -0.00001103
     atom   62 type  6   force =     0.00000216   -0.00000062   -0.00000502
     atom   63 type  6   force =    -0.00000355    0.00000597    0.00000112
     atom   64 type  6   force =     0.00000305    0.00000564    0.00000151
     atom   65 type  6   force =    -0.00000305    0.00000564   -0.00000151
     atom   66 type  6   force =     0.00000355    0.00000597   -0.00000112
     atom   67 type  6   force =     0.00000511    0.00000776    0.00000147
     atom   68 type  6   force =    -0.00000342   -0.00000154    0.00000304
     atom   69 type  6   force =     0.00000342   -0.00000154   -0.00000304
     atom   70 type  6   force =    -0.00000511    0.00000776   -0.00000147
     atom   71 type  6   force =    -0.00000267   -0.00000192    0.00001213
     atom   72 type  6   force =     0.00000251   -0.00000092    0.00000261
     atom   73 type  6   force =    -0.00000251   -0.00000092   -0.00000261
     atom   74 type  6   force =     0.00000267   -0.00000192   -0.00001213
     atom   75 type  6   force =    -0.00000429    0.00000101    0.00000479
     atom   76 type  6   force =     0.00000438    0.00000338    0.00000431
     atom   77 type  6   force =    -0.00000438    0.00000338   -0.00000431
     atom   78 type  6   force =     0.00000429    0.00000101   -0.00000479
     atom   79 type  3   force =    -0.00000033    0.00000022    0.00000358
     atom   80 type  3   force =     0.00000022   -0.00000009   -0.00000070
     atom   81 type  3   force =    -0.00000022   -0.00000009    0.00000070
     atom   82 type  3   force =     0.00000033    0.00000022   -0.00000358
     atom   83 type  3   force =    -0.00000036    0.00000021   -0.00000074
     atom   84 type  3   force =    -0.00000027    0.00000091    0.00000087
     atom   85 type  3   force =     0.00000027    0.00000091   -0.00000087
     atom   86 type  3   force =     0.00000036    0.00000021    0.00000074
     atom   87 type  2   force =    -0.00000000   -0.00001702   -0.00000000

     DFT-D3 dispersion contribution to forces:
     atom    1 type  4   force =     0.00000001    0.00046728   -0.00000001
     atom    2 type  4   force =     0.00000001    0.00122733   -0.00000001
     atom    3 type  4   force =     0.00027668   -0.00046378   -0.00018556
     atom    4 type  4   force =    -0.00027669   -0.00046378    0.00018555
     atom    5 type  5   force =    -0.00000000    0.00048372   -0.00000001
     atom    6 type  5   force =    -0.00000000   -0.00120482   -0.00000001
     atom    7 type  5   force =     0.00050275   -0.00017945    0.00002671
     atom    8 type  5   force =    -0.00050275   -0.00017945   -0.00002671
     atom    9 type  5   force =    -0.00079595    0.00168939   -0.00007088
     atom   10 type  5   force =     0.00079594    0.00168939    0.00007088
     atom   11 type  5   force =    -0.00037869   -0.00116951    0.00029798
     atom   12 type  5   force =     0.00037869   -0.00116952   -0.00029798
     atom   13 type  5   force =    -0.00000000    0.00078769    0.00000000
     atom   14 type  5   force =    -0.00000000    0.00023881    0.00000000
     atom   15 type  7   force =    -0.00025184   -0.00046340    0.00067989
     atom   16 type  7   force =     0.00008299    0.00001696   -0.00034919
     atom   17 type  7   force =    -0.00008299    0.00001696    0.00034919
     atom   18 type  7   force =     0.00025185   -0.00046340   -0.00067989
     atom   19 type  7   force =     0.00010908    0.00000697    0.00026487
     atom   20 type  7   force =     0.00023989    0.00045639   -0.00075526
     atom   21 type  7   force =    -0.00023989    0.00045639    0.00075527
     atom   22 type  7   force =    -0.00010908    0.00000697   -0.00026486
     atom   23 type  7   force =     0.00002724   -0.00006853   -0.00030165
     atom   24 type  7   force =    -0.00018524   -0.00013334   -0.00043979
     atom   25 type  7   force =     0.00018524   -0.00013334    0.00043979
     atom   26 type  7   force =    -0.00002724   -0.00006853    0.00030165
     atom   27 type  1   force =     0.00014608    0.00029961   -0.00076864
     atom   28 type  1   force =     0.00004924    0.00000439   -0.00065756
     atom   29 type  1   force =    -0.00004925    0.00000439    0.00065756
     atom   30 type  1   force =    -0.00014608    0.00029961    0.00076864
     atom   31 type  6   force =     0.00011478   -0.00026771    0.00060227
     atom   32 type  6   force =    -0.00008676    0.00009667    0.00044443
     atom   33 type  6   force =     0.00008676    0.00009667   -0.00044442
     atom   34 type  6   force =    -0.00011476   -0.00026772   -0.00060227
     atom   35 type  6   force =     0.00012906   -0.00005149   -0.00038834
     atom   36 type  6   force =    -0.00004506    0.00004879   -0.00063998
     atom   37 type  6   force =     0.00004506    0.00004877    0.00063998
     atom   38 type  6   force =    -0.00012907   -0.00005149    0.00038834
     atom   39 type  6   force =     0.00005269   -0.00011159    0.00040475
     atom   40 type  6   force =    -0.00002627   -0.00013483    0.00037384
     atom   41 type  6   force =     0.00002627   -0.00013483   -0.00037387
     atom   42 type  6   force =    -0.00005269   -0.00011159   -0.00040479
     atom   43 type  6   force =     0.00021049    0.00000531    0.00019959
     atom   44 type  6   force =    -0.00014234    0.00005916    0.00012951
     atom   45 type  6   force =     0.00014232    0.00005916   -0.00012952
     atom   46 type  6   force =    -0.00021050    0.00000531   -0.00019959
     atom   47 type  6   force =    -0.00019529    0.00108672    0.00031972
     atom   48 type  6   force =    -0.00005839    0.00087599    0.00034001
     atom   49 type  6   force =     0.00005839    0.00087599   -0.00034001
     atom   50 type  6   force =     0.00019529    0.00108671   -0.00031972
     atom   51 type  6   force =     0.00095893    0.00006973    0.00033870
     atom   52 type  6   force =     0.00041370    0.00008490    0.00026451
     atom   53 type  6   force =    -0.00041370    0.00008490   -0.00026451
     atom   54 type  6   force =    -0.00095894    0.00006973   -0.00033871
     atom   55 type  6   force =     0.00048311   -0.00079990   -0.00014612
     atom   56 type  6   force =     0.00017758   -0.00030029   -0.00004967
     atom   57 type  6   force =    -0.00017757   -0.00030030    0.00004967
     atom   58 type  6   force =    -0.00048310   -0.00079991    0.00014613
     atom   59 type  6   force =    -0.00024756    0.00036088   -0.00014628
     atom   60 type  6   force =    -0.00018880    0.00018496    0.00033793
     atom   61 type  6   force =     0.00018879    0.00018496   -0.00033789
     atom   62 type  6   force =     0.00024755    0.00036087    0.00014633
     atom   63 type  6   force =     0.00097147   -0.00048915    0.00035959
     atom   64 type  6   force =     0.00090070   -0.00039930    0.00039966
     atom   65 type  6   force =    -0.00090070   -0.00039931   -0.00039965
     atom   66 type  6   force =    -0.00097146   -0.00048916   -0.00035958
     atom   67 type  6   force =     0.00060043   -0.00041479   -0.00023706
     atom   68 type  6   force =     0.00074785   -0.00061991   -0.00033359
     atom   69 type  6   force =    -0.00074785   -0.00061991    0.00033358
     atom   70 type  6   force =    -0.00060043   -0.00041479    0.00023706
     atom   71 type  6   force =     0.00018192    0.00024116   -0.00072539
     atom   72 type  6   force =     0.00002971   -0.00001033   -0.00048969
     atom   73 type  6   force =    -0.00002971   -0.00001033    0.00048970
     atom   74 type  6   force =    -0.00018191    0.00024116    0.00072540
     atom   75 type  6   force =     0.00000881    0.00005015   -0.00046097
     atom   76 type  6   force =     0.00027029   -0.00010277   -0.00023511
     atom   77 type  6   force =    -0.00027030   -0.00010277    0.00023511
     atom   78 type  6   force =    -0.00000881    0.00005015    0.00046097
     atom   79 type  3   force =     0.00002726    0.00041322   -0.00022350
     atom   80 type  3   force =     0.00008273    0.00003913   -0.00027871
     atom   81 type  3   force =    -0.00008273    0.00003913    0.00027871
     atom   82 type  3   force =    -0.00002726    0.00041322    0.00022350
     atom   83 type  3   force =     0.00015757   -0.00038222   -0.00030798
     atom   84 type  3   force =     0.00091329    0.00005661   -0.00003895
     atom   85 type  3   force =    -0.00091330    0.00005661    0.00003896
     atom   86 type  3   force =    -0.00015757   -0.00038222    0.00030798
     atom   87 type  2   force =     0.00000001   -0.00116954   -0.00000000

     Total force =     0.003008     Total SCF correction =     0.000088

     DFT-D3 dispersion Force =     0.007075


     Computing stress (Cartesian axis) and pressure

          total   stress  (Ry/bohr**3)                   (kbar)     P=        0.12
  -0.00000040   0.00000000  -0.00000014           -0.06        0.00       -0.02
   0.00000000   0.00000000   0.00000000            0.00        0.00        0.00
  -0.00000014   0.00000000   0.00000285           -0.02        0.00        0.42

     kinetic stress (kbar)  18617.71      0.00     -4.78
                                0.00  18702.22      0.00
                               -4.78      0.00  18477.13

     local   stress (kbar) -32419.87      0.00    -66.86
                                0.00 -31552.93     -0.00
                              -66.86     -0.00  10075.64

     nonloc. stress (kbar)   4455.51      0.00     -1.35
                                0.00   4462.42      0.00
                               -1.35      0.00   4448.04

     hartree stress (kbar)  17888.34     -0.00     19.96
                               -0.00  17598.94      0.00
                               19.96      0.00  -2761.68

     exc-cor stress (kbar)  -2552.09     -0.00      0.03
                               -0.00  -2553.58      0.00
                                0.03      0.00  -2551.41

     corecor stress (kbar)  -1907.23      0.00      0.03
                                0.00  -1907.46      0.00
                                0.03      0.00  -1908.28

     ewald   stress (kbar)  -4067.92     -0.01     52.81
                               -0.01  -4734.71      0.00
                               52.81      0.00 -25767.49

     hubbard stress (kbar)      0.00      0.00      0.00
                                0.00      0.00      0.00
                                0.00      0.00      0.00

     DFT-D   stress (kbar)    -14.52     -0.00      0.14
                               -0.00    -14.91      0.00
                                0.14      0.00    -11.52

     XDM     stress (kbar)      0.00      0.00      0.00
                                0.00      0.00      0.00
                                0.00      0.00      0.00

     dft-nl  stress (kbar)      0.00      0.00      0.00
                                0.00      0.00      0.00
                                0.00      0.00      0.00

     TS-vdW  stress (kbar)      0.00      0.00      0.00
                                0.00      0.00      0.00
                                0.00      0.00      0.00

     MDB     stress (kbar)      0.00      0.00      0.00
                                0.00      0.00      0.00
                                0.00      0.00      0.00

     3D-RISM stress (kbar)      0.00      0.00      0.00
                                0.00      0.00      0.00
                                0.00      0.00      0.00


     Writing all to output data dir ./temp/phl-ti1-ti2-v1x2.save/ :
     XML data file, charge density, pseudopotentials, collected wavefunctions

     init_run     :   1125.86s CPU   1133.17s WALL (       2 calls)
     electrons    : 163450.62s CPU 164116.87s WALL (       6 calls)
     update_pot   :     25.24s CPU     25.46s WALL (       4 calls)
     forces       :   2715.62s CPU   2724.99s WALL (       6 calls)
     force_dftd3  :     50.51s CPU     50.71s WALL (       6 calls)
     stress       :   9507.79s CPU   9551.17s WALL (       6 calls)
     stres_dftd3  :     50.54s CPU     50.76s WALL (       6 calls)

     Called by init_run:
     wfcinit      :   1085.13s CPU   1090.13s WALL (       2 calls)
     wfcinit:atom :      0.95s CPU      1.62s WALL (      40 calls)
     wfcinit:wfcr :   1075.95s CPU   1079.48s WALL (      40 calls)
     potinit      :     12.47s CPU     12.64s WALL (       2 calls)
     hinit0       :      3.77s CPU      3.85s WALL (       2 calls)

     Called by electrons:
     c_bands      : 152637.45s CPU 153127.81s WALL (      65 calls)
     sum_band     :   9686.16s CPU   9799.48s WALL (      65 calls)
     v_of_rho     :     57.07s CPU     58.83s WALL (      67 calls)
     v_h          :      2.00s CPU      2.07s WALL (      67 calls)
     v_xc         :     64.80s CPU     67.17s WALL (      79 calls)
     newd         :    786.40s CPU    852.78s WALL (      67 calls)
     PAW_pot      :    356.31s CPU    356.39s WALL (      71 calls)
     mix_rho      :      8.68s CPU      8.95s WALL (      65 calls)
     energy_dftd3 :     39.08s CPU     39.09s WALL (       6 calls)

     Called by c_bands:
     init_us_2    :    188.79s CPU    188.99s WALL (    2960 calls)
     cegterg      : 152262.00s CPU 152752.03s WALL (    1342 calls)

     Called by sum_band:
     sum_band:wei :      0.04s CPU      0.04s WALL (      65 calls)
     sum_band:loo :   8185.77s CPU   8216.64s WALL (      65 calls)
     sum_band:buf :     21.96s CPU     21.97s WALL (    1300 calls)
     sum_band:ini :     84.29s CPU     84.35s WALL (    1300 calls)
     sum_band:cal :   7013.21s CPU   7015.99s WALL (    1380 calls)
     sum_band:bec :      8.89s CPU      8.91s WALL (    1380 calls)
     addusdens    :   1489.74s CPU   1571.69s WALL (      65 calls)
                                        0.00s GPU  (      65 calls)
     addusd:skk   :      6.31s CPU     10.49s WALL (     455 calls)
                                        0.00s GPU  (     455 calls)

     Called by *egterg:
     cdiaghg      :   5112.45s CPU   5190.33s WALL (   11505 calls)
     cegterg:over :  20357.74s CPU  20361.85s WALL (   10363 calls)
     cegterg:upda :  12424.71s CPU  12451.59s WALL (   10363 calls)
     cegterg:last :  32973.52s CPU  32982.70s WALL (    4106 calls)
     cdiaghg:chol :    110.75s CPU    110.81s WALL (   11505 calls)
     cdiaghg:inve :    119.53s CPU    119.57s WALL (   11505 calls)
     cdiaghg:para :   2493.63s CPU   2512.71s WALL (   23010 calls)
     h_psi        :  54748.90s CPU  55031.52s WALL (   11745 calls)
     s_psi        :  23605.45s CPU  23608.48s WALL (   11745 calls)
     g_psi        :     59.87s CPU     59.91s WALL (   10363 calls)

     Called by h_psi:
     h_psi:calbec :  23021.84s CPU  23030.79s WALL (   11745 calls)
     vloc_psi     :   8056.90s CPU   8292.61s WALL (   11745 calls)
     add_vuspsi   :  23616.42s CPU  23619.49s WALL (   11745 calls)

     General routines
     calbec       :  33109.65s CPU  33122.65s WALL (   13725 calls)
     fft          :     35.44s CPU     37.61s WALL (    1915 calls)
     ffts         :      1.29s CPU      1.40s WALL (     264 calls)
     fftw         :   6000.41s CPU   6177.23s WALL ( 3123736 calls)
     interpolate  :      3.75s CPU      3.95s WALL (     134 calls)

     Parallel routines

     PAW routines
     PAW_pot      :    356.31s CPU    356.39s WALL (      71 calls)
     PAW_symme    :      0.10s CPU      0.10s WALL (     136 calls)

     PWSCF        :   2d 1h15m CPU   2d 1h27m WALL


   This run was terminated on:  13: 2:41  27Mar2025            

=------------------------------------------------------------------------------=
   JOB DONE.
=------------------------------------------------------------------------------=
