
     Program PWSCF v.7.3.1 starts on 16Dec2024 at 21:58:34 

     This program is part of the open-source Quantum ESPRESSO suite
     for quantum simulation of materials; please cite
         "P. Giannozzi et al., J. Phys.:Condens. Matter 21 395502 (2009);
         "P. Giannozzi et al., J. Phys.:Condens. Matter 29 465901 (2017);
         "P. Giannozzi et al., J. Chem. Phys. 152 154105 (2020);
          URL http://www.quantum-espresso.org", 
     in publications or presentations arising from this work. More details at
     http://www.quantum-espresso.org/quote

     Parallel version (MPI), running on     8 processors

     MPI processes distributed on     1 nodes
     11794 MiB available memory on the printing compute node when the environment starts

     Reading input from vc_relax.in

     Current dimensions of program PWSCF are:
     Max number of different atomic species (ntypx) = 10
     Max number of k-points (npk) =  40000
     Max angular momentum in pseudopotentials (lmaxx) =  4
     file Al.pbe-n-kjpaw_psl.1.0.0.UPF: wavefunction(s)  3S 3P renormalized
     file H.pbe-kjpaw_psl.1.0.0.UPF: wavefunction(s)  1S renormalized
     file K.pbe-spn-kjpaw_psl.1.0.0.UPF: wavefunction(s)  3S renormalized
     file Mg.pbe-spnl-kjpaw_psl.1.0.0.UPF: wavefunction(s)  2P renormalized
     file O.pbe-n-kjpaw_psl.1.0.0.UPF: wavefunction(s)  2S 2P renormalized
     file Si.pbe-n-kjpaw_psl.1.0.0.UPF: wavefunction(s)  3S 3P renormalized

     R & G space division:  proc/nbgrp/npool/nimage =       8
     Subspace diagonalization in iterative solution of the eigenvalue problem:
     a serial algorithm will be used


     Parallelization info
     --------------------
     sticks:   dense  smooth     PW     G-vecs:    dense   smooth      PW
     Min         829     416    112                73308    25934    3688
     Max         830     417    114                73309    25935    3690
     Sum        6633    3329    905               586467   207475   29511

     Using Slab Decomposition



     bravais-lattice index     =          -12
     lattice parameter (alat)  =      10.0136  a.u.
     unit-cell volume          =    3303.4414 (a.u.)^3
     number of atoms/cell      =           44
     number of atomic types    =            6
     number of electrons       =       256.00
     number of Kohn-Sham states=          128
     kinetic-energy cutoff     =      60.0000  Ry
     charge density cutoff     =     480.0000  Ry
     scf convergence threshold =      1.0E-06
     mixing beta               =       0.7000
     number of iterations used =            8  plain     mixing
     energy convergence thresh.=      1.0E-04
     force convergence thresh. =      1.0E-03
     press convergence thresh. =      5.0E-01
     Exchange-correlation= SLA  PW   PBX  PBC
                           (   1   4   3   4   0   0   0)
     nstep                     =           50


     celldm(1)=  10.013640  celldm(2)=   1.735306  celldm(3)=   1.926511
     celldm(4)=   0.000000  celldm(5)=  -0.177565  celldm(6)=   0.000000

     crystal axes: (cart. coord. in units of alat)
               a(1) = (   1.000000   0.000000   0.000000 )  
               a(2) = (   0.000000   1.735306   0.000000 )  
               a(3) = (  -0.342081   0.000000   1.895896 )  

     reciprocal axes: (cart. coord. in units 2 pi/alat)
               b(1) = (  1.000000 -0.000000  0.180432 )  
               b(2) = (  0.000000  0.576267 -0.000000 )  
               b(3) = (  0.000000  0.000000  0.527455 )  


     PseudoPot. # 1 for Al read from file:
     ./../../pseudos/Al.pbe-n-kjpaw_psl.1.0.0.UPF
     MD5 check sum: 502b6b27b9c6270cab5dd1084b96fa6d
     Pseudo is Projector augmented-wave + core cor, Zval =  3.0
     Generated using &quot;atomic&quot; code by A. Dal Corso  v.6.3
     Shape of augmentation charge: PSQ
     Using radial grid of 1135 points,  6 beta functions with: 
                l(1) =   0
                l(2) =   0
                l(3) =   1
                l(4) =   1
                l(5) =   2
                l(6) =   2
     Q(r) pseudized with 0 coefficients 


     PseudoPot. # 2 for H  read from file:
     ./../../pseudos/H.pbe-kjpaw_psl.1.0.0.UPF
     MD5 check sum: d81a744832360e4a8af0b0b5b123bc2a
     Pseudo is Projector augmented-wave, Zval =  1.0
     Generated using &quot;atomic&quot; code by A. Dal Corso  v.6.3MaX
     Shape of augmentation charge: PSQ
     Using radial grid of  929 points,  2 beta functions with: 
                l(1) =   0
                l(2) =   0
     Q(r) pseudized with 0 coefficients 


     PseudoPot. # 3 for K  read from file:
     ./../../pseudos/K.pbe-spn-kjpaw_psl.1.0.0.UPF
     MD5 check sum: 34cc42130a09071ebe376fd42eb21491
     Pseudo is Projector augmented-wave + core cor, Zval =  9.0
     Generated using &quot;atomic&quot; code by A. Dal Corso  v.6.2.2
     Shape of augmentation charge: PSQ
     Using radial grid of 1165 points,  6 beta functions with: 
                l(1) =   0
                l(2) =   0
                l(3) =   1
                l(4) =   1
                l(5) =   2
                l(6) =   2
     Q(r) pseudized with 0 coefficients 


     PseudoPot. # 4 for Mg read from file:
     ./../../pseudos/Mg.pbe-spnl-kjpaw_psl.1.0.0.UPF
     MD5 check sum: fda14e0d92a6a9a5ebed782e5a4b3067
     Pseudo is Projector augmented-wave + core cor, Zval = 10.0
     Generated using &quot;atomic&quot; code by A. Dal Corso  v.6.3
     Shape of augmentation charge: PSQ
     Using radial grid of 1129 points,  4 beta functions with: 
                l(1) =   0
                l(2) =   0
                l(3) =   1
                l(4) =   1
     Q(r) pseudized with 0 coefficients 


     PseudoPot. # 5 for O  read from file:
     ./../../pseudos/O.pbe-n-kjpaw_psl.1.0.0.UPF
     MD5 check sum: e99d9cef9b487d1ca56f5b95ecd0fd7a
     Pseudo is Projector augmented-wave + core cor, Zval =  6.0
     Generated using &quot;atomic&quot; code by A. Dal Corso  v.6.3
     Shape of augmentation charge: PSQ
     Using radial grid of 1095 points,  4 beta functions with: 
                l(1) =   0
                l(2) =   0
                l(3) =   1
                l(4) =   1
     Q(r) pseudized with 0 coefficients 


     PseudoPot. # 6 for Si read from file:
     ./../../pseudos/Si.pbe-n-kjpaw_psl.1.0.0.UPF
     MD5 check sum: c39c59da582df4a0d9f10159256ea34e
     Pseudo is Projector augmented-wave + core cor, Zval =  4.0
     Generated using &quot;atomic&quot; code by A. Dal Corso  v.6.3
     Shape of augmentation charge: PSQ
     Using radial grid of 1141 points,  6 beta functions with: 
                l(1) =   0
                l(2) =   0
                l(3) =   1
                l(4) =   1
                l(5) =   2
                l(6) =   2
     Q(r) pseudized with 0 coefficients 


     atomic species   valence    mass     pseudopotential
     Al                3.00    26.98154     Al( 1.00)
     H                 1.00     1.00794     H ( 1.00)
     K                 9.00    39.09830     K ( 1.00)
     Mg               10.00    24.30500     Mg( 1.00)
     O                 6.00    15.99940     O ( 1.00)
     Si                4.00    28.08550     Si( 1.00)

      2 Sym. Ops. (no inversion) found


                                    s                        frac. trans.

      isym =  1     identity                                     

 cryst.   s( 1) = (     1          0          0      )
                  (     0          1          0      )
                  (     0          0          1      )

 cart.    s( 1) = (  1.0000000  0.0000000 -0.0000000 )
                  (  0.0000000  1.0000000  0.0000000 )
                  (  0.0000000  0.0000000  1.0000000 )


      isym =  2     180 deg rotation - cart. axis [0,1,0]        

 cryst.   s( 2) = (    -1          0          0      )
                  (     0          1          0      )
                  (     0          0         -1      )

 cart.    s( 2) = ( -1.0000000  0.0000000  0.0000000 )
                  (  0.0000000  1.0000000  0.0000000 )
                  (  0.0000000  0.0000000 -1.0000000 )


     point group C_2  (2)   
     there are  2 classes
     the character table:

       E     C2   
A      1.00  1.00
B      1.00 -1.00

     the symmetry operations in each class and the name of the first element:

     E        1
          identity                                               
     C2       2
          180 deg rotation - cart. axis [0,1,0]                  

   Cartesian axes

     site n.     atom                  positions (alat units)
         1        K      tau(   1) = (   0.0000000   0.8612688   0.0000000  )
         2        K      tau(   2) = (   0.5000000   0.0030869   0.0000000  )
         3        Mg     tau(   3) = (  -0.1710407   0.0075627   0.9479482  )
         4        Mg     tau(   4) = (  -0.1710407   0.5785145   0.9479482  )
         5        Mg     tau(   5) = (  -0.1710407   1.1538183   0.9479482  )
         6        Mg     tau(   6) = (   0.3289593   0.8558043   0.9479482  )
         7        Mg     tau(   7) = (   0.3289593   1.4487383   0.9479482  )
         8        Mg     tau(   8) = (   0.3289593   0.2987879   0.9479482  )
         9        Si     tau(   9) = (   0.0069478   0.2861638   0.4225247  )
        10        Si     tau(  10) = (   0.6509708   0.2861638   1.4733718  )
        11        Si     tau(  11) = (   0.6704556   1.4477401   1.4618682  )
        12        Si     tau(  12) = (  -0.0125369   1.4477401   0.4340282  )
        13        Si     tau(  13) = (   0.4868221   1.1566299   0.4302377  )
        14        Si     tau(  14) = (   0.1710966   1.1566299   1.4656587  )
        15        Al     tau(  15) = (   0.1500500   0.5742609   1.4705558  )
        16        Al     tau(  16) = (   0.5078687   0.5742609   0.4253406  )
        17        O      tau(  17) = (  -0.0044965   0.2836502   0.7302751  )
        18        O      tau(  18) = (   0.6624151   0.2836502   1.1656214  )
        19        O      tau(  19) = (   0.6658126   1.4456057   1.1566469  )
        20        O      tau(  20) = (  -0.0078939   1.4456057   0.7392494  )
        21        O      tau(  21) = (   0.4924389   1.1612568   0.7367745  )
        22        O      tau(  22) = (   0.1654798   1.1612568   1.1591219  )
        23        O      tau(  23) = (   0.1546153   0.5779180   1.1445411  )
        24        O      tau(  24) = (   0.5033034   0.5779180   0.7513553  )
        25        O      tau(  25) = (   0.2872896   0.3496994   0.3147622  )
        26        O      tau(  26) = (   0.3706291   0.3496994   1.5811342  )
        27        O      tau(  27) = (   0.9358981   1.7303459   0.3179456  )
        28        O      tau(  28) = (  -0.2779795   1.7303459   1.5779508  )
        29        O      tau(  29) = (   0.3971790   1.3473831   1.5753677  )
        30        O      tau(  30) = (   0.2607397   1.3473831   0.3205287  )
        31        O      tau(  31) = (   0.7600511   1.2674262   0.3184475  )
        32        O      tau(  32) = (  -0.1021325   1.2674262   1.5774490  )
        33        O      tau(  33) = (   0.4388764   0.8811551   0.3079530  )
        34        O      tau(  34) = (   0.2190423   0.8811551   1.5879435  )
        35        O      tau(  35) = (  -0.1456040   0.4817486   1.5936536  )
        36        O      tau(  36) = (   0.8035227   0.4817486   0.3022428  )
        37        O      tau(  37) = (  -0.0043658   0.8750139   0.7457459  )
        38        O      tau(  38) = (   0.6622845   0.8750139   1.1501505  )
        39        O      tau(  39) = (   0.4966471   1.7339638   0.7524516  )
        40        O      tau(  40) = (   0.1612716   1.7339638   1.1434447  )
        41        H      tau(  41) = (  -0.0031848   0.8569122   0.5646137  )
        42        H      tau(  42) = (   0.6611035   0.8569122   1.3312827  )
        43        H      tau(  43) = (   0.4918867   0.0276992   0.5725809  )
        44        H      tau(  44) = (   0.1660320   0.0276992   1.3233155  )

     -------------------------------------------------
     Parameters for Dispersion (Grimme-D2) Correction:
     -------------------------------------------------
       atom      VdW radius       C_6     

        Al         3.097        374.319
        H          1.892          4.857
        K          2.806        374.666
        Mg         2.578        198.087
        O          2.536         24.284
        Si         3.243        320.200

   Crystallographic axes

     site n.     atom                  positions (cryst. coord.)
         1        K      tau(   1) = (  0.0000000  0.4963210  0.0000000  )
         2        K      tau(   2) = (  0.5000000  0.0017789  0.0000000  )
         3        Mg     tau(   3) = (  0.0000000  0.0043581  0.5000000  )
         4        Mg     tau(   4) = (  0.0000000  0.3333789  0.5000000  )
         5        Mg     tau(   5) = (  0.0000000  0.6649076  0.5000000  )
         6        Mg     tau(   6) = (  0.5000000  0.4931719  0.5000000  )
         7        Mg     tau(   7) = (  0.5000000  0.8348603  0.5000000  )
         8        Mg     tau(   8) = (  0.5000000  0.1721817  0.5000000  )
         9        Si     tau(   9) = (  0.0831850  0.1649068  0.2228628  )
        10        Si     tau(  10) = (  0.9168150  0.1649068  0.7771373  )
        11        Si     tau(  11) = (  0.9342241  0.8342851  0.7710696  )
        12        Si     tau(  12) = (  0.0657759  0.8342851  0.2289304  )
        13        Si     tau(  13) = (  0.5644509  0.6665279  0.2269310  )
        14        Si     tau(  14) = (  0.4355491  0.6665279  0.7730690  )
        15        Al     tau(  15) = (  0.4153860  0.3309277  0.7756520  )
        16        Al     tau(  16) = (  0.5846140  0.3309277  0.2243480  )
        17        O      tau(  17) = (  0.1272689  0.1634583  0.3851872  )
        18        O      tau(  18) = (  0.8727311  0.1634583  0.6148128  )
        19        O      tau(  19) = (  0.8745093  0.8330551  0.6100792  )
        20        O      tau(  20) = (  0.1254907  0.8330551  0.3899208  )
        21        O      tau(  21) = (  0.6253769  0.6691942  0.3886154  )
        22        O      tau(  22) = (  0.3746230  0.6691942  0.6113846  )
        23        O      tau(  23) = (  0.3611277  0.3330352  0.6036939  )
        24        O      tau(  24) = (  0.6388723  0.3330352  0.3963061  )
        25        O      tau(  25) = (  0.3440829  0.2015203  0.1660229  )
        26        O      tau(  26) = (  0.6559171  0.2015203  0.8339771  )
        27        O      tau(  27) = (  0.9932659  0.9971415  0.1677020  )
        28        O      tau(  28) = (  0.0067341  0.9971415  0.8322980  )
        29        O      tau(  29) = (  0.6814265  0.7764527  0.8309355  )
        30        O      tau(  30) = (  0.3185735  0.7764527  0.1690645  )
        31        O      tau(  31) = (  0.8175094  0.7303761  0.1679667  )
        32        O      tau(  32) = (  0.1824906  0.7303761  0.8320333  )
        33        O      tau(  33) = (  0.4944412  0.5077808  0.1624313  )
        34        O      tau(  34) = (  0.5055588  0.5077808  0.8375687  )
        35        O      tau(  35) = (  0.1419429  0.2776159  0.8405805  )
        36        O      tau(  36) = (  0.8580571  0.2776159  0.1594195  )
        37        O      tau(  37) = (  0.1301910  0.5042418  0.3933474  )
        38        O      tau(  38) = (  0.8698090  0.5042418  0.6066526  )
        39        O      tau(  39) = (  0.6324138  0.9992265  0.3968844  )
        40        O      tau(  40) = (  0.3675862  0.9992265  0.6031156  )
        41        H      tau(  41) = (  0.0986899  0.4938104  0.2978083  )
        42        H      tau(  42) = (  0.9013101  0.4938104  0.7021917  )
        43        H      tau(  43) = (  0.5951989  0.0159622  0.3020106  )
        44        H      tau(  44) = (  0.4048011  0.0159622  0.6979893  )

     number of k points=    20
                       cart. coord. in units 2pi/alat
        k(    1) = (   0.0000000   0.0000000   0.0000000), wk =   0.0370370
        k(    2) = (   0.0000000   0.0000000   0.1758183), wk =   0.0740741
        k(    3) = (   0.0000000   0.1920891   0.0000000), wk =   0.0740741
        k(    4) = (   0.0000000   0.1920891   0.1758183), wk =   0.1481481
        k(    5) = (   0.1666667   0.0000000   0.0300721), wk =   0.0740741
        k(    6) = (   0.1666667   0.0000000   0.2058904), wk =   0.0740741
        k(    7) = (   0.1666667   0.0000000  -0.1457462), wk =   0.0740741
        k(    8) = (   0.1666667   0.1920891   0.0300721), wk =   0.1481481
        k(    9) = (   0.1666667   0.1920891   0.2058904), wk =   0.1481481
        k(   10) = (   0.1666667   0.1920891  -0.1457462), wk =   0.1481481
        k(   11) = (   0.3333333   0.0000000   0.0601442), wk =   0.0740741
        k(   12) = (   0.3333333   0.0000000   0.2359625), wk =   0.0740741
        k(   13) = (   0.3333333   0.0000000  -0.1156742), wk =   0.0740741
        k(   14) = (   0.3333333   0.1920891   0.0601442), wk =   0.1481481
        k(   15) = (   0.3333333   0.1920891   0.2359625), wk =   0.1481481
        k(   16) = (   0.3333333   0.1920891  -0.1156742), wk =   0.1481481
        k(   17) = (  -0.5000000   0.0000000  -0.0902162), wk =   0.0370370
        k(   18) = (  -0.5000000   0.0000000   0.0856021), wk =   0.0740741
        k(   19) = (  -0.5000000   0.1920891  -0.0902162), wk =   0.0740741
        k(   20) = (  -0.5000000   0.1920891   0.0856021), wk =   0.1481481

                       cryst. coord.
        k(    1) = (   0.0000000   0.0000000   0.0000000), wk =   0.0370370
        k(    2) = (   0.0000000   0.0000000   0.3333333), wk =   0.0740741
        k(    3) = (   0.0000000   0.3333333   0.0000000), wk =   0.0740741
        k(    4) = (   0.0000000   0.3333333   0.3333333), wk =   0.1481481
        k(    5) = (   0.1666667   0.0000000  -0.0000000), wk =   0.0740741
        k(    6) = (   0.1666667   0.0000000   0.3333333), wk =   0.0740741
        k(    7) = (   0.1666667   0.0000000  -0.3333333), wk =   0.0740741
        k(    8) = (   0.1666667   0.3333333  -0.0000000), wk =   0.1481481
        k(    9) = (   0.1666667   0.3333333   0.3333333), wk =   0.1481481
        k(   10) = (   0.1666667   0.3333333  -0.3333333), wk =   0.1481481
        k(   11) = (   0.3333333   0.0000000  -0.0000000), wk =   0.0740741
        k(   12) = (   0.3333333   0.0000000   0.3333333), wk =   0.0740741
        k(   13) = (   0.3333333   0.0000000  -0.3333333), wk =   0.0740741
        k(   14) = (   0.3333333   0.3333333  -0.0000000), wk =   0.1481481
        k(   15) = (   0.3333333   0.3333333   0.3333333), wk =   0.1481481
        k(   16) = (   0.3333333   0.3333333  -0.3333333), wk =   0.1481481
        k(   17) = (  -0.5000000   0.0000000   0.0000000), wk =   0.0370370
        k(   18) = (  -0.5000000   0.0000000   0.3333333), wk =   0.0740741
        k(   19) = (  -0.5000000   0.3333333   0.0000000), wk =   0.0740741
        k(   20) = (  -0.5000000   0.3333333   0.3333333), wk =   0.1481481

     Dense  grid:   586467 G-vectors     FFT dimensions: (  72, 125, 135)

     Smooth grid:   207475 G-vectors     FFT dimensions: (  50,  90,  96)

     Dynamical RAM for                 wfc:       6.33 MB

     Dynamical RAM for     wfc (w. buffer):     132.89 MB

     Dynamical RAM for           str. fact:       6.71 MB

     Dynamical RAM for           local pot:       0.00 MB

     Dynamical RAM for          nlocal pot:      21.16 MB

     Dynamical RAM for                qrad:      21.10 MB

     Dynamical RAM for          rho,v,vnew:       6.86 MB

     Dynamical RAM for               rhoin:       2.29 MB

     Dynamical RAM for            rho*nmix:      17.90 MB

     Dynamical RAM for           G-vectors:       4.39 MB

     Dynamical RAM for          h,s,v(r/c):       3.00 MB

     Dynamical RAM for          <psi|beta>:       0.84 MB

     Dynamical RAM for                 psi:      12.66 MB

     Dynamical RAM for                hpsi:      12.66 MB

     Dynamical RAM for                spsi:      12.66 MB

     Dynamical RAM for      wfcinit/wfcrot:      18.33 MB

     Dynamical RAM for           addusdens:     234.91 MB

     Dynamical RAM for          addusforce:     287.02 MB

     Dynamical RAM for         addusstress:     224.84 MB

     Estimated static dynamical RAM per process >     209.06 MB

     Estimated max dynamical RAM per process >     513.97 MB

     Estimated total dynamical RAM >       4.02 GB

     Check: negative core charge=   -0.000004

     Initial potential from superposition of free atoms

     starting charge     255.9488, renormalised to     256.0000
     Starting wfcs are  178 randomized atomic wfcs
     Checking if some PAW data can be deallocated... 
       PAW data deallocated on    7 nodes for type:  1
       PAW data deallocated on    7 nodes for type:  2
       PAW data deallocated on    7 nodes for type:  3
       PAW data deallocated on    6 nodes for type:  4
       PAW data deallocated on    2 nodes for type:  5
       PAW data deallocated on    6 nodes for type:  6

     total cpu time spent up to now is      118.8 secs

     Self-consistent Calculation

     iteration #  1     ecut=    60.00 Ry     beta= 0.70
     Davidson diagonalization with overlap

---- Real-time Memory Report at c_bands before calling an iterative solver
           309 MiB given to the printing process from OS
             0 MiB allocation reported by mallinfo(arena+hblkhd)
         10417 MiB available memory on the node where the printing process lives
------------------
     ethr =  1.00E-02,  avg # of iterations =  2.0

     total cpu time spent up to now is      359.3 secs

     total energy              =   -2435.41003603 Ry
     estimated scf accuracy    <      12.99193462 Ry

     iteration #  2     ecut=    60.00 Ry     beta= 0.70
     Davidson diagonalization with overlap

---- Real-time Memory Report at c_bands before calling an iterative solver
           491 MiB given to the printing process from OS
             0 MiB allocation reported by mallinfo(arena+hblkhd)
         10729 MiB available memory on the node where the printing process lives
------------------
     ethr =  5.07E-03,  avg # of iterations =  5.1

     total cpu time spent up to now is      840.2 secs

     total energy              =   -2441.99765506 Ry
     estimated scf accuracy    <      12.09726066 Ry

     iteration #  3     ecut=    60.00 Ry     beta= 0.70
     Davidson diagonalization with overlap

---- Real-time Memory Report at c_bands before calling an iterative solver
           492 MiB given to the printing process from OS
             0 MiB allocation reported by mallinfo(arena+hblkhd)
         10711 MiB available memory on the node where the printing process lives
------------------
     ethr =  4.73E-03,  avg # of iterations =  2.0

     total cpu time spent up to now is     1064.3 secs

     total energy              =   -2441.01714467 Ry
     estimated scf accuracy    <       2.73747484 Ry

     iteration #  4     ecut=    60.00 Ry     beta= 0.70
     Davidson diagonalization with overlap

---- Real-time Memory Report at c_bands before calling an iterative solver
           493 MiB given to the printing process from OS
             0 MiB allocation reported by mallinfo(arena+hblkhd)
         10718 MiB available memory on the node where the printing process lives
------------------
     ethr =  1.07E-03,  avg # of iterations =  7.0

     total cpu time spent up to now is     1615.2 secs

     total energy              =   -2444.13094546 Ry
     estimated scf accuracy    <       2.79416415 Ry

     iteration #  5     ecut=    60.00 Ry     beta= 0.70
     Davidson diagonalization with overlap

---- Real-time Memory Report at c_bands before calling an iterative solver
           494 MiB given to the printing process from OS
             0 MiB allocation reported by mallinfo(arena+hblkhd)
         10717 MiB available memory on the node where the printing process lives
------------------
     ethr =  1.07E-03,  avg # of iterations =  1.2

     total cpu time spent up to now is     1814.1 secs

     total energy              =   -2443.46498691 Ry
     estimated scf accuracy    <       1.80815950 Ry

     iteration #  6     ecut=    60.00 Ry     beta= 0.70
     Davidson diagonalization with overlap

---- Real-time Memory Report at c_bands before calling an iterative solver
           494 MiB given to the printing process from OS
             0 MiB allocation reported by mallinfo(arena+hblkhd)
         10710 MiB available memory on the node where the printing process lives
------------------
     ethr =  7.06E-04,  avg # of iterations =  2.0

     total cpu time spent up to now is     2073.7 secs

     total energy              =   -2443.62300303 Ry
     estimated scf accuracy    <       0.34622583 Ry

     iteration #  7     ecut=    60.00 Ry     beta= 0.70
     Davidson diagonalization with overlap

---- Real-time Memory Report at c_bands before calling an iterative solver
           495 MiB given to the printing process from OS
             0 MiB allocation reported by mallinfo(arena+hblkhd)
         10703 MiB available memory on the node where the printing process lives
------------------
     ethr =  1.35E-04,  avg # of iterations =  4.5

     total cpu time spent up to now is     2456.5 secs

     total energy              =   -2443.81106542 Ry
     estimated scf accuracy    <       0.00528062 Ry

     iteration #  8     ecut=    60.00 Ry     beta= 0.70
     Davidson diagonalization with overlap

---- Real-time Memory Report at c_bands before calling an iterative solver
           496 MiB given to the printing process from OS
             0 MiB allocation reported by mallinfo(arena+hblkhd)
         10695 MiB available memory on the node where the printing process lives
------------------
     ethr =  2.06E-06,  avg # of iterations = 15.0

     total cpu time spent up to now is     3370.4 secs

     total energy              =   -2443.83433830 Ry
     estimated scf accuracy    <       0.00715831 Ry

     iteration #  9     ecut=    60.00 Ry     beta= 0.70
     Davidson diagonalization with overlap

---- Real-time Memory Report at c_bands before calling an iterative solver
           497 MiB given to the printing process from OS
             0 MiB allocation reported by mallinfo(arena+hblkhd)
         10687 MiB available memory on the node where the printing process lives
------------------
     ethr =  2.06E-06,  avg # of iterations =  1.9

     total cpu time spent up to now is     3594.6 secs

     total energy              =   -2443.83249844 Ry
     estimated scf accuracy    <       0.00333474 Ry

     iteration # 10     ecut=    60.00 Ry     beta= 0.70
     Davidson diagonalization with overlap

---- Real-time Memory Report at c_bands before calling an iterative solver
           498 MiB given to the printing process from OS
             0 MiB allocation reported by mallinfo(arena+hblkhd)
         10676 MiB available memory on the node where the printing process lives
------------------
     ethr =  1.30E-06,  avg # of iterations =  6.8

     total cpu time spent up to now is     4119.9 secs

     total energy              =   -2443.83508854 Ry
     estimated scf accuracy    <       0.00200807 Ry

     iteration # 11     ecut=    60.00 Ry     beta= 0.70
     Davidson diagonalization with overlap

---- Real-time Memory Report at c_bands before calling an iterative solver
           498 MiB given to the printing process from OS
             0 MiB allocation reported by mallinfo(arena+hblkhd)
         10678 MiB available memory on the node where the printing process lives
------------------
     ethr =  7.84E-07,  avg # of iterations =  2.0

     total cpu time spent up to now is     4343.5 secs

     total energy              =   -2443.83527305 Ry
     estimated scf accuracy    <       0.00162256 Ry

     iteration # 12     ecut=    60.00 Ry     beta= 0.70
     Davidson diagonalization with overlap

---- Real-time Memory Report at c_bands before calling an iterative solver
           498 MiB given to the printing process from OS
             0 MiB allocation reported by mallinfo(arena+hblkhd)
         10680 MiB available memory on the node where the printing process lives
------------------
     ethr =  6.34E-07,  avg # of iterations =  2.0

     total cpu time spent up to now is     4568.0 secs

     total energy              =   -2443.83556696 Ry
     estimated scf accuracy    <       0.00193771 Ry

     iteration # 13     ecut=    60.00 Ry     beta= 0.70
     Davidson diagonalization with overlap

---- Real-time Memory Report at c_bands before calling an iterative solver
           498 MiB given to the printing process from OS
             0 MiB allocation reported by mallinfo(arena+hblkhd)
         10680 MiB available memory on the node where the printing process lives
------------------
     ethr =  6.34E-07,  avg # of iterations =  1.9

     total cpu time spent up to now is     4783.1 secs

     total energy              =   -2443.83515033 Ry
     estimated scf accuracy    <       0.00250627 Ry

     iteration # 14     ecut=    60.00 Ry     beta= 0.70
     Davidson diagonalization with overlap

---- Real-time Memory Report at c_bands before calling an iterative solver
           498 MiB given to the printing process from OS
             0 MiB allocation reported by mallinfo(arena+hblkhd)
         10681 MiB available memory on the node where the printing process lives
------------------
     ethr =  6.34E-07,  avg # of iterations =  1.7

     total cpu time spent up to now is     4993.6 secs

     total energy              =   -2443.83518736 Ry
     estimated scf accuracy    <       0.00165364 Ry

     iteration # 15     ecut=    60.00 Ry     beta= 0.70
     Davidson diagonalization with overlap

---- Real-time Memory Report at c_bands before calling an iterative solver
           498 MiB given to the printing process from OS
             0 MiB allocation reported by mallinfo(arena+hblkhd)
         10680 MiB available memory on the node where the printing process lives
------------------
     ethr =  6.34E-07,  avg # of iterations =  1.0

     total cpu time spent up to now is     5186.3 secs

     total energy              =   -2443.83464275 Ry
     estimated scf accuracy    <       0.00163511 Ry

     iteration # 16     ecut=    60.00 Ry     beta= 0.70
     Davidson diagonalization with overlap

---- Real-time Memory Report at c_bands before calling an iterative solver
           498 MiB given to the printing process from OS
             0 MiB allocation reported by mallinfo(arena+hblkhd)
         10676 MiB available memory on the node where the printing process lives
------------------
     ethr =  6.34E-07,  avg # of iterations =  2.0

     total cpu time spent up to now is     5404.5 secs

     total energy              =   -2443.83428182 Ry
     estimated scf accuracy    <       0.00062611 Ry

     iteration # 17     ecut=    60.00 Ry     beta= 0.70
     Davidson diagonalization with overlap

---- Real-time Memory Report at c_bands before calling an iterative solver
           498 MiB given to the printing process from OS
             0 MiB allocation reported by mallinfo(arena+hblkhd)
         10680 MiB available memory on the node where the printing process lives
------------------
     ethr =  2.45E-07,  avg # of iterations =  7.5

     total cpu time spent up to now is     5993.7 secs

     total energy              =   -2443.83493406 Ry
     estimated scf accuracy    <       0.00080901 Ry

     iteration # 18     ecut=    60.00 Ry     beta= 0.70
     Davidson diagonalization with overlap

---- Real-time Memory Report at c_bands before calling an iterative solver
           498 MiB given to the printing process from OS
             0 MiB allocation reported by mallinfo(arena+hblkhd)
         10681 MiB available memory on the node where the printing process lives
------------------
     ethr =  2.45E-07,  avg # of iterations =  1.2

     total cpu time spent up to now is     6192.7 secs

     total energy              =   -2443.83479575 Ry
     estimated scf accuracy    <       0.00061776 Ry

     iteration # 19     ecut=    60.00 Ry     beta= 0.70
     Davidson diagonalization with overlap

---- Real-time Memory Report at c_bands before calling an iterative solver
           498 MiB given to the printing process from OS
             0 MiB allocation reported by mallinfo(arena+hblkhd)
         10680 MiB available memory on the node where the printing process lives
------------------
     ethr =  2.41E-07,  avg # of iterations =  2.0

     total cpu time spent up to now is     6415.8 secs

     total energy              =   -2443.83472229 Ry
     estimated scf accuracy    <       0.00027747 Ry

     iteration # 20     ecut=    60.00 Ry     beta= 0.70
     Davidson diagonalization with overlap

---- Real-time Memory Report at c_bands before calling an iterative solver
           498 MiB given to the printing process from OS
             0 MiB allocation reported by mallinfo(arena+hblkhd)
         10672 MiB available memory on the node where the printing process lives
------------------
     ethr =  1.08E-07,  avg # of iterations =  3.5

     total cpu time spent up to now is     6683.3 secs

     total energy              =   -2443.83474043 Ry
     estimated scf accuracy    <       0.00005723 Ry

     iteration # 21     ecut=    60.00 Ry     beta= 0.70
     Davidson diagonalization with overlap

---- Real-time Memory Report at c_bands before calling an iterative solver
           498 MiB given to the printing process from OS
             0 MiB allocation reported by mallinfo(arena+hblkhd)
         10669 MiB available memory on the node where the printing process lives
------------------
     ethr =  2.24E-08,  avg # of iterations =  8.0

     total cpu time spent up to now is     7266.0 secs

     total energy              =   -2443.83481254 Ry
     estimated scf accuracy    <       0.00005502 Ry

     iteration # 22     ecut=    60.00 Ry     beta= 0.70
     Davidson diagonalization with overlap

---- Real-time Memory Report at c_bands before calling an iterative solver
           498 MiB given to the printing process from OS
             0 MiB allocation reported by mallinfo(arena+hblkhd)
         10676 MiB available memory on the node where the printing process lives
------------------
     ethr =  2.15E-08,  avg # of iterations =  1.4

     total cpu time spent up to now is     7467.6 secs

     total energy              =   -2443.83479833 Ry
     estimated scf accuracy    <       0.00002354 Ry

     iteration # 23     ecut=    60.00 Ry     beta= 0.70
     Davidson diagonalization with overlap

---- Real-time Memory Report at c_bands before calling an iterative solver
           498 MiB given to the printing process from OS
             0 MiB allocation reported by mallinfo(arena+hblkhd)
         10665 MiB available memory on the node where the printing process lives
------------------
     ethr =  9.20E-09,  avg # of iterations =  7.0

     total cpu time spent up to now is     8013.8 secs

     total energy              =   -2443.83481456 Ry
     estimated scf accuracy    <       0.00003407 Ry

     iteration # 24     ecut=    60.00 Ry     beta= 0.70
     Davidson diagonalization with overlap

---- Real-time Memory Report at c_bands before calling an iterative solver
           498 MiB given to the printing process from OS
             0 MiB allocation reported by mallinfo(arena+hblkhd)
         10645 MiB available memory on the node where the printing process lives
------------------
     ethr =  9.20E-09,  avg # of iterations =  1.8

     total cpu time spent up to now is     8225.6 secs

     total energy              =   -2443.83480853 Ry
     estimated scf accuracy    <       0.00001430 Ry

     iteration # 25     ecut=    60.00 Ry     beta= 0.70
     Davidson diagonalization with overlap

---- Real-time Memory Report at c_bands before calling an iterative solver
           498 MiB given to the printing process from OS
             0 MiB allocation reported by mallinfo(arena+hblkhd)
         10661 MiB available memory on the node where the printing process lives
------------------
     ethr =  5.59E-09,  avg # of iterations =  4.0

     total cpu time spent up to now is     8569.0 secs

     End of self-consistent calculation

          k = 0.0000 0.0000 0.0000 ( 25927 PWs)   bands (ev):

   -67.6981 -67.6960 -67.5700 -67.2137 -67.1190 -67.1134 -34.4746 -34.4561
   -34.4524 -34.4450 -34.4361 -34.4341 -34.3327 -34.3306 -34.3035 -33.9718
   -33.9655 -33.9632 -33.8925 -33.8920 -33.8781 -33.8609 -33.8524 -33.8330
   -23.1371 -23.1183 -15.2021 -15.1482 -14.2591 -14.2134 -13.7530 -13.7296
   -13.5102 -13.4004 -13.3607 -13.1698 -12.9572 -12.9479 -12.9314 -12.9234
   -12.8655 -12.7756 -12.6211 -12.5495 -12.3941 -12.3799 -12.3470 -12.2272
   -11.2302 -10.9850  -6.7095  -6.6847  -6.6338  -6.6266  -6.5986  -6.5944
    -4.3852  -4.3262  -2.5195  -2.4205  -1.9259  -1.4192  -1.2615  -1.2503
    -1.2055  -1.1142  -0.7558  -0.6872  -0.5731  -0.4794  -0.4679  -0.2790
    -0.0907  -0.0147   0.1234   0.3612   0.4744   0.4909   0.5614   0.7500
     0.7718   1.0171   1.1936   1.2204   1.2778   1.3990   1.4277   1.5520
     1.7351   1.7564   1.8824   1.9642   1.9910   2.1219   2.1262   2.2068
     2.3325   2.3596   2.5115   2.5505   2.6072   2.6278   2.7380   2.7839
     2.8016   2.8844   2.9044   2.9847   3.1137   3.1689   3.2095   3.2932
     3.3319   3.3712   3.4702   3.4719   3.5537   3.6417   3.6995   3.7061
     3.7683   3.8169   3.8214   4.0035   4.0094   4.1904   4.3587   4.4652

     occupation numbers 
     1.0000   1.0000   1.0000   1.0000   1.0000   1.0000   1.0000   1.0000
     1.0000   1.0000   1.0000   1.0000   1.0000   1.0000   1.0000   1.0000
     1.0000   1.0000   1.0000   1.0000   1.0000   1.0000   1.0000   1.0000
     1.0000   1.0000   1.0000   1.0000   1.0000   1.0000   1.0000   1.0000
     1.0000   1.0000   1.0000   1.0000   1.0000   1.0000   1.0000   1.0000
     1.0000   1.0000   1.0000   1.0000   1.0000   1.0000   1.0000   1.0000
     1.0000   1.0000   1.0000   1.0000   1.0000   1.0000   1.0000   1.0000
     1.0000   1.0000   1.0000   1.0000   1.0000   1.0000   1.0000   1.0000
     1.0000   1.0000   1.0000   1.0000   1.0000   1.0000   1.0000   1.0000
     1.0000   1.0000   1.0000   1.0000   1.0000   1.0000   1.0000   1.0000
     1.0000   1.0000   1.0000   1.0000   1.0000   1.0000   1.0000   1.0000
     1.0000   1.0000   1.0000   1.0000   1.0000   1.0000   1.0000   1.0000
     1.0000   1.0000   1.0000   1.0000   1.0000   1.0000   1.0000   1.0000
     1.0000   1.0000   1.0000   1.0000   1.0000   1.0000   1.0000   1.0000
     1.0000   1.0000   1.0000   1.0000   1.0000   1.0000   1.0000   1.0000
     1.0000   1.0000   1.0000   1.0000   1.0000   1.0000   1.0000   1.0000

          k = 0.0000 0.0000 0.1758 ( 25971 PWs)   bands (ev):

   -67.6981 -67.6960 -67.5700 -67.2137 -67.1190 -67.1134 -34.4746 -34.4561
   -34.4524 -34.4450 -34.4361 -34.4342 -34.3327 -34.3307 -34.3036 -33.9718
   -33.9655 -33.9632 -33.8925 -33.8921 -33.8781 -33.8609 -33.8524 -33.8330
   -23.1371 -23.1183 -15.1892 -15.1619 -14.2481 -14.2249 -13.7535 -13.7290
   -13.4984 -13.4199 -13.3533 -13.1662 -12.9684 -12.9389 -12.9328 -12.9248
   -12.8590 -12.7796 -12.6135 -12.5566 -12.4008 -12.3670 -12.3461 -12.2342
   -11.2299 -10.9857  -6.7096  -6.6847  -6.6339  -6.6266  -6.5985  -6.5944
    -4.3807  -4.3312  -2.4968  -2.4475  -1.8925  -1.4041  -1.2845  -1.2247
    -1.1968  -1.1390  -0.7327  -0.6994  -0.6091  -0.4773  -0.4527  -0.3716
    -0.0693   0.0181   0.0730   0.3063   0.4619   0.4689   0.5902   0.7696
     0.8143   1.0924   1.1249   1.2326   1.3110   1.3655   1.4749   1.5945
     1.7539   1.7747   1.9669   1.9795   2.0028   2.1296   2.1322   2.2056
     2.2851   2.3410   2.4938   2.5375   2.5658   2.6209   2.6809   2.7248
     2.7646   2.9542   2.9832   2.9930   3.0163   3.1852   3.2290   3.2881
     3.3070   3.3327   3.4506   3.5589   3.5931   3.6374   3.6866   3.7182
     3.7494   3.7683   3.7971   4.0129   4.0275   4.1965   4.3562   4.4677

     occupation numbers 
     1.0000   1.0000   1.0000   1.0000   1.0000   1.0000   1.0000   1.0000
     1.0000   1.0000   1.0000   1.0000   1.0000   1.0000   1.0000   1.0000
     1.0000   1.0000   1.0000   1.0000   1.0000   1.0000   1.0000   1.0000
     1.0000   1.0000   1.0000   1.0000   1.0000   1.0000   1.0000   1.0000
     1.0000   1.0000   1.0000   1.0000   1.0000   1.0000   1.0000   1.0000
     1.0000   1.0000   1.0000   1.0000   1.0000   1.0000   1.0000   1.0000
     1.0000   1.0000   1.0000   1.0000   1.0000   1.0000   1.0000   1.0000
     1.0000   1.0000   1.0000   1.0000   1.0000   1.0000   1.0000   1.0000
     1.0000   1.0000   1.0000   1.0000   1.0000   1.0000   1.0000   1.0000
     1.0000   1.0000   1.0000   1.0000   1.0000   1.0000   1.0000   1.0000
     1.0000   1.0000   1.0000   1.0000   1.0000   1.0000   1.0000   1.0000
     1.0000   1.0000   1.0000   1.0000   1.0000   1.0000   1.0000   1.0000
     1.0000   1.0000   1.0000   1.0000   1.0000   1.0000   1.0000   1.0000
     1.0000   1.0000   1.0000   1.0000   1.0000   1.0000   1.0000   1.0000
     1.0000   1.0000   1.0000   1.0000   1.0000   1.0000   1.0000   1.0000
     1.0000   1.0000   1.0000   1.0000   1.0000   1.0000   1.0000   1.0000

          k = 0.0000 0.1921 0.0000 ( 25933 PWs)   bands (ev):

   -67.6981 -67.6960 -67.5700 -67.2137 -67.1190 -67.1134 -34.4746 -34.4561
   -34.4524 -34.4450 -34.4361 -34.4342 -34.3326 -34.3307 -34.3035 -33.9718
   -33.9654 -33.9632 -33.8925 -33.8920 -33.8781 -33.8609 -33.8524 -33.8330
   -23.1370 -23.1183 -15.1972 -15.1434 -14.2921 -14.2429 -13.7531 -13.7296
   -13.4225 -13.3426 -13.2966 -13.2010 -13.0571 -13.0055 -12.9438 -12.8971
   -12.8720 -12.7772 -12.6117 -12.5462 -12.3938 -12.3778 -12.3431 -12.2236
   -11.2289 -10.9844  -6.7056  -6.6889  -6.6334  -6.6245  -6.6002  -6.5953
    -4.3478  -4.2878  -2.6613  -2.5548  -1.8750  -1.4665  -1.2000  -1.1947
    -1.0853  -1.0410  -0.8305  -0.7520  -0.5917  -0.4203  -0.3845  -0.2600
    -0.1782   0.0238   0.1053   0.3432   0.4285   0.4560   0.5679   0.7480
     0.7905   1.0236   1.0829   1.2104   1.2840   1.4328   1.4549   1.5908
     1.7817   1.8009   1.8545   1.9702   2.0337   2.0994   2.2292   2.2884
     2.2995   2.3695   2.4402   2.5526   2.5887   2.6717   2.7361   2.7756
     2.8270   2.8903   2.9538   2.9962   3.1424   3.1777   3.2573   3.2752
     3.3267   3.3505   3.3749   3.4769   3.5488   3.5760   3.6812   3.7139
     3.7784   3.7985   3.8154   3.9833   4.0201   4.1631   4.1767   4.4619

     occupation numbers 
     1.0000   1.0000   1.0000   1.0000   1.0000   1.0000   1.0000   1.0000
     1.0000   1.0000   1.0000   1.0000   1.0000   1.0000   1.0000   1.0000
     1.0000   1.0000   1.0000   1.0000   1.0000   1.0000   1.0000   1.0000
     1.0000   1.0000   1.0000   1.0000   1.0000   1.0000   1.0000   1.0000
     1.0000   1.0000   1.0000   1.0000   1.0000   1.0000   1.0000   1.0000
     1.0000   1.0000   1.0000   1.0000   1.0000   1.0000   1.0000   1.0000
     1.0000   1.0000   1.0000   1.0000   1.0000   1.0000   1.0000   1.0000
     1.0000   1.0000   1.0000   1.0000   1.0000   1.0000   1.0000   1.0000
     1.0000   1.0000   1.0000   1.0000   1.0000   1.0000   1.0000   1.0000
     1.0000   1.0000   1.0000   1.0000   1.0000   1.0000   1.0000   1.0000
     1.0000   1.0000   1.0000   1.0000   1.0000   1.0000   1.0000   1.0000
     1.0000   1.0000   1.0000   1.0000   1.0000   1.0000   1.0000   1.0000
     1.0000   1.0000   1.0000   1.0000   1.0000   1.0000   1.0000   1.0000
     1.0000   1.0000   1.0000   1.0000   1.0000   1.0000   1.0000   1.0000
     1.0000   1.0000   1.0000   1.0000   1.0000   1.0000   1.0000   1.0000
     1.0000   1.0000   1.0000   1.0000   1.0000   1.0000   1.0000   1.0000

          k = 0.0000 0.1921 0.1758 ( 25924 PWs)   bands (ev):

   -67.6981 -67.6960 -67.5700 -67.2137 -67.1190 -67.1134 -34.4746 -34.4561
   -34.4524 -34.4450 -34.4361 -34.4341 -34.3326 -34.3306 -34.3036 -33.9718
   -33.9654 -33.9632 -33.8925 -33.8920 -33.8781 -33.8609 -33.8524 -33.8330
   -23.1370 -23.1183 -15.1843 -15.1572 -14.2802 -14.2556 -13.7536 -13.7291
   -13.4149 -13.3357 -13.3136 -13.1928 -13.0715 -12.9912 -12.9448 -12.8997
   -12.8690 -12.7811 -12.6048 -12.5532 -12.4001 -12.3662 -12.3408 -12.2306
   -11.2286 -10.9851  -6.7056  -6.6890  -6.6334  -6.6244  -6.6001  -6.5952
    -4.3406  -4.2954  -2.6368  -2.5820  -1.8461  -1.4540  -1.1976  -1.1937
    -1.0861  -1.0462  -0.8149  -0.7736  -0.6071  -0.4371  -0.3803  -0.3323
    -0.1360   0.0287   0.0416   0.3213   0.4210   0.4315   0.6086   0.7439
     0.8442   0.9919   1.0648   1.2628   1.3492   1.4262   1.5510   1.6098
     1.7499   1.8219   1.8989   1.9456   2.0088   2.1470   2.2181   2.2715
     2.3148   2.3559   2.4194   2.5131   2.5891   2.6441   2.6987   2.7423
     2.8217   2.9209   2.9519   3.0528   3.0868   3.1434   3.2322   3.2869
     3.2970   3.3490   3.4139   3.4948   3.5445   3.6257   3.6675   3.7033
     3.7435   3.7854   3.8187   3.9684   4.0306   4.1796   4.1946   4.4650

     occupation numbers 
     1.0000   1.0000   1.0000   1.0000   1.0000   1.0000   1.0000   1.0000
     1.0000   1.0000   1.0000   1.0000   1.0000   1.0000   1.0000   1.0000
     1.0000   1.0000   1.0000   1.0000   1.0000   1.0000   1.0000   1.0000
     1.0000   1.0000   1.0000   1.0000   1.0000   1.0000   1.0000   1.0000
     1.0000   1.0000   1.0000   1.0000   1.0000   1.0000   1.0000   1.0000
     1.0000   1.0000   1.0000   1.0000   1.0000   1.0000   1.0000   1.0000
     1.0000   1.0000   1.0000   1.0000   1.0000   1.0000   1.0000   1.0000
     1.0000   1.0000   1.0000   1.0000   1.0000   1.0000   1.0000   1.0000
     1.0000   1.0000   1.0000   1.0000   1.0000   1.0000   1.0000   1.0000
     1.0000   1.0000   1.0000   1.0000   1.0000   1.0000   1.0000   1.0000
     1.0000   1.0000   1.0000   1.0000   1.0000   1.0000   1.0000   1.0000
     1.0000   1.0000   1.0000   1.0000   1.0000   1.0000   1.0000   1.0000
     1.0000   1.0000   1.0000   1.0000   1.0000   1.0000   1.0000   1.0000
     1.0000   1.0000   1.0000   1.0000   1.0000   1.0000   1.0000   1.0000
     1.0000   1.0000   1.0000   1.0000   1.0000   1.0000   1.0000   1.0000
     1.0000   1.0000   1.0000   1.0000   1.0000   1.0000   1.0000   1.0000

          k = 0.1667 0.0000 0.0301 ( 25941 PWs)   bands (ev):

   -67.6980 -67.6962 -67.5700 -67.2137 -67.1189 -67.1134 -34.4739 -34.4584
   -34.4510 -34.4447 -34.4361 -34.4342 -34.3327 -34.3307 -34.3036 -33.9716
   -33.9657 -33.9632 -33.8950 -33.8887 -33.8787 -33.8603 -33.8527 -33.8335
   -23.1369 -23.1182 -15.1438 -15.0911 -14.2786 -14.2357 -13.8639 -13.8331
   -13.4419 -13.3377 -13.3051 -13.1556 -12.9763 -12.9574 -12.9454 -12.9083
   -12.8565 -12.7841 -12.6369 -12.5631 -12.4639 -12.4133 -12.3309 -12.2131
   -11.2269 -10.9897  -6.7092  -6.6889  -6.6325  -6.6250  -6.5987  -6.5911
    -4.2293  -4.1670  -2.4918  -2.3916  -1.9265  -1.5462  -1.4928  -1.3855
    -0.9986  -0.9144  -0.7648  -0.7401  -0.5661  -0.4605  -0.4259  -0.2751
    -0.0978   0.0109   0.1075   0.3439   0.4044   0.5160   0.5383   0.6441
     0.9357   1.0535   1.1505   1.2257   1.2381   1.3432   1.4365   1.5257
     1.6228   1.8019   1.8272   1.9066   1.9697   2.1552   2.1895   2.2566
     2.3179   2.3932   2.5227   2.5541   2.5852   2.6127   2.7371   2.7555
     2.8251   2.8605   2.9458   3.0284   3.0790   3.1111   3.2224   3.2361
     3.3072   3.3816   3.4419   3.5234   3.5621   3.6213   3.6584   3.7149
     3.7251   3.7881   3.8243   3.9272   3.9930   4.1928   4.3473   4.3739

     occupation numbers 
     1.0000   1.0000   1.0000   1.0000   1.0000   1.0000   1.0000   1.0000
     1.0000   1.0000   1.0000   1.0000   1.0000   1.0000   1.0000   1.0000
     1.0000   1.0000   1.0000   1.0000   1.0000   1.0000   1.0000   1.0000
     1.0000   1.0000   1.0000   1.0000   1.0000   1.0000   1.0000   1.0000
     1.0000   1.0000   1.0000   1.0000   1.0000   1.0000   1.0000   1.0000
     1.0000   1.0000   1.0000   1.0000   1.0000   1.0000   1.0000   1.0000
     1.0000   1.0000   1.0000   1.0000   1.0000   1.0000   1.0000   1.0000
     1.0000   1.0000   1.0000   1.0000   1.0000   1.0000   1.0000   1.0000
     1.0000   1.0000   1.0000   1.0000   1.0000   1.0000   1.0000   1.0000
     1.0000   1.0000   1.0000   1.0000   1.0000   1.0000   1.0000   1.0000
     1.0000   1.0000   1.0000   1.0000   1.0000   1.0000   1.0000   1.0000
     1.0000   1.0000   1.0000   1.0000   1.0000   1.0000   1.0000   1.0000
     1.0000   1.0000   1.0000   1.0000   1.0000   1.0000   1.0000   1.0000
     1.0000   1.0000   1.0000   1.0000   1.0000   1.0000   1.0000   1.0000
     1.0000   1.0000   1.0000   1.0000   1.0000   1.0000   1.0000   1.0000
     1.0000   1.0000   1.0000   1.0000   1.0000   1.0000   1.0000   1.0000

          k = 0.1667 0.0000 0.2059 ( 25961 PWs)   bands (ev):

   -67.6980 -67.6962 -67.5700 -67.2137 -67.1189 -67.1134 -34.4739 -34.4584
   -34.4510 -34.4447 -34.4362 -34.4342 -34.3327 -34.3307 -34.3036 -33.9716
   -33.9657 -33.9632 -33.8950 -33.8887 -33.8787 -33.8603 -33.8528 -33.8335
   -23.1369 -23.1182 -15.1277 -15.1083 -14.2692 -14.2457 -13.8603 -13.8369
   -13.4303 -13.3545 -13.3003 -13.1515 -12.9762 -12.9606 -12.9491 -12.9063
   -12.8510 -12.7874 -12.6309 -12.5700 -12.4578 -12.4200 -12.3203 -12.2221
   -11.2265 -10.9905  -6.7093  -6.6889  -6.6324  -6.6250  -6.5986  -6.5911
    -4.2303  -4.1664  -2.4722  -2.4161  -1.8906  -1.5855  -1.4594  -1.3720
    -0.9976  -0.9170  -0.7743  -0.7338  -0.5725  -0.4500  -0.4239  -0.3839
    -0.0587   0.0497   0.0549   0.2774   0.3868   0.4964   0.5330   0.7006
     0.9964   1.0688   1.1232   1.2191   1.2566   1.3651   1.4719   1.5322
     1.6751   1.7838   1.8539   1.9092   2.0588   2.1623   2.2010   2.2624
     2.2957   2.3901   2.4600   2.4923   2.5591   2.6153   2.7035   2.7168
     2.7984   2.8900   2.9932   3.0415   3.0728   3.1142   3.1498   3.2268
     3.3281   3.3631   3.4344   3.5731   3.5895   3.6249   3.6683   3.6946
     3.7321   3.7481   3.7868   3.9348   4.0283   4.1845   4.3470   4.3933

     occupation numbers 
     1.0000   1.0000   1.0000   1.0000   1.0000   1.0000   1.0000   1.0000
     1.0000   1.0000   1.0000   1.0000   1.0000   1.0000   1.0000   1.0000
     1.0000   1.0000   1.0000   1.0000   1.0000   1.0000   1.0000   1.0000
     1.0000   1.0000   1.0000   1.0000   1.0000   1.0000   1.0000   1.0000
     1.0000   1.0000   1.0000   1.0000   1.0000   1.0000   1.0000   1.0000
     1.0000   1.0000   1.0000   1.0000   1.0000   1.0000   1.0000   1.0000
     1.0000   1.0000   1.0000   1.0000   1.0000   1.0000   1.0000   1.0000
     1.0000   1.0000   1.0000   1.0000   1.0000   1.0000   1.0000   1.0000
     1.0000   1.0000   1.0000   1.0000   1.0000   1.0000   1.0000   1.0000
     1.0000   1.0000   1.0000   1.0000   1.0000   1.0000   1.0000   1.0000
     1.0000   1.0000   1.0000   1.0000   1.0000   1.0000   1.0000   1.0000
     1.0000   1.0000   1.0000   1.0000   1.0000   1.0000   1.0000   1.0000
     1.0000   1.0000   1.0000   1.0000   1.0000   1.0000   1.0000   1.0000
     1.0000   1.0000   1.0000   1.0000   1.0000   1.0000   1.0000   1.0000
     1.0000   1.0000   1.0000   1.0000   1.0000   1.0000   1.0000   1.0000
     1.0000   1.0000   1.0000   1.0000   1.0000   1.0000   1.0000   1.0000

          k = 0.1667 0.0000-0.1457 ( 25956 PWs)   bands (ev):

   -67.6980 -67.6962 -67.5700 -67.2137 -67.1189 -67.1134 -34.4739 -34.4584
   -34.4510 -34.4447 -34.4361 -34.4342 -34.3327 -34.3307 -34.3036 -33.9716
   -33.9657 -33.9632 -33.8950 -33.8887 -33.8787 -33.8603 -33.8527 -33.8335
   -23.1369 -23.1182 -15.1346 -15.1010 -14.2699 -14.2450 -13.8590 -13.8381
   -13.4348 -13.3409 -13.3105 -13.1523 -12.9695 -12.9626 -12.9523 -12.9032
   -12.8539 -12.7889 -12.6262 -12.5739 -12.4450 -12.4334 -12.3201 -12.2207
   -11.2263 -10.9905  -6.7094  -6.6889  -6.6324  -6.6250  -6.5986  -6.5911
    -4.2130  -4.1839  -2.4688  -2.4177  -1.9049  -1.5794  -1.4622  -1.3756
    -0.9829  -0.9360  -0.7511  -0.7201  -0.5891  -0.4612  -0.4359  -0.3516
    -0.0956   0.0462   0.0740   0.2879   0.4206   0.5163   0.5583   0.6869
     0.9450   1.0565   1.1011   1.2156   1.2893   1.3912   1.4733   1.4921
     1.6779   1.7702   1.8633   1.8941   2.0050   2.1369   2.2122   2.2274
     2.3068   2.3958   2.4773   2.5328   2.5633   2.6339   2.6804   2.7755
     2.8055   2.8800   2.9907   3.0431   3.0886   3.1144   3.1581   3.2893
     3.3367   3.3677   3.4557   3.5155   3.5750   3.5821   3.6192   3.6951
     3.7438   3.7532   3.8033   3.9179   4.0529   4.1818   4.3518   4.3854

     occupation numbers 
     1.0000   1.0000   1.0000   1.0000   1.0000   1.0000   1.0000   1.0000
     1.0000   1.0000   1.0000   1.0000   1.0000   1.0000   1.0000   1.0000
     1.0000   1.0000   1.0000   1.0000   1.0000   1.0000   1.0000   1.0000
     1.0000   1.0000   1.0000   1.0000   1.0000   1.0000   1.0000   1.0000
     1.0000   1.0000   1.0000   1.0000   1.0000   1.0000   1.0000   1.0000
     1.0000   1.0000   1.0000   1.0000   1.0000   1.0000   1.0000   1.0000
     1.0000   1.0000   1.0000   1.0000   1.0000   1.0000   1.0000   1.0000
     1.0000   1.0000   1.0000   1.0000   1.0000   1.0000   1.0000   1.0000
     1.0000   1.0000   1.0000   1.0000   1.0000   1.0000   1.0000   1.0000
     1.0000   1.0000   1.0000   1.0000   1.0000   1.0000   1.0000   1.0000
     1.0000   1.0000   1.0000   1.0000   1.0000   1.0000   1.0000   1.0000
     1.0000   1.0000   1.0000   1.0000   1.0000   1.0000   1.0000   1.0000
     1.0000   1.0000   1.0000   1.0000   1.0000   1.0000   1.0000   1.0000
     1.0000   1.0000   1.0000   1.0000   1.0000   1.0000   1.0000   1.0000
     1.0000   1.0000   1.0000   1.0000   1.0000   1.0000   1.0000   1.0000
     1.0000   1.0000   1.0000   1.0000   1.0000   1.0000   1.0000   1.0000

          k = 0.1667 0.1921 0.0301 ( 25937 PWs)   bands (ev):

   -67.6980 -67.6962 -67.5700 -67.2137 -67.1189 -67.1134 -34.4739 -34.4584
   -34.4510 -34.4447 -34.4361 -34.4342 -34.3326 -34.3307 -34.3036 -33.9716
   -33.9656 -33.9632 -33.8950 -33.8887 -33.8787 -33.8603 -33.8528 -33.8335
   -23.1369 -23.1182 -15.1392 -15.0865 -14.3074 -14.2612 -13.8521 -13.8246
   -13.3840 -13.3129 -13.2438 -13.1672 -13.0405 -13.0067 -12.9564 -12.8983
   -12.8743 -12.7855 -12.6317 -12.5526 -12.4583 -12.4153 -12.3286 -12.2113
   -11.2259 -10.9893  -6.7061  -6.6925  -6.6323  -6.6234  -6.5998  -6.5915
    -4.1947  -4.1317  -2.6458  -2.5402  -1.8533  -1.4404  -1.4104  -1.3713
    -0.9910  -0.9179  -0.8543  -0.7035  -0.5694  -0.3988  -0.3707  -0.2393
    -0.1297   0.0001   0.0803   0.3190   0.3771   0.4983   0.5369   0.6218
     0.9486   0.9835   1.1409   1.2068   1.2605   1.3453   1.4369   1.5420
     1.6525   1.7824   1.7954   1.9522   2.0353   2.1540   2.2137   2.2652
     2.3486   2.3967   2.4496   2.5932   2.6025   2.7030   2.7257   2.7908
     2.8447   2.8908   2.9863   3.0298   3.0829   3.1441   3.2041   3.2567
     3.3099   3.3331   3.4008   3.4947   3.5430   3.5645   3.6255   3.6885
     3.7154   3.7498   3.8464   3.9455   3.9721   4.1508   4.2325   4.4083

     occupation numbers 
     1.0000   1.0000   1.0000   1.0000   1.0000   1.0000   1.0000   1.0000
     1.0000   1.0000   1.0000   1.0000   1.0000   1.0000   1.0000   1.0000
     1.0000   1.0000   1.0000   1.0000   1.0000   1.0000   1.0000   1.0000
     1.0000   1.0000   1.0000   1.0000   1.0000   1.0000   1.0000   1.0000
     1.0000   1.0000   1.0000   1.0000   1.0000   1.0000   1.0000   1.0000
     1.0000   1.0000   1.0000   1.0000   1.0000   1.0000   1.0000   1.0000
     1.0000   1.0000   1.0000   1.0000   1.0000   1.0000   1.0000   1.0000
     1.0000   1.0000   1.0000   1.0000   1.0000   1.0000   1.0000   1.0000
     1.0000   1.0000   1.0000   1.0000   1.0000   1.0000   1.0000   1.0000
     1.0000   1.0000   1.0000   1.0000   1.0000   1.0000   1.0000   1.0000
     1.0000   1.0000   1.0000   1.0000   1.0000   1.0000   1.0000   1.0000
     1.0000   1.0000   1.0000   1.0000   1.0000   1.0000   1.0000   1.0000
     1.0000   1.0000   1.0000   1.0000   1.0000   1.0000   1.0000   1.0000
     1.0000   1.0000   1.0000   1.0000   1.0000   1.0000   1.0000   1.0000
     1.0000   1.0000   1.0000   1.0000   1.0000   1.0000   1.0000   1.0000
     1.0000   1.0000   1.0000   1.0000   1.0000   1.0000   1.0000   1.0000

          k = 0.1667 0.1921 0.2059 ( 25944 PWs)   bands (ev):

   -67.6980 -67.6962 -67.5700 -67.2137 -67.1189 -67.1134 -34.4739 -34.4584
   -34.4510 -34.4447 -34.4361 -34.4342 -34.3326 -34.3307 -34.3036 -33.9716
   -33.9656 -33.9632 -33.8950 -33.8887 -33.8787 -33.8603 -33.8528 -33.8335
   -23.1369 -23.1182 -15.1230 -15.1037 -14.2955 -14.2739 -13.8504 -13.8264
   -13.3768 -13.3060 -13.2620 -13.1567 -13.0571 -12.9919 -12.9568 -12.8991
   -12.8725 -12.7892 -12.6269 -12.5587 -12.4549 -12.4189 -12.3182 -12.2200
   -11.2255 -10.9901  -6.7062  -6.6925  -6.6323  -6.6233  -6.5996  -6.5915
    -4.1926  -4.1340  -2.6204  -2.5687  -1.8255  -1.4360  -1.4245  -1.3497
    -0.9956  -0.9137  -0.8570  -0.7006  -0.5751  -0.4502  -0.3530  -0.2945
    -0.0924  -0.0082   0.0566   0.2796   0.3583   0.4818   0.5313   0.6641
     0.9565   0.9870   1.1176   1.2764   1.2823   1.3770   1.4789   1.5991
     1.6805   1.7345   1.8006   1.9341   2.0703   2.1585   2.2404   2.2781
     2.3504   2.4001   2.4082   2.5188   2.5953   2.6755   2.7121   2.7542
     2.8405   2.9058   3.0057   3.0303   3.0909   3.1106   3.1804   3.2390
     3.2889   3.3539   3.4389   3.4857   3.5330   3.5894   3.6207   3.6757
     3.7005   3.7758   3.8138   3.9547   3.9905   4.1564   4.2405   4.4200

     occupation numbers 
     1.0000   1.0000   1.0000   1.0000   1.0000   1.0000   1.0000   1.0000
     1.0000   1.0000   1.0000   1.0000   1.0000   1.0000   1.0000   1.0000
     1.0000   1.0000   1.0000   1.0000   1.0000   1.0000   1.0000   1.0000
     1.0000   1.0000   1.0000   1.0000   1.0000   1.0000   1.0000   1.0000
     1.0000   1.0000   1.0000   1.0000   1.0000   1.0000   1.0000   1.0000
     1.0000   1.0000   1.0000   1.0000   1.0000   1.0000   1.0000   1.0000
     1.0000   1.0000   1.0000   1.0000   1.0000   1.0000   1.0000   1.0000
     1.0000   1.0000   1.0000   1.0000   1.0000   1.0000   1.0000   1.0000
     1.0000   1.0000   1.0000   1.0000   1.0000   1.0000   1.0000   1.0000
     1.0000   1.0000   1.0000   1.0000   1.0000   1.0000   1.0000   1.0000
     1.0000   1.0000   1.0000   1.0000   1.0000   1.0000   1.0000   1.0000
     1.0000   1.0000   1.0000   1.0000   1.0000   1.0000   1.0000   1.0000
     1.0000   1.0000   1.0000   1.0000   1.0000   1.0000   1.0000   1.0000
     1.0000   1.0000   1.0000   1.0000   1.0000   1.0000   1.0000   1.0000
     1.0000   1.0000   1.0000   1.0000   1.0000   1.0000   1.0000   1.0000
     1.0000   1.0000   1.0000   1.0000   1.0000   1.0000   1.0000   1.0000

          k = 0.1667 0.1921-0.1457 ( 25923 PWs)   bands (ev):

   -67.6980 -67.6961 -67.5700 -67.2137 -67.1189 -67.1134 -34.4738 -34.4584
   -34.4510 -34.4447 -34.4361 -34.4342 -34.3326 -34.3307 -34.3036 -33.9716
   -33.9656 -33.9632 -33.8950 -33.8887 -33.8787 -33.8603 -33.8528 -33.8335
   -23.1369 -23.1182 -15.1299 -15.0964 -14.2978 -14.2715 -13.8478 -13.8291
   -13.3797 -13.3054 -13.2575 -13.1609 -13.0537 -12.9954 -12.9569 -12.8991
   -12.8717 -12.7898 -12.6217 -12.5624 -12.4424 -12.4326 -12.3180 -12.2189
   -11.2253 -10.9901  -6.7063  -6.6926  -6.6323  -6.6233  -6.5996  -6.5915
    -4.1767  -4.1503  -2.6212  -2.5672  -1.8359  -1.4424  -1.4235  -1.3477
    -0.9716  -0.9401  -0.8245  -0.7104  -0.5999  -0.4142  -0.3644  -0.2867
    -0.1237   0.0038   0.0424   0.3090   0.3847   0.4818   0.5711   0.6550
     0.9382   0.9557   1.1091   1.2408   1.2956   1.3943   1.4736   1.5694
     1.6811   1.7485   1.7867   1.9615   2.0471   2.1171   2.2262   2.2787
     2.3210   2.3961   2.4362   2.5430   2.6463   2.6594   2.6826   2.7795
     2.8703   2.9252   2.9924   3.0528   3.0769   3.1135   3.1967   3.2745
     3.3139   3.3470   3.4273   3.4838   3.5335   3.5812   3.6139   3.6559
     3.7130   3.7473   3.7869   3.9421   4.0202   4.1482   4.2405   4.4133

     occupation numbers 
     1.0000   1.0000   1.0000   1.0000   1.0000   1.0000   1.0000   1.0000
     1.0000   1.0000   1.0000   1.0000   1.0000   1.0000   1.0000   1.0000
     1.0000   1.0000   1.0000   1.0000   1.0000   1.0000   1.0000   1.0000
     1.0000   1.0000   1.0000   1.0000   1.0000   1.0000   1.0000   1.0000
     1.0000   1.0000   1.0000   1.0000   1.0000   1.0000   1.0000   1.0000
     1.0000   1.0000   1.0000   1.0000   1.0000   1.0000   1.0000   1.0000
     1.0000   1.0000   1.0000   1.0000   1.0000   1.0000   1.0000   1.0000
     1.0000   1.0000   1.0000   1.0000   1.0000   1.0000   1.0000   1.0000
     1.0000   1.0000   1.0000   1.0000   1.0000   1.0000   1.0000   1.0000
     1.0000   1.0000   1.0000   1.0000   1.0000   1.0000   1.0000   1.0000
     1.0000   1.0000   1.0000   1.0000   1.0000   1.0000   1.0000   1.0000
     1.0000   1.0000   1.0000   1.0000   1.0000   1.0000   1.0000   1.0000
     1.0000   1.0000   1.0000   1.0000   1.0000   1.0000   1.0000   1.0000
     1.0000   1.0000   1.0000   1.0000   1.0000   1.0000   1.0000   1.0000
     1.0000   1.0000   1.0000   1.0000   1.0000   1.0000   1.0000   1.0000
     1.0000   1.0000   1.0000   1.0000   1.0000   1.0000   1.0000   1.0000

          k = 0.3333 0.0000 0.0601 ( 25907 PWs)   bands (ev):

   -67.6977 -67.6964 -67.5700 -67.2137 -67.1188 -67.1136 -34.4720 -34.4619
   -34.4495 -34.4441 -34.4361 -34.4346 -34.3325 -34.3308 -34.3036 -33.9712
   -33.9661 -33.9631 -33.8962 -33.8854 -33.8803 -33.8587 -33.8540 -33.8344
   -23.1366 -23.1179 -14.9837 -14.9346 -14.4037 -14.3658 -13.9798 -13.9442
   -13.3351 -13.2364 -13.1747 -13.1338 -13.0393 -12.9915 -12.9560 -12.9090
   -12.8698 -12.7844 -12.6866 -12.6153 -12.5420 -12.4686 -12.3146 -12.2037
   -11.2214 -10.9996  -6.7088  -6.6976  -6.6294  -6.6219  -6.5991  -6.5840
    -3.8223  -3.7493  -2.6369  -2.5228  -1.9210  -1.7648  -1.4894  -1.3298
    -0.9661  -0.8308  -0.8230  -0.7747  -0.4839  -0.4167  -0.3278  -0.2438
    -0.1931   0.0232   0.1460   0.3136   0.3906   0.5052   0.5452   0.5870
     0.8882   1.0165   1.1087   1.1703   1.2988   1.3398   1.4665   1.4849
     1.5431   1.5587   1.6865   1.8657   1.9543   2.1922   2.2225   2.2764
     2.3384   2.4403   2.5653   2.5855   2.6444   2.6532   2.7200   2.7997
     2.8429   2.8724   2.9860   3.0408   3.0506   3.1009   3.1199   3.1465
     3.3377   3.3538   3.4247   3.4662   3.4977   3.5563   3.6124   3.6476
     3.6643   3.7387   3.8660   3.8941   3.9427   4.1995   4.2826   4.3176

     occupation numbers 
     1.0000   1.0000   1.0000   1.0000   1.0000   1.0000   1.0000   1.0000
     1.0000   1.0000   1.0000   1.0000   1.0000   1.0000   1.0000   1.0000
     1.0000   1.0000   1.0000   1.0000   1.0000   1.0000   1.0000   1.0000
     1.0000   1.0000   1.0000   1.0000   1.0000   1.0000   1.0000   1.0000
     1.0000   1.0000   1.0000   1.0000   1.0000   1.0000   1.0000   1.0000
     1.0000   1.0000   1.0000   1.0000   1.0000   1.0000   1.0000   1.0000
     1.0000   1.0000   1.0000   1.0000   1.0000   1.0000   1.0000   1.0000
     1.0000   1.0000   1.0000   1.0000   1.0000   1.0000   1.0000   1.0000
     1.0000   1.0000   1.0000   1.0000   1.0000   1.0000   1.0000   1.0000
     1.0000   1.0000   1.0000   1.0000   1.0000   1.0000   1.0000   1.0000
     1.0000   1.0000   1.0000   1.0000   1.0000   1.0000   1.0000   1.0000
     1.0000   1.0000   1.0000   1.0000   1.0000   1.0000   1.0000   1.0000
     1.0000   1.0000   1.0000   1.0000   1.0000   1.0000   1.0000   1.0000
     1.0000   1.0000   1.0000   1.0000   1.0000   1.0000   1.0000   1.0000
     1.0000   1.0000   1.0000   1.0000   1.0000   1.0000   1.0000   1.0000
     1.0000   1.0000   1.0000   1.0000   1.0000   1.0000   1.0000   1.0000

          k = 0.3333 0.0000 0.2360 ( 25948 PWs)   bands (ev):

   -67.6977 -67.6964 -67.5700 -67.2137 -67.1188 -67.1136 -34.4720 -34.4619
   -34.4495 -34.4441 -34.4361 -34.4346 -34.3325 -34.3308 -34.3036 -33.9712
   -33.9661 -33.9631 -33.8963 -33.8854 -33.8803 -33.8587 -33.8540 -33.8344
   -23.1366 -23.1179 -14.9655 -14.9538 -14.4016 -14.3679 -13.9732 -13.9511
   -13.3268 -13.2403 -13.1820 -13.1313 -13.0326 -12.9870 -12.9718 -12.9038
   -12.8682 -12.7865 -12.6804 -12.6242 -12.5265 -12.4810 -12.3040 -12.2132
   -11.2205 -11.0005  -6.7090  -6.6976  -6.6293  -6.6219  -6.5990  -6.5840
    -3.8235  -3.7481  -2.6111  -2.5521  -1.8933  -1.8010  -1.4596  -1.3198
    -0.9684  -0.8380  -0.8198  -0.7604  -0.4573  -0.4123  -0.3670  -0.3269
    -0.1408  -0.0237   0.1544   0.2768   0.3965   0.4827   0.5313   0.6437
     0.9337   1.0299   1.0878   1.1792   1.2157   1.3925   1.4776   1.5237
     1.5712   1.6049   1.6330   1.9168   1.9996   2.1388   2.2421   2.2855
     2.3141   2.3813   2.5385   2.6096   2.6483   2.6607   2.7041   2.7645
     2.8042   2.9148   2.9406   3.0246   3.0451   3.0867   3.1701   3.1926
     3.3512   3.3757   3.4221   3.4618   3.4868   3.5523   3.5631   3.6440
     3.6931   3.7445   3.7865   3.8845   4.0216   4.1792   4.3041   4.3303

     occupation numbers 
     1.0000   1.0000   1.0000   1.0000   1.0000   1.0000   1.0000   1.0000
     1.0000   1.0000   1.0000   1.0000   1.0000   1.0000   1.0000   1.0000
     1.0000   1.0000   1.0000   1.0000   1.0000   1.0000   1.0000   1.0000
     1.0000   1.0000   1.0000   1.0000   1.0000   1.0000   1.0000   1.0000
     1.0000   1.0000   1.0000   1.0000   1.0000   1.0000   1.0000   1.0000
     1.0000   1.0000   1.0000   1.0000   1.0000   1.0000   1.0000   1.0000
     1.0000   1.0000   1.0000   1.0000   1.0000   1.0000   1.0000   1.0000
     1.0000   1.0000   1.0000   1.0000   1.0000   1.0000   1.0000   1.0000
     1.0000   1.0000   1.0000   1.0000   1.0000   1.0000   1.0000   1.0000
     1.0000   1.0000   1.0000   1.0000   1.0000   1.0000   1.0000   1.0000
     1.0000   1.0000   1.0000   1.0000   1.0000   1.0000   1.0000   1.0000
     1.0000   1.0000   1.0000   1.0000   1.0000   1.0000   1.0000   1.0000
     1.0000   1.0000   1.0000   1.0000   1.0000   1.0000   1.0000   1.0000
     1.0000   1.0000   1.0000   1.0000   1.0000   1.0000   1.0000   1.0000
     1.0000   1.0000   1.0000   1.0000   1.0000   1.0000   1.0000   1.0000
     1.0000   1.0000   1.0000   1.0000   1.0000   1.0000   1.0000   1.0000

          k = 0.3333 0.0000-0.1157 ( 25913 PWs)   bands (ev):

   -67.6977 -67.6964 -67.5700 -67.2137 -67.1188 -67.1136 -34.4720 -34.4619
   -34.4495 -34.4441 -34.4361 -34.4346 -34.3325 -34.3308 -34.3036 -33.9712
   -33.9661 -33.9631 -33.8962 -33.8854 -33.8803 -33.8587 -33.8540 -33.8344
   -23.1366 -23.1179 -14.9782 -14.9405 -14.3954 -14.3744 -13.9745 -13.9498
   -13.3333 -13.2229 -13.1947 -13.1326 -13.0294 -12.9907 -12.9690 -12.9005
   -12.8690 -12.7902 -12.6748 -12.6294 -12.5228 -12.4839 -12.3052 -12.2116
   -11.2204 -11.0005  -6.7090  -6.6978  -6.6293  -6.6218  -6.5990  -6.5840
    -3.7887  -3.7839  -2.6255  -2.5365  -1.9060  -1.7826  -1.4825  -1.3237
    -0.9539  -0.8290  -0.8054  -0.7680  -0.4923  -0.4068  -0.3591  -0.2861
    -0.1985  -0.0043   0.1807   0.2736   0.4178   0.4914   0.5710   0.6021
     0.9306   1.0008   1.0986   1.1939   1.2429   1.3565   1.4802   1.5052
     1.5299   1.5664   1.7001   1.8767   1.9633   2.1489   2.2186   2.2545
     2.3219   2.4472   2.5762   2.6036   2.6151   2.6791   2.7037   2.7947
     2.8297   2.8733   2.9625   3.0051   3.0526   3.1389   3.1843   3.2400
     3.3405   3.3509   3.4275   3.4712   3.4962   3.5244   3.5365   3.6176
     3.6779   3.7267   3.8282   3.8634   4.0182   4.1896   4.2939   4.3327

     occupation numbers 
     1.0000   1.0000   1.0000   1.0000   1.0000   1.0000   1.0000   1.0000
     1.0000   1.0000   1.0000   1.0000   1.0000   1.0000   1.0000   1.0000
     1.0000   1.0000   1.0000   1.0000   1.0000   1.0000   1.0000   1.0000
     1.0000   1.0000   1.0000   1.0000   1.0000   1.0000   1.0000   1.0000
     1.0000   1.0000   1.0000   1.0000   1.0000   1.0000   1.0000   1.0000
     1.0000   1.0000   1.0000   1.0000   1.0000   1.0000   1.0000   1.0000
     1.0000   1.0000   1.0000   1.0000   1.0000   1.0000   1.0000   1.0000
     1.0000   1.0000   1.0000   1.0000   1.0000   1.0000   1.0000   1.0000
     1.0000   1.0000   1.0000   1.0000   1.0000   1.0000   1.0000   1.0000
     1.0000   1.0000   1.0000   1.0000   1.0000   1.0000   1.0000   1.0000
     1.0000   1.0000   1.0000   1.0000   1.0000   1.0000   1.0000   1.0000
     1.0000   1.0000   1.0000   1.0000   1.0000   1.0000   1.0000   1.0000
     1.0000   1.0000   1.0000   1.0000   1.0000   1.0000   1.0000   1.0000
     1.0000   1.0000   1.0000   1.0000   1.0000   1.0000   1.0000   1.0000
     1.0000   1.0000   1.0000   1.0000   1.0000   1.0000   1.0000   1.0000
     1.0000   1.0000   1.0000   1.0000   1.0000   1.0000   1.0000   1.0000

          k = 0.3333 0.1921 0.0601 ( 25923 PWs)   bands (ev):

   -67.6977 -67.6964 -67.5700 -67.2137 -67.1188 -67.1136 -34.4720 -34.4619
   -34.4495 -34.4441 -34.4361 -34.4346 -34.3325 -34.3308 -34.3036 -33.9712
   -33.9661 -33.9631 -33.8963 -33.8854 -33.8803 -33.8587 -33.8540 -33.8344
   -23.1366 -23.1179 -14.9801 -14.9310 -14.4148 -14.3752 -13.9766 -13.9435
   -13.3029 -13.2446 -13.1548 -13.1044 -13.0517 -13.0100 -12.9968 -12.9057
   -12.8725 -12.7951 -12.6799 -12.5990 -12.5411 -12.4759 -12.3135 -12.2034
   -11.2209 -10.9996  -6.7077  -6.6999  -6.6296  -6.6211  -6.5988  -6.5841
    -3.8010  -3.7282  -2.7355  -2.6315  -1.8427  -1.6609  -1.4371  -1.3552
    -0.9809  -0.8667  -0.8115  -0.7361  -0.4815  -0.3768  -0.3175  -0.2204
    -0.1603  -0.0168   0.1309   0.3065   0.3915   0.4769   0.5219   0.5470
     0.8565   0.9326   1.1665   1.2266   1.2775   1.3622   1.4123   1.4893
     1.5219   1.5898   1.6947   1.8116   2.0078   2.1618   2.2340   2.2854
     2.3431   2.4563   2.5111   2.5830   2.6389   2.7051   2.7598   2.8255
     2.8502   2.9315   2.9868   3.0239   3.0920   3.1163   3.1860   3.2151
     3.2810   3.3300   3.3664   3.4539   3.4747   3.5125   3.5716   3.6064
     3.7164   3.7593   3.8388   3.9139   3.9430   4.1692   4.2477   4.3046

     occupation numbers 
     1.0000   1.0000   1.0000   1.0000   1.0000   1.0000   1.0000   1.0000
     1.0000   1.0000   1.0000   1.0000   1.0000   1.0000   1.0000   1.0000
     1.0000   1.0000   1.0000   1.0000   1.0000   1.0000   1.0000   1.0000
     1.0000   1.0000   1.0000   1.0000   1.0000   1.0000   1.0000   1.0000
     1.0000   1.0000   1.0000   1.0000   1.0000   1.0000   1.0000   1.0000
     1.0000   1.0000   1.0000   1.0000   1.0000   1.0000   1.0000   1.0000
     1.0000   1.0000   1.0000   1.0000   1.0000   1.0000   1.0000   1.0000
     1.0000   1.0000   1.0000   1.0000   1.0000   1.0000   1.0000   1.0000
     1.0000   1.0000   1.0000   1.0000   1.0000   1.0000   1.0000   1.0000
     1.0000   1.0000   1.0000   1.0000   1.0000   1.0000   1.0000   1.0000
     1.0000   1.0000   1.0000   1.0000   1.0000   1.0000   1.0000   1.0000
     1.0000   1.0000   1.0000   1.0000   1.0000   1.0000   1.0000   1.0000
     1.0000   1.0000   1.0000   1.0000   1.0000   1.0000   1.0000   1.0000
     1.0000   1.0000   1.0000   1.0000   1.0000   1.0000   1.0000   1.0000
     1.0000   1.0000   1.0000   1.0000   1.0000   1.0000   1.0000   1.0000
     1.0000   1.0000   1.0000   1.0000   1.0000   1.0000   1.0000   1.0000

          k = 0.3333 0.1921 0.2360 ( 25909 PWs)   bands (ev):

   -67.6977 -67.6964 -67.5700 -67.2137 -67.1188 -67.1136 -34.4720 -34.4619
   -34.4495 -34.4441 -34.4361 -34.4346 -34.3325 -34.3308 -34.3036 -33.9712
   -33.9661 -33.9631 -33.8963 -33.8854 -33.8803 -33.8587 -33.8540 -33.8344
   -23.1366 -23.1179 -14.9622 -14.9499 -14.4108 -14.3793 -13.9706 -13.9500
   -13.2976 -13.2367 -13.1722 -13.0980 -13.0569 -13.0065 -12.9969 -12.9028
   -12.8719 -12.7985 -12.6726 -12.6115 -12.5271 -12.4853 -12.3030 -12.2127
   -11.2201 -11.0005  -6.7078  -6.7000  -6.6296  -6.6210  -6.5987  -6.5841
    -3.7995  -3.7296  -2.7016  -2.6693  -1.8237  -1.6874  -1.4112  -1.3433
    -0.9751  -0.8916  -0.7695  -0.7500  -0.4552  -0.4209  -0.3334  -0.2436
    -0.1417  -0.0606   0.1645   0.2582   0.3765   0.4581   0.5194   0.5881
     0.8545   0.9568   1.1693   1.2040   1.2924   1.3478   1.4668   1.5058
     1.5631   1.6360   1.6670   1.8155   2.0480   2.1091   2.2545   2.2787
     2.3128   2.4496   2.4876   2.5972   2.6424   2.6745   2.7288   2.8040
     2.8491   2.9118   2.9867   3.0357   3.0705   3.1194   3.1910   3.2426
     3.2874   3.3678   3.4059   3.4474   3.4651   3.5075   3.5389   3.5902
     3.7325   3.7773   3.7963   3.8670   4.0165   4.1419   4.2612   4.3256

     occupation numbers 
     1.0000   1.0000   1.0000   1.0000   1.0000   1.0000   1.0000   1.0000
     1.0000   1.0000   1.0000   1.0000   1.0000   1.0000   1.0000   1.0000
     1.0000   1.0000   1.0000   1.0000   1.0000   1.0000   1.0000   1.0000
     1.0000   1.0000   1.0000   1.0000   1.0000   1.0000   1.0000   1.0000
     1.0000   1.0000   1.0000   1.0000   1.0000   1.0000   1.0000   1.0000
     1.0000   1.0000   1.0000   1.0000   1.0000   1.0000   1.0000   1.0000
     1.0000   1.0000   1.0000   1.0000   1.0000   1.0000   1.0000   1.0000
     1.0000   1.0000   1.0000   1.0000   1.0000   1.0000   1.0000   1.0000
     1.0000   1.0000   1.0000   1.0000   1.0000   1.0000   1.0000   1.0000
     1.0000   1.0000   1.0000   1.0000   1.0000   1.0000   1.0000   1.0000
     1.0000   1.0000   1.0000   1.0000   1.0000   1.0000   1.0000   1.0000
     1.0000   1.0000   1.0000   1.0000   1.0000   1.0000   1.0000   1.0000
     1.0000   1.0000   1.0000   1.0000   1.0000   1.0000   1.0000   1.0000
     1.0000   1.0000   1.0000   1.0000   1.0000   1.0000   1.0000   1.0000
     1.0000   1.0000   1.0000   1.0000   1.0000   1.0000   1.0000   1.0000
     1.0000   1.0000   1.0000   1.0000   1.0000   1.0000   1.0000   1.0000

          k = 0.3333 0.1921-0.1157 ( 25902 PWs)   bands (ev):

   -67.6977 -67.6964 -67.5700 -67.2137 -67.1188 -67.1136 -34.4720 -34.4619
   -34.4495 -34.4441 -34.4361 -34.4346 -34.3325 -34.3308 -34.3036 -33.9712
   -33.9661 -33.9631 -33.8962 -33.8854 -33.8803 -33.8587 -33.8540 -33.8344
   -23.1366 -23.1179 -14.9746 -14.9370 -14.4066 -14.3838 -13.9704 -13.9502
   -13.3021 -13.2386 -13.1611 -13.1043 -13.0468 -13.0172 -12.9983 -12.9008
   -12.8722 -12.7991 -12.6687 -12.6133 -12.5203 -12.4925 -12.3041 -12.2112
   -11.2199 -11.0004  -6.7078  -6.7001  -6.6296  -6.6210  -6.5987  -6.5841
    -3.7690  -3.7614  -2.7222  -2.6469  -1.8343  -1.6706  -1.4325  -1.3503
    -0.9598  -0.8694  -0.7914  -0.7365  -0.4945  -0.3616  -0.3511  -0.2212
    -0.1992  -0.0420   0.1342   0.3093   0.4105   0.4770   0.5291   0.5518
     0.8810   0.9225   1.1570   1.2087   1.2979   1.3548   1.4657   1.4715
     1.5331   1.5861   1.7112   1.8394   1.9810   2.1428   2.2391   2.2496
     2.3175   2.4782   2.5018   2.5771   2.6370   2.6794   2.7278   2.8416
     2.8894   2.8986   2.9943   3.0381   3.1098   3.1314   3.1808   3.2714
     3.2961   3.3325   3.3902   3.4370   3.4844   3.5215   3.5395   3.5998
     3.6959   3.7543   3.8143   3.8223   4.0274   4.1493   4.2583   4.3197

     occupation numbers 
     1.0000   1.0000   1.0000   1.0000   1.0000   1.0000   1.0000   1.0000
     1.0000   1.0000   1.0000   1.0000   1.0000   1.0000   1.0000   1.0000
     1.0000   1.0000   1.0000   1.0000   1.0000   1.0000   1.0000   1.0000
     1.0000   1.0000   1.0000   1.0000   1.0000   1.0000   1.0000   1.0000
     1.0000   1.0000   1.0000   1.0000   1.0000   1.0000   1.0000   1.0000
     1.0000   1.0000   1.0000   1.0000   1.0000   1.0000   1.0000   1.0000
     1.0000   1.0000   1.0000   1.0000   1.0000   1.0000   1.0000   1.0000
     1.0000   1.0000   1.0000   1.0000   1.0000   1.0000   1.0000   1.0000
     1.0000   1.0000   1.0000   1.0000   1.0000   1.0000   1.0000   1.0000
     1.0000   1.0000   1.0000   1.0000   1.0000   1.0000   1.0000   1.0000
     1.0000   1.0000   1.0000   1.0000   1.0000   1.0000   1.0000   1.0000
     1.0000   1.0000   1.0000   1.0000   1.0000   1.0000   1.0000   1.0000
     1.0000   1.0000   1.0000   1.0000   1.0000   1.0000   1.0000   1.0000
     1.0000   1.0000   1.0000   1.0000   1.0000   1.0000   1.0000   1.0000
     1.0000   1.0000   1.0000   1.0000   1.0000   1.0000   1.0000   1.0000
     1.0000   1.0000   1.0000   1.0000   1.0000   1.0000   1.0000   1.0000

          k =-0.5000 0.0000-0.0902 ( 25894 PWs)   bands (ev):

   -67.6975 -67.6966 -67.5700 -67.2137 -67.1188 -67.1136 -34.4707 -34.4638
   -34.4489 -34.4437 -34.4359 -34.4351 -34.3324 -34.3309 -34.3037 -33.9710
   -33.9663 -33.9631 -33.8964 -33.8835 -33.8818 -33.8570 -33.8554 -33.8348
   -23.1364 -23.1178 -14.8312 -14.7881 -14.5626 -14.5232 -14.0010 -13.9650
   -13.2367 -13.1840 -13.1386 -13.1089 -13.0450 -13.0323 -12.9781 -12.9470
   -12.8908 -12.7753 -12.7165 -12.6544 -12.5658 -12.4826 -12.3092 -12.2031
   -11.2190 -11.0048  -6.7081  -6.7028  -6.6277  -6.6203  -6.5993  -6.5804
    -3.4502  -3.3788  -2.9268  -2.8521  -1.8560  -1.7522  -1.3532  -1.3439
    -1.0373  -0.9113  -0.8198  -0.7445  -0.4363  -0.3612  -0.3250  -0.2624
    -0.1041  -0.0828   0.2906   0.3092   0.3551   0.4803   0.5258   0.5400
     0.8658   0.9789   1.0635   1.1062   1.3430   1.3646   1.3760   1.3874
     1.5819   1.5934   1.7066   1.7479   1.9793   2.1147   2.2511   2.2680
     2.3106   2.4716   2.5099   2.5926   2.6700   2.6859   2.7953   2.8370
     2.9145   2.9172   2.9847   2.9879   3.0397   3.0528   3.1742   3.2108
     3.2415   3.2961   3.3843   3.3989   3.4656   3.5195   3.5489   3.6569
     3.6749   3.7435   3.8576   3.9156   3.9239   4.2105   4.2490   4.2972

     occupation numbers 
     1.0000   1.0000   1.0000   1.0000   1.0000   1.0000   1.0000   1.0000
     1.0000   1.0000   1.0000   1.0000   1.0000   1.0000   1.0000   1.0000
     1.0000   1.0000   1.0000   1.0000   1.0000   1.0000   1.0000   1.0000
     1.0000   1.0000   1.0000   1.0000   1.0000   1.0000   1.0000   1.0000
     1.0000   1.0000   1.0000   1.0000   1.0000   1.0000   1.0000   1.0000
     1.0000   1.0000   1.0000   1.0000   1.0000   1.0000   1.0000   1.0000
     1.0000   1.0000   1.0000   1.0000   1.0000   1.0000   1.0000   1.0000
     1.0000   1.0000   1.0000   1.0000   1.0000   1.0000   1.0000   1.0000
     1.0000   1.0000   1.0000   1.0000   1.0000   1.0000   1.0000   1.0000
     1.0000   1.0000   1.0000   1.0000   1.0000   1.0000   1.0000   1.0000
     1.0000   1.0000   1.0000   1.0000   1.0000   1.0000   1.0000   1.0000
     1.0000   1.0000   1.0000   1.0000   1.0000   1.0000   1.0000   1.0000
     1.0000   1.0000   1.0000   1.0000   1.0000   1.0000   1.0000   1.0000
     1.0000   1.0000   1.0000   1.0000   1.0000   1.0000   1.0000   1.0000
     1.0000   1.0000   1.0000   1.0000   1.0000   1.0000   1.0000   1.0000
     1.0000   1.0000   1.0000   1.0000   1.0000   1.0000   1.0000   1.0000

          k =-0.5000 0.0000 0.0856 ( 25921 PWs)   bands (ev):

   -67.6975 -67.6966 -67.5700 -67.2137 -67.1188 -67.1136 -34.4707 -34.4638
   -34.4489 -34.4438 -34.4359 -34.4351 -34.3324 -34.3309 -34.3037 -33.9710
   -33.9664 -33.9631 -33.8965 -33.8835 -33.8819 -33.8570 -33.8554 -33.8348
   -23.1364 -23.1178 -14.8228 -14.7970 -14.5552 -14.5308 -13.9962 -13.9700
   -13.2370 -13.1826 -13.1311 -13.0966 -13.0593 -13.0527 -12.9732 -12.9371
   -12.8884 -12.7801 -12.7085 -12.6662 -12.5472 -12.4964 -12.2994 -12.2118
   -11.2179 -11.0058  -6.7083  -6.7029  -6.6276  -6.6203  -6.5993  -6.5803
    -3.4331  -3.3965  -2.9096  -2.8718  -1.8418  -1.7684  -1.3570  -1.3326
    -1.0298  -0.8937  -0.8072  -0.7445  -0.4321  -0.3568  -0.3311  -0.2770
    -0.1608  -0.1080   0.2885   0.3469   0.3605   0.4349   0.5259   0.5819
     0.9082   0.9884   1.0383   1.1527   1.2274   1.2990   1.4265   1.4586
     1.5388   1.6115   1.7637   1.8040   1.9567   2.0942   2.2086   2.2697
     2.3270   2.4535   2.4650   2.5848   2.6664   2.6923   2.7627   2.8483
     2.9108   2.9462   2.9643   2.9889   3.0345   3.0758   3.2409   3.2548
     3.2749   3.2984   3.3540   3.3931   3.4822   3.5274   3.5500   3.5938
[...]
     atom    7 type  4   force =     0.00000000    0.00027954   -0.00000000
     atom    8 type  4   force =    -0.00000000    0.00041268   -0.00000000
     atom    9 type  6   force =     0.00254011    0.01066699    0.00630771
     atom   10 type  6   force =    -0.00254013    0.01066701   -0.00630759
     atom   11 type  6   force =     0.00047734    0.00347881   -0.01357207
     atom   12 type  6   force =    -0.00047734    0.00347881    0.01357207
     atom   13 type  6   force =    -0.00179596   -0.01189781    0.01076564
     atom   14 type  6   force =     0.00179594   -0.01189780   -0.01076573
     atom   15 type  1   force =    -0.00072427   -0.00234501   -0.01079975
     atom   16 type  1   force =     0.00072427   -0.00234501    0.01079971
     atom   17 type  5   force =    -0.00017170    0.00022390    0.00646828
     atom   18 type  5   force =     0.00017169    0.00022390   -0.00646828
     atom   19 type  5   force =    -0.00007990    0.00003378   -0.00699942
     atom   20 type  5   force =     0.00007991    0.00003378    0.00699941
     atom   21 type  5   force =     0.00005542   -0.00017276    0.00685755
     atom   22 type  5   force =    -0.00005544   -0.00017276   -0.00685755
     atom   23 type  5   force =     0.00009470    0.00004419   -0.00322134
     atom   24 type  5   force =    -0.00009471    0.00004419    0.00322134
     atom   25 type  5   force =     0.00472478   -0.00195528   -0.00576243
     atom   26 type  5   force =    -0.00472478   -0.00195527    0.00576240
     atom   27 type  5   force =    -0.00379468    0.00083793   -0.00709997
     atom   28 type  5   force =     0.00379468    0.00083793    0.00709996
     atom   29 type  5   force =    -0.00182954    0.00267300    0.00727472
     atom   30 type  5   force =     0.00182954    0.00267300   -0.00727472
     atom   31 type  5   force =     0.00109053   -0.00252823   -0.00747964
     atom   32 type  5   force =    -0.00109053   -0.00252823    0.00747967
     atom   33 type  5   force =    -0.00270539   -0.00353259   -0.00650207
     atom   34 type  5   force =     0.00270538   -0.00353258    0.00650211
     atom   35 type  5   force =     0.00098584    0.00434191    0.00646461
     atom   36 type  5   force =    -0.00098584    0.00434191   -0.00646460
     atom   37 type  5   force =     0.00003019    0.00080335    0.01121034
     atom   38 type  5   force =    -0.00003018    0.00080335   -0.01121034
     atom   39 type  5   force =     0.00011282   -0.00168692    0.01090094
     atom   40 type  5   force =    -0.00011279   -0.00168691   -0.01090092
     atom   41 type  2   force =     0.00000000    0.00000000    0.00000000
     atom   42 type  2   force =     0.00000000    0.00000000    0.00000000
     atom   43 type  2   force =     0.00000000    0.00000000    0.00000000
     atom   44 type  2   force =     0.00000000    0.00000000    0.00000000
     The Hubbard contrib.    to forces
     atom    1 type  3   force =     0.00000000    0.00000000    0.00000000
     atom    2 type  3   force =     0.00000000    0.00000000    0.00000000
     atom    3 type  4   force =     0.00000000    0.00000000    0.00000000
     atom    4 type  4   force =     0.00000000    0.00000000    0.00000000
     atom    5 type  4   force =     0.00000000    0.00000000    0.00000000
     atom    6 type  4   force =     0.00000000    0.00000000    0.00000000
     atom    7 type  4   force =     0.00000000    0.00000000    0.00000000
     atom    8 type  4   force =     0.00000000    0.00000000    0.00000000
     atom    9 type  6   force =     0.00000000    0.00000000    0.00000000
     atom   10 type  6   force =     0.00000000    0.00000000    0.00000000
     atom   11 type  6   force =     0.00000000    0.00000000    0.00000000
     atom   12 type  6   force =     0.00000000    0.00000000    0.00000000
     atom   13 type  6   force =     0.00000000    0.00000000    0.00000000
     atom   14 type  6   force =     0.00000000    0.00000000    0.00000000
     atom   15 type  1   force =     0.00000000    0.00000000    0.00000000
     atom   16 type  1   force =     0.00000000    0.00000000    0.00000000
     atom   17 type  5   force =     0.00000000    0.00000000    0.00000000
     atom   18 type  5   force =     0.00000000    0.00000000    0.00000000
     atom   19 type  5   force =     0.00000000    0.00000000    0.00000000
     atom   20 type  5   force =     0.00000000    0.00000000    0.00000000
     atom   21 type  5   force =     0.00000000    0.00000000    0.00000000
     atom   22 type  5   force =     0.00000000    0.00000000    0.00000000
     atom   23 type  5   force =     0.00000000    0.00000000    0.00000000
     atom   24 type  5   force =     0.00000000    0.00000000    0.00000000
     atom   25 type  5   force =     0.00000000    0.00000000    0.00000000
     atom   26 type  5   force =     0.00000000    0.00000000    0.00000000
     atom   27 type  5   force =     0.00000000    0.00000000    0.00000000
     atom   28 type  5   force =     0.00000000    0.00000000    0.00000000
     atom   29 type  5   force =     0.00000000    0.00000000    0.00000000
     atom   30 type  5   force =     0.00000000    0.00000000    0.00000000
     atom   31 type  5   force =     0.00000000    0.00000000    0.00000000
     atom   32 type  5   force =     0.00000000    0.00000000    0.00000000
     atom   33 type  5   force =     0.00000000    0.00000000    0.00000000
     atom   34 type  5   force =     0.00000000    0.00000000    0.00000000
     atom   35 type  5   force =     0.00000000    0.00000000    0.00000000
     atom   36 type  5   force =     0.00000000    0.00000000    0.00000000
     atom   37 type  5   force =     0.00000000    0.00000000    0.00000000
     atom   38 type  5   force =     0.00000000    0.00000000    0.00000000
     atom   39 type  5   force =     0.00000000    0.00000000    0.00000000
     atom   40 type  5   force =     0.00000000    0.00000000    0.00000000
     atom   41 type  2   force =     0.00000000    0.00000000    0.00000000
     atom   42 type  2   force =     0.00000000    0.00000000    0.00000000
     atom   43 type  2   force =     0.00000000    0.00000000    0.00000000
     atom   44 type  2   force =     0.00000000    0.00000000    0.00000000
     The SCF correction term to forces
     atom    1 type  3   force =    -0.00000000    0.00000970   -0.00000000
     atom    2 type  3   force =     0.00000000   -0.00000720   -0.00000000
     atom    3 type  4   force =    -0.00000000   -0.00004838    0.00000000
     atom    4 type  4   force =    -0.00000000   -0.00000729    0.00000000
     atom    5 type  4   force =    -0.00000000    0.00005219   -0.00000000
     atom    6 type  4   force =     0.00000000    0.00006524    0.00000000
     atom    7 type  4   force =     0.00000000   -0.00001267    0.00000000
     atom    8 type  4   force =     0.00000000   -0.00005022   -0.00000000
     atom    9 type  6   force =    -0.00000060   -0.00001776   -0.00000914
     atom   10 type  6   force =     0.00000060   -0.00001776    0.00000914
     atom   11 type  6   force =     0.00000093    0.00000741   -0.00000028
     atom   12 type  6   force =    -0.00000093    0.00000741    0.00000028
     atom   13 type  6   force =     0.00000204    0.00001939    0.00000591
     atom   14 type  6   force =    -0.00000204    0.00001939   -0.00000591
     atom   15 type  1   force =    -0.00000054   -0.00000693    0.00000733
     atom   16 type  1   force =     0.00000054   -0.00000693   -0.00000733
     atom   17 type  5   force =    -0.00000083   -0.00003122   -0.00000344
     atom   18 type  5   force =     0.00000083   -0.00003122    0.00000344
     atom   19 type  5   force =    -0.00000026    0.00000438   -0.00001982
     atom   20 type  5   force =     0.00000026    0.00000438    0.00001982
     atom   21 type  5   force =    -0.00000051    0.00002845    0.00002986
     atom   22 type  5   force =     0.00000051    0.00002845   -0.00002986
     atom   23 type  5   force =    -0.00000083   -0.00000277    0.00000595
     atom   24 type  5   force =     0.00000083   -0.00000277   -0.00000595
     atom   25 type  5   force =    -0.00000140   -0.00002370   -0.00000842
     atom   26 type  5   force =     0.00000140   -0.00002370    0.00000842
     atom   27 type  5   force =    -0.00000090   -0.00000948   -0.00001056
     atom   28 type  5   force =     0.00000090   -0.00000948    0.00001056
     atom   29 type  5   force =     0.00001131    0.00002591    0.00001080
     atom   30 type  5   force =    -0.00001131    0.00002591   -0.00001080
     atom   31 type  5   force =     0.00001459    0.00002175   -0.00001140
     atom   32 type  5   force =    -0.00001459    0.00002175    0.00001140
     atom   33 type  5   force =    -0.00000198    0.00000489   -0.00000356
     atom   34 type  5   force =     0.00000198    0.00000489    0.00000356
     atom   35 type  5   force =    -0.00000213   -0.00001575    0.00000769
     atom   36 type  5   force =     0.00000213   -0.00001575   -0.00000769
     atom   37 type  5   force =     0.00000001    0.00002649   -0.00000142
     atom   38 type  5   force =    -0.00000001    0.00002649    0.00000142
     atom   39 type  5   force =     0.00000114   -0.00002546    0.00000395
     atom   40 type  5   force =    -0.00000114   -0.00002546   -0.00000395
     atom   41 type  2   force =    -0.00000016    0.00000229   -0.00000361
     atom   42 type  2   force =     0.00000016    0.00000229    0.00000361
     atom   43 type  2   force =     0.00000009   -0.00000279   -0.00000076
     atom   44 type  2   force =    -0.00000009   -0.00000279    0.00000076

     Dispersion contribution to forces:
     atom    1 type  3   force =     0.00000000    0.00245483    0.00000000
     atom    2 type  3   force =    -0.00000000   -0.00184362   -0.00000000
     atom    3 type  4   force =    -0.00000000    0.00055253    0.00000000
     atom    4 type  4   force =    -0.00000000    0.00061363    0.00000000
     atom    5 type  4   force =    -0.00000000   -0.00139093   -0.00000000
     atom    6 type  4   force =     0.00000000   -0.00011028   -0.00000000
     atom    7 type  4   force =     0.00000000    0.00132209   -0.00000000
     atom    8 type  4   force =     0.00000000   -0.00083927    0.00000000
     atom    9 type  6   force =    -0.00019094   -0.00046466    0.00130441
     atom   10 type  6   force =     0.00019094   -0.00046466   -0.00130442
     atom   11 type  6   force =    -0.00005425    0.00025663   -0.00073563
     atom   12 type  6   force =     0.00005425    0.00025663    0.00073563
     atom   13 type  6   force =    -0.00005898    0.00049084    0.00117130
     atom   14 type  6   force =     0.00005898    0.00049084   -0.00117130
     atom   15 type  1   force =    -0.00003478   -0.00027955   -0.00330628
     atom   16 type  1   force =     0.00003478   -0.00027955    0.00330628
     atom   17 type  5   force =    -0.00017210    0.00010412    0.00039664
     atom   18 type  5   force =     0.00017210    0.00010412   -0.00039665
     atom   19 type  5   force =     0.00010239   -0.00012733   -0.00026299
     atom   20 type  5   force =    -0.00010239   -0.00012733    0.00026299
     atom   21 type  5   force =    -0.00008024   -0.00000236    0.00031389
     atom   22 type  5   force =     0.00008024   -0.00000236   -0.00031389
     atom   23 type  5   force =    -0.00016523   -0.00020981    0.00109641
     atom   24 type  5   force =     0.00016523   -0.00020981   -0.00109640
     atom   25 type  5   force =     0.00033130    0.00191899    0.00143139
     atom   26 type  5   force =    -0.00033130    0.00191899   -0.00143138
     atom   27 type  5   force =     0.00028460    0.00015077    0.00065361
     atom   28 type  5   force =    -0.00028460    0.00015077   -0.00065361
     atom   29 type  5   force =    -0.00006893    0.00020392   -0.00003072
     atom   30 type  5   force =     0.00006893    0.00020392    0.00003072
     atom   31 type  5   force =     0.00025701   -0.00038969   -0.00026782
     atom   32 type  5   force =    -0.00025701   -0.00038968    0.00026782
     atom   33 type  5   force =     0.00088983   -0.00149224    0.00102819
     atom   34 type  5   force =    -0.00088983   -0.00149224   -0.00102819
     atom   35 type  5   force =     0.00154961   -0.00037228   -0.00123095
     atom   36 type  5   force =    -0.00154961   -0.00037228    0.00123095
     atom   37 type  5   force =     0.00000847    0.00011270   -0.00236286
     atom   38 type  5   force =    -0.00000847    0.00011270    0.00236286
     atom   39 type  5   force =     0.00017417    0.00007574   -0.00250003
     atom   40 type  5   force =    -0.00017417    0.00007574    0.00250003
     atom   41 type  2   force =    -0.00000333   -0.00014450    0.00075604
     atom   42 type  2   force =     0.00000333   -0.00014450   -0.00075604
     atom   43 type  2   force =     0.00038382   -0.00021076    0.00094297
     atom   44 type  2   force =    -0.00038382   -0.00021076   -0.00094297

     Total force =     0.002029     Total SCF correction =     0.000170

     Total Dispersion Force =     0.010248


     Computing stress (Cartesian axis) and pressure

          total   stress  (Ry/bohr**3)                   (kbar)     P=       -0.11
   0.00000023   0.00000000   0.00000021            0.03        0.00        0.03
   0.00000000  -0.00000052   0.00000000            0.00       -0.08        0.00
   0.00000021   0.00000000  -0.00000195            0.03        0.00       -0.29

     kinetic stress (kbar)  19394.58      0.00     -5.27
                                0.00  19388.74      0.00
                               -5.27      0.00  19076.66

     local   stress (kbar) -34836.88      0.00    -52.08
                                0.00 -34583.89      0.00
                              -52.08      0.00  12175.30

     nonloc. stress (kbar)   5147.05      0.00     -0.50
                                0.00   5147.17      0.00
                               -0.50      0.00   5139.27

     hartree stress (kbar)  19358.97     -0.00     18.58
                               -0.00  19245.16      0.00
                               18.58      0.00  -3663.89

     exc-cor stress (kbar)  -2824.09     -0.00      0.08
                               -0.00  -2824.07      0.00
                                0.08      0.00  -2820.74

     corecor stress (kbar)  -1881.11      0.00      0.11
                                0.00  -1881.18     -0.00
                                0.11     -0.00  -1882.89

     ewald   stress (kbar)  -4326.65     -0.00     38.87
                               -0.00  -4460.18      0.00
                               38.87      0.00 -27993.29

     hubbard stress (kbar)      0.00      0.00      0.00
                                0.00      0.00      0.00
                                0.00      0.00      0.00

     DFT-D   stress (kbar)    -31.85      0.00      0.24
                                0.00    -31.82     -0.00
                                0.24     -0.00    -30.71

     XDM     stress (kbar)      0.00      0.00      0.00
                                0.00      0.00      0.00
                                0.00      0.00      0.00

     dft-nl  stress (kbar)      0.00      0.00      0.00
                                0.00      0.00      0.00
                                0.00      0.00      0.00

     TS-vdW  stress (kbar)      0.00      0.00      0.00
                                0.00      0.00      0.00
                                0.00      0.00      0.00

     MDB     stress (kbar)      0.00      0.00      0.00
                                0.00      0.00      0.00
                                0.00      0.00      0.00

     3D-RISM stress (kbar)      0.00      0.00      0.00
                                0.00      0.00      0.00
                                0.00      0.00      0.00


     Writing all to output data dir ./temp/phl-fe0.save/ :
     XML data file, charge density, pseudopotentials, collected wavefunctions

     init_run     :    217.98s CPU    228.23s WALL (       2 calls)
     electrons    :  34567.09s CPU  34967.13s WALL (       7 calls)
     update_pot   :      4.75s CPU      5.16s WALL (       5 calls)
     forces       :    493.44s CPU    497.93s WALL (       7 calls)
     force_london :      2.76s CPU      2.77s WALL (       7 calls)
     stress       :   1293.99s CPU   1311.37s WALL (       7 calls)
     stres_london :      3.50s CPU      3.53s WALL (       7 calls)

     Called by init_run:
     wfcinit      :    209.38s CPU    218.31s WALL (       2 calls)
     wfcinit:atom :      0.29s CPU      0.30s WALL (      40 calls)
     wfcinit:wfcr :    206.77s CPU    215.64s WALL (      40 calls)
     potinit      :      1.92s CPU      2.25s WALL (       2 calls)
     hinit0       :      1.01s CPU      1.14s WALL (       2 calls)

     Called by electrons:
     c_bands      :  32146.92s CPU  32452.47s WALL (      83 calls)
     sum_band     :   2153.94s CPU   2213.31s WALL (      83 calls)
     v_of_rho     :     16.74s CPU     17.38s WALL (      85 calls)
     v_h          :      1.64s CPU      1.72s WALL (      85 calls)
     v_xc         :     17.57s CPU     18.24s WALL (      99 calls)
     newd         :    212.43s CPU    240.19s WALL (      85 calls)
     PAW_pot      :     54.79s CPU     64.10s WALL (      90 calls)
     mix_rho      :      3.71s CPU      3.90s WALL (      83 calls)
     energy_londo :      2.42s CPU      2.49s WALL (       7 calls)

     Called by c_bands:
     init_us_2    :     84.27s CPU     84.80s WALL (    3740 calls)
     cegterg      :  32019.20s CPU  32321.28s WALL (    1680 calls)

     Called by sum_band:
     sum_band:wei :      0.00s CPU      0.00s WALL (      83 calls)
     sum_band:loo :   1829.24s CPU   1858.39s WALL (      83 calls)
     sum_band:buf :      9.49s CPU      9.54s WALL (    1660 calls)
     sum_band:ini :     38.41s CPU     38.62s WALL (    1660 calls)
     sum_band:cal :   1363.60s CPU   1370.28s WALL (    1760 calls)
     sum_band:bec :      2.91s CPU      2.93s WALL (    1760 calls)
     addusdens    :    320.01s CPU    348.23s WALL (      83 calls)
                                        0.00s GPU  (      83 calls)
     addusd:skk   :      2.21s CPU      2.22s WALL (     498 calls)
                                        0.00s GPU  (     498 calls)

     Called by *egterg:
     cdiaghg      :    974.04s CPU    977.57s WALL (   10905 calls)
     cegterg:over :   3673.90s CPU   3720.52s WALL (    9445 calls)
     cegterg:upda :   2270.96s CPU   2274.70s WALL (    9445 calls)
     cegterg:last :   6503.60s CPU   6514.41s WALL (    6320 calls)
     h_psi        :  12848.83s CPU  13042.33s WALL (   11165 calls)
     s_psi        :   5049.66s CPU   5058.25s WALL (   11165 calls)
     g_psi        :     13.08s CPU     13.14s WALL (    9445 calls)

     Called by h_psi:
     h_psi:calbec :   5040.60s CPU   5068.32s WALL (   11165 calls)
     vloc_psi     :   2719.23s CPU   2876.14s WALL (   11165 calls)
     add_vuspsi   :   5051.59s CPU   5060.10s WALL (   11165 calls)

     General routines
     calbec       :   6946.52s CPU   6984.54s WALL (   13625 calls)
     fft          :     14.26s CPU     15.48s WALL (    1276 calls)
     ffts         :      0.57s CPU      0.59s WALL (     168 calls)
     fftw         :   1955.61s CPU   2066.44s WALL ( 1877964 calls)
     interpolate  :      1.57s CPU      1.68s WALL (      85 calls)

     Parallel routines

     PAW routines
     PAW_pot      :     54.79s CPU     64.10s WALL (      90 calls)
     PAW_symme    :      0.05s CPU      0.05s WALL (     173 calls)

     PWSCF        :     10h11m CPU     10h18m WALL


   This run was terminated on:   8:17: 6  17Dec2024            

=------------------------------------------------------------------------------=
   JOB DONE.
=------------------------------------------------------------------------------=
