
     Program PWSCF v.7.3.1 starts on 24Jan2025 at 14:37: 1 

     This program is part of the open-source Quantum ESPRESSO suite
     for quantum simulation of materials; please cite
         "P. Giannozzi et al., J. Phys.:Condens. Matter 21 395502 (2009);
         "P. Giannozzi et al., J. Phys.:Condens. Matter 29 465901 (2017);
         "P. Giannozzi et al., J. Chem. Phys. 152 154105 (2020);
          URL http://www.quantum-espresso.org", 
     in publications or presentations arising from this work. More details at
     http://www.quantum-espresso.org/quote

     Parallel version (MPI), running on     6 processors

     MPI processes distributed on     1 nodes
     422 MiB available memory on the printing compute node when the environment starts

     Reading input from relax.in
Warning: card  &CELL ignored
Warning: card    CELL_DOFREE     = 'IBRAV' ignored
Warning: card  / ignored

     Current dimensions of program PWSCF are:
     Max number of different atomic species (ntypx) = 10
     Max number of k-points (npk) =  40000
     Max angular momentum in pseudopotentials (lmaxx) =  4
     file Al.pbe-n-kjpaw_psl.1.0.0.UPF: wavefunction(s)  3S 3P renormalized
     file Fe.pbe-spn-kjpaw_psl.1.0.0.UPF: wavefunction(s)  3P 3D renormalized
     file H.pbe-kjpaw_psl.1.0.0.UPF: wavefunction(s)  1S renormalized
     file K.pbe-spn-kjpaw_psl.1.0.0.UPF: wavefunction(s)  3S renormalized
     file Mg.pbe-spnl-kjpaw_psl.1.0.0.UPF: wavefunction(s)  2P renormalized
     file O.pbe-n-kjpaw_psl.1.0.0.UPF: wavefunction(s)  2S 2P renormalized
     file Si.pbe-n-kjpaw_psl.1.0.0.UPF: wavefunction(s)  3S 3P renormalized

     R & G space division:  proc/nbgrp/npool/nimage =       6
     Subspace diagonalization in iterative solution of the eigenvalue problem:
     one sub-group per band group will be used
     custom distributed-memory algorithm (size of sub-group:  2*  2 procs)


     Parallelization info
     --------------------
     sticks:   dense  smooth     PW     G-vecs:    dense   smooth      PW
     Min        1105     554    150                97744    34578    4918
     Max        1106     555    151                97745    34580    4920
     Sum        6633    3329    905               586467   207475   29511

     Using Slab Decomposition



     bravais-lattice index     =          -12
     lattice parameter (alat)  =      10.0136  a.u.
     unit-cell volume          =    3303.4414 (a.u.)^3
     number of atoms/cell      =           44
     number of atomic types    =            7
     number of electrons       =       262.00
     number of Kohn-Sham states=          157
     kinetic-energy cutoff     =      60.0000  Ry
     charge density cutoff     =     480.0000  Ry
     scf convergence threshold =      1.0E-06
     mixing beta               =       0.7000
     number of iterations used =            8  plain     mixing
     energy convergence thresh.=      1.0E-04
     force convergence thresh. =      1.0E-03
     Exchange-correlation= SLA  PW   PBX  PBC
                           (   1   4   3   4   0   0   0)
     nstep                     =           50


     celldm(1)=  10.013640  celldm(2)=   1.735306  celldm(3)=   1.926511
     celldm(4)=   0.000000  celldm(5)=  -0.177565  celldm(6)=   0.000000

     crystal axes: (cart. coord. in units of alat)
               a(1) = (   1.000000   0.000000   0.000000 )  
               a(2) = (   0.000000   1.735306   0.000000 )  
               a(3) = (  -0.342081   0.000000   1.895896 )  

     reciprocal axes: (cart. coord. in units 2 pi/alat)
               b(1) = (  1.000000 -0.000000  0.180432 )  
               b(2) = (  0.000000  0.576267 -0.000000 )  
               b(3) = (  0.000000  0.000000  0.527455 )  


     PseudoPot. # 1 for Al read from file:
     ./../../../pseudos/Al.pbe-n-kjpaw_psl.1.0.0.UPF
     MD5 check sum: 502b6b27b9c6270cab5dd1084b96fa6d
     Pseudo is Projector augmented-wave + core cor, Zval =  3.0
     Generated using &quot;atomic&quot; code by A. Dal Corso  v.6.3
     Shape of augmentation charge: PSQ
     Using radial grid of 1135 points,  6 beta functions with: 
                l(1) =   0
                l(2) =   0
                l(3) =   1
                l(4) =   1
                l(5) =   2
                l(6) =   2
     Q(r) pseudized with 0 coefficients 


     PseudoPot. # 2 for Fe read from file:
     ./../../../pseudos/Fe.pbe-spn-kjpaw_psl.1.0.0.UPF
     MD5 check sum: fc81f059e5c5069939230b1155715ae8
     Pseudo is Projector augmented-wave + core cor, Zval = 16.0
     Generated using &quot;atomic&quot; code by A. Dal Corso  v.6.3
     Shape of augmentation charge: PSQ
     Using radial grid of 1191 points,  6 beta functions with: 
                l(1) =   0
                l(2) =   0
                l(3) =   1
                l(4) =   1
                l(5) =   2
                l(6) =   2
     Q(r) pseudized with 0 coefficients 


     PseudoPot. # 3 for H  read from file:
     ./../../../pseudos/H.pbe-kjpaw_psl.1.0.0.UPF
     MD5 check sum: d81a744832360e4a8af0b0b5b123bc2a
     Pseudo is Projector augmented-wave, Zval =  1.0
     Generated using &quot;atomic&quot; code by A. Dal Corso  v.6.3MaX
     Shape of augmentation charge: PSQ
     Using radial grid of  929 points,  2 beta functions with: 
                l(1) =   0
                l(2) =   0
     Q(r) pseudized with 0 coefficients 


     PseudoPot. # 4 for K  read from file:
     ./../../../pseudos/K.pbe-spn-kjpaw_psl.1.0.0.UPF
     MD5 check sum: 34cc42130a09071ebe376fd42eb21491
     Pseudo is Projector augmented-wave + core cor, Zval =  9.0
     Generated using &quot;atomic&quot; code by A. Dal Corso  v.6.2.2
     Shape of augmentation charge: PSQ
     Using radial grid of 1165 points,  6 beta functions with: 
                l(1) =   0
                l(2) =   0
                l(3) =   1
                l(4) =   1
                l(5) =   2
                l(6) =   2
     Q(r) pseudized with 0 coefficients 


     PseudoPot. # 5 for Mg read from file:
     ./../../../pseudos/Mg.pbe-spnl-kjpaw_psl.1.0.0.UPF
     MD5 check sum: fda14e0d92a6a9a5ebed782e5a4b3067
     Pseudo is Projector augmented-wave + core cor, Zval = 10.0
     Generated using &quot;atomic&quot; code by A. Dal Corso  v.6.3
     Shape of augmentation charge: PSQ
     Using radial grid of 1129 points,  4 beta functions with: 
                l(1) =   0
                l(2) =   0
                l(3) =   1
                l(4) =   1
     Q(r) pseudized with 0 coefficients 


     PseudoPot. # 6 for O  read from file:
     ./../../../pseudos/O.pbe-n-kjpaw_psl.1.0.0.UPF
     MD5 check sum: e99d9cef9b487d1ca56f5b95ecd0fd7a
     Pseudo is Projector augmented-wave + core cor, Zval =  6.0
     Generated using &quot;atomic&quot; code by A. Dal Corso  v.6.3
     Shape of augmentation charge: PSQ
     Using radial grid of 1095 points,  4 beta functions with: 
                l(1) =   0
                l(2) =   0
                l(3) =   1
                l(4) =   1
     Q(r) pseudized with 0 coefficients 


     PseudoPot. # 7 for Si read from file:
     ./../../../pseudos/Si.pbe-n-kjpaw_psl.1.0.0.UPF
     MD5 check sum: c39c59da582df4a0d9f10159256ea34e
     Pseudo is Projector augmented-wave + core cor, Zval =  4.0
     Generated using &quot;atomic&quot; code by A. Dal Corso  v.6.3
     Shape of augmentation charge: PSQ
     Using radial grid of 1141 points,  6 beta functions with: 
                l(1) =   0
                l(2) =   0
                l(3) =   1
                l(4) =   1
                l(5) =   2
                l(6) =   2
     Q(r) pseudized with 0 coefficients 


     atomic species   valence    mass     pseudopotential
     Al                3.00    26.98154     Al( 1.00)
     Fe               16.00    55.84500     Fe( 1.00)
     H                 1.00     1.00794     H ( 1.00)
     K                 9.00    39.09830     K ( 1.00)
     Mg               10.00    24.30500     Mg( 1.00)
     O                 6.00    15.99940     O ( 1.00)
     Si                4.00    28.08550     Si( 1.00)

     Starting magnetic structure 
     atomic species   magnetization
     Al              0.000
     Fe              0.300
     H               0.000
     K               0.000
     Mg              0.000
     O               0.000
     Si              0.000

      2 Sym. Ops. (no inversion) found


                                    s                        frac. trans.

      isym =  1     identity                                     

 cryst.   s( 1) = (     1          0          0      )
                  (     0          1          0      )
                  (     0          0          1      )

 cart.    s( 1) = (  1.0000000  0.0000000 -0.0000000 )
                  (  0.0000000  1.0000000  0.0000000 )
                  (  0.0000000  0.0000000  1.0000000 )


      isym =  2     180 deg rotation - cart. axis [0,1,0]        

 cryst.   s( 2) = (    -1          0          0      )
                  (     0          1          0      )
                  (     0          0         -1      )

 cart.    s( 2) = ( -1.0000000  0.0000000  0.0000000 )
                  (  0.0000000  1.0000000  0.0000000 )
                  (  0.0000000  0.0000000 -1.0000000 )


     point group C_2  (2)   
     there are  2 classes
     the character table:

       E     C2   
A      1.00  1.00
B      1.00 -1.00

     the symmetry operations in each class and the name of the first element:

     E        1
          identity                                               
     C2       2
          180 deg rotation - cart. axis [0,1,0]                  

   Cartesian axes

     site n.     atom                  positions (alat units)
         1        K      tau(   1) = (   0.0000000   0.8559224   0.0000000  )
         2        K      tau(   2) = (   0.5000000   0.0093568   0.0000000  )
         3        Mg     tau(   3) = (  -0.1710407   0.0067712   0.9479482  )
         4        Mg     tau(   4) = (  -0.1710407   0.5780843   0.9479482  )
         5        Mg     tau(   5) = (  -0.1710407   1.1543881   0.9479482  )
         6        Mg     tau(   6) = (   0.3289593   1.4480089   0.9479482  )
         7        Mg     tau(   7) = (   0.3289593   0.2986375   0.9479482  )
         8        Si     tau(   8) = (   0.0066674   0.2865251   0.4219393  )
         9        Si     tau(   9) = (   0.6512512   0.2865251   1.4739571  )
        10        Si     tau(  10) = (   0.6701371   1.4476688   1.4628623  )
        11        Si     tau(  11) = (  -0.0122184   1.4476688   0.4330341  )
        12        Si     tau(  12) = (   0.4872056   1.1568454   0.4292651  )
        13        Si     tau(  13) = (   0.1707131   1.1568454   1.4666313  )
        14        Al     tau(  14) = (   0.1506005   0.5746762   1.4713786  )
        15        Al     tau(  15) = (   0.5073182   0.5746762   0.4245178  )
        16        O      tau(  16) = (  -0.0043508   0.2833738   0.7297400  )
        17        O      tau(  17) = (   0.6622695   0.2833738   1.1661564  )
        18        O      tau(  18) = (   0.6658139   1.4451231   1.1576912  )
        19        O      tau(  19) = (  -0.0078952   1.4451231   0.7382052  )
        20        O      tau(  20) = (   0.4926234   1.1618863   0.7357690  )
        21        O      tau(  21) = (   0.1652953   1.1618863   1.1601274  )
        22        O      tau(  22) = (   0.1548298   0.5779784   1.1454267  )
        23        O      tau(  23) = (   0.5030889   0.5779784   0.7504697  )
        24        O      tau(  24) = (   0.2847398   0.3548857   0.3143567  )
        25        O      tau(  25) = (   0.3731789   0.3548857   1.5815397  )
        26        O      tau(  26) = (   0.9404978   1.7303189   0.3181314  )
        27        O      tau(  27) = (  -0.2825791   1.7303189   1.5777650  )
        28        O      tau(  28) = (   0.3988927   1.3439356   1.5754330  )
        29        O      tau(  29) = (   0.2590260   1.3439356   0.3204634  )
        30        O      tau(  30) = (   0.7582660   1.2710892   0.3185125  )
        31        O      tau(  31) = (  -0.1003473   1.2710892   1.5773839  )
        32        O      tau(  32) = (   0.4432368   0.8811364   0.3085875  )
        33        O      tau(  33) = (   0.2146819   0.8811364   1.5873090  )
        34        O      tau(  34) = (  -0.1423236   0.4782556   1.5925436  )
        35        O      tau(  35) = (   0.8002423   0.4782556   0.3033529  )
        36        O      tau(  36) = (  -0.0041068   0.8750247   0.7469263  )
        37        O      tau(  37) = (   0.6620255   0.8750247   1.1489701  )
        38        O      tau(  38) = (   0.4966158   1.7335917   0.7534577  )
        39        O      tau(  39) = (   0.1613029   1.7335917   1.1424387  )
        40        H      tau(  40) = (  -0.0032097   0.8603995   0.5673129  )
        41        H      tau(  41) = (   0.6611284   0.8603995   1.3285835  )
        42        H      tau(  42) = (   0.4926802   0.0219534   0.5746291  )
        43        H      tau(  43) = (   0.1652385   0.0219534   1.3212673  )
        44        Fe     tau(  44) = (   0.3289593   0.8562226   0.9479482  )

     --------------------------------------------
     DFT-D3 Dispersion Correction (3-body terms):
     --------------------------------------------
       Reference C6 values for interpolation: 

         atom   Coordination number   C6
         H          0.912             6.05
         H          0.000            15.18
         O          0.000            31.01
         O          0.993            25.63
         O          1.989            20.74
         Mg         0.000          1366.75
         Mg         0.963           902.54
         Mg         1.950           351.12
         Al         0.000          1081.08
         Al         0.965           875.51
         Al         1.931           513.50
         Al         2.915           307.19
         Si         0.000           635.71
         Si         0.951           540.53
         Si         1.944           466.25
         Si         2.941           443.01
         Si         3.868           299.55
         K          0.000          9967.00
         K          0.977           676.04
         Fe         0.000           982.67
         Fe         1.648           409.99
         Fe         9.138           219.01

       Values used:

         atom   Coordination number  R0_AB[au]  C6      C8
         K         13.591            4.007    676.04 129074.98
         K         13.829            4.007    676.04 129074.98
         Mg        11.856            3.292    351.12  31436.69
         Mg        11.610            3.292    351.12  31436.69
         Mg        11.152            3.292    351.12  31436.69
         Mg        11.428            3.292    351.12  31436.69
         Mg        11.977            3.292    351.12  31436.69
         Si         6.964            3.583    299.55  21425.58
         Si         6.964            3.583    299.55  21425.58
         Si         6.542            3.583    299.55  21425.58
         Si         6.542            3.583    299.55  21425.58
         Si         6.428            3.583    299.55  21425.58
         Si         6.428            3.583    299.55  21425.58
         Al         7.632            3.789    307.19  29441.29
         Al         7.632            3.789    307.19  29441.29
         O          3.926            2.345     20.74    418.58
         O          3.926            2.345     20.74    418.58
         O          3.926            2.345     20.74    418.58
         O          3.926            2.345     20.74    418.58
         O          3.612            2.345     20.74    418.58
         O          3.612            2.345     20.74    418.58
         O          3.839            2.345     20.74    418.58
         O          3.839            2.345     20.74    418.58
         O          3.191            2.345     20.74    418.58
         O          3.191            2.345     20.74    418.58
         O          3.154            2.345     20.74    418.58
         O          3.154            2.345     20.74    418.58
         O          3.055            2.345     20.74    418.58
         O          3.055            2.345     20.74    418.58
         O          3.059            2.345     20.74    418.58
         O          3.059            2.345     20.74    418.58
         O          3.181            2.345     20.74    418.58
         O          3.181            2.345     20.74    418.58
         O          3.263            2.345     20.74    418.58
         O          3.263            2.345     20.74    418.58
         O          3.812            2.345     20.74    418.58
         O          3.812            2.345     20.74    418.58
         O          4.003            2.345     20.74    418.58
         O          4.003            2.345     20.74    418.58
         H          1.299            2.062      6.07     73.35
         H          1.299            2.062      6.07     73.35
         H          1.300            2.062      6.07     73.35
         H          1.300            2.062      6.07     73.35
         Fe         7.971            3.252    219.01  20487.87

         Molecular C6 ( Ry / a.u.^6 ) =    165305.20


   Crystallographic axes

     site n.     atom                  positions (cryst. coord.)
         1        K      tau(   1) = (  0.0000000  0.4932400  0.0000000  )
         2        K      tau(   2) = (  0.5000000  0.0053920  0.0000000  )
         3        Mg     tau(   3) = (  0.0000000  0.0039020  0.5000000  )
         4        Mg     tau(   4) = (  0.0000000  0.3331310  0.5000000  )
         5        Mg     tau(   5) = (  0.0000000  0.6652360  0.5000000  )
         6        Mg     tau(   6) = (  0.5000000  0.8344400  0.5000000  )
         7        Mg     tau(   7) = (  0.5000000  0.1720950  0.5000000  )
         8        Si     tau(   8) = (  0.0827990  0.1651150  0.2225540  )
         9        Si     tau(   9) = (  0.9172010  0.1651150  0.7774460  )
        10        Si     tau(  10) = (  0.9340850  0.8342440  0.7715940  )
        11        Si     tau(  11) = (  0.0659150  0.8342440  0.2284060  )
        12        Si     tau(  12) = (  0.5646590  0.6666520  0.2264180  )
        13        Si     tau(  13) = (  0.4353410  0.6666520  0.7735820  )
        14        Al     tau(  14) = (  0.4160850  0.3311670  0.7760860  )
        15        Al     tau(  15) = (  0.5839150  0.3311670  0.2239140  )
        16        O      tau(  16) = (  0.1273180  0.1632990  0.3849050  )
        17        O      tau(  17) = (  0.8726820  0.1632990  0.6150950  )
        18        O      tau(  18) = (  0.8746990  0.8327770  0.6106300  )
        19        O      tau(  19) = (  0.1253010  0.8327770  0.3893700  )
        20        O      tau(  20) = (  0.6253800  0.6695570  0.3880850  )
        21        O      tau(  21) = (  0.3746200  0.6695570  0.6119150  )
        22        O      tau(  22) = (  0.3615020  0.3330700  0.6041610  )
        23        O      tau(  23) = (  0.6384980  0.3330700  0.3958390  )
        24        O      tau(  24) = (  0.3414600  0.2045090  0.1658090  )
        25        O      tau(  25) = (  0.6585400  0.2045090  0.8341910  )
        26        O      tau(  26) = (  0.9978990  0.9971260  0.1678000  )
        27        O      tau(  27) = (  0.0021010  0.9971260  0.8322000  )
        28        O      tau(  28) = (  0.6831520  0.7744660  0.8309700  )
        29        O      tau(  29) = (  0.3168480  0.7744660  0.1690300  )
        30        O      tau(  30) = (  0.8157360  0.7324870  0.1680010  )
        31        O      tau(  31) = (  0.1842640  0.7324870  0.8319990  )
        32        O      tau(  32) = (  0.4989160  0.5077700  0.1627660  )
        33        O      tau(  33) = (  0.5010840  0.5077700  0.8372340  )
        34        O      tau(  34) = (  0.1450230  0.2756030  0.8399950  )
        35        O      tau(  35) = (  0.8549770  0.2756030  0.1600050  )
        36        O      tau(  36) = (  0.1306630  0.5042480  0.3939700  )
        37        O      tau(  37) = (  0.8693370  0.5042480  0.6060300  )
        38        O      tau(  38) = (  0.6325640  0.9990120  0.3974150  )
        39        O      tau(  39) = (  0.3674360  0.9990120  0.6025850  )
        40        H      tau(  40) = (  0.0991520  0.4958200  0.2992320  )
        41        H      tau(  41) = (  0.9008480  0.4958200  0.7007680  )
        42        H      tau(  42) = (  0.5963620  0.0126510  0.3030910  )
        43        H      tau(  43) = (  0.4036380  0.0126510  0.6969090  )
        44        Fe     tau(  44) = (  0.5000000  0.4934130  0.5000000  )

     number of k points=    20  Gaussian smearing, width (Ry)=  0.0010
                       cart. coord. in units 2pi/alat
        k(    1) = (   0.0000000   0.0000000   0.0000000), wk =   0.0185185
        k(    2) = (   0.0000000   0.0000000   0.1758183), wk =   0.0370370
        k(    3) = (   0.0000000   0.1920891   0.0000000), wk =   0.0370370
        k(    4) = (   0.0000000   0.1920891   0.1758183), wk =   0.0740741
        k(    5) = (   0.1666667   0.0000000   0.0300721), wk =   0.0370370
        k(    6) = (   0.1666667   0.0000000   0.2058904), wk =   0.0370370
        k(    7) = (   0.1666667   0.0000000  -0.1457462), wk =   0.0370370
        k(    8) = (   0.1666667   0.1920891   0.0300721), wk =   0.0740741
        k(    9) = (   0.1666667   0.1920891   0.2058904), wk =   0.0740741
        k(   10) = (   0.1666667   0.1920891  -0.1457462), wk =   0.0740741
        k(   11) = (   0.3333333   0.0000000   0.0601442), wk =   0.0370370
        k(   12) = (   0.3333333   0.0000000   0.2359625), wk =   0.0370370
        k(   13) = (   0.3333333   0.0000000  -0.1156742), wk =   0.0370370
        k(   14) = (   0.3333333   0.1920891   0.0601442), wk =   0.0740741
        k(   15) = (   0.3333333   0.1920891   0.2359625), wk =   0.0740741
        k(   16) = (   0.3333333   0.1920891  -0.1156742), wk =   0.0740741
        k(   17) = (  -0.5000000   0.0000000  -0.0902162), wk =   0.0185185
        k(   18) = (  -0.5000000   0.0000000   0.0856021), wk =   0.0370370
        k(   19) = (  -0.5000000   0.1920891  -0.0902162), wk =   0.0370370
        k(   20) = (  -0.5000000   0.1920891   0.0856021), wk =   0.0740741

                       cryst. coord.
        k(    1) = (   0.0000000   0.0000000   0.0000000), wk =   0.0185185
        k(    2) = (   0.0000000   0.0000000   0.3333333), wk =   0.0370370
        k(    3) = (   0.0000000   0.3333333   0.0000000), wk =   0.0370370
        k(    4) = (   0.0000000   0.3333333   0.3333333), wk =   0.0740741
        k(    5) = (   0.1666667   0.0000000  -0.0000000), wk =   0.0370370
        k(    6) = (   0.1666667   0.0000000   0.3333333), wk =   0.0370370
        k(    7) = (   0.1666667   0.0000000  -0.3333333), wk =   0.0370370
        k(    8) = (   0.1666667   0.3333333  -0.0000000), wk =   0.0740741
        k(    9) = (   0.1666667   0.3333333   0.3333333), wk =   0.0740741
        k(   10) = (   0.1666667   0.3333333  -0.3333333), wk =   0.0740741
        k(   11) = (   0.3333333   0.0000000  -0.0000000), wk =   0.0370370
        k(   12) = (   0.3333333   0.0000000   0.3333333), wk =   0.0370370
        k(   13) = (   0.3333333   0.0000000  -0.3333333), wk =   0.0370370
        k(   14) = (   0.3333333   0.3333333  -0.0000000), wk =   0.0740741
        k(   15) = (   0.3333333   0.3333333   0.3333333), wk =   0.0740741
        k(   16) = (   0.3333333   0.3333333  -0.3333333), wk =   0.0740741
        k(   17) = (  -0.5000000   0.0000000   0.0000000), wk =   0.0185185
        k(   18) = (  -0.5000000   0.0000000   0.3333333), wk =   0.0370370
        k(   19) = (  -0.5000000   0.3333333   0.0000000), wk =   0.0370370
        k(   20) = (  -0.5000000   0.3333333   0.3333333), wk =   0.0740741

     Dense  grid:   586467 G-vectors     FFT dimensions: (  72, 125, 135)

     Smooth grid:   207475 G-vectors     FFT dimensions: (  50,  90,  96)

     Dynamical RAM for                 wfc:      10.35 MB

     Dynamical RAM for     wfc (w. buffer):     424.41 MB

     Dynamical RAM for           str. fact:      10.44 MB

     Dynamical RAM for           local pot:       0.00 MB

     Dynamical RAM for          nlocal pot:      28.88 MB

     Dynamical RAM for                qrad:      12.30 MB

     Dynamical RAM for          rho,v,vnew:      18.42 MB

     Dynamical RAM for               rhoin:       6.14 MB

     Dynamical RAM for            rho*nmix:      47.73 MB

     Dynamical RAM for           G-vectors:       5.86 MB

     Dynamical RAM for          h,s,v(r/c):       1.13 MB

     Dynamical RAM for          <psi|beta>:       1.05 MB

     Dynamical RAM for                 psi:      20.70 MB

     Dynamical RAM for                hpsi:      20.70 MB

     Dynamical RAM for                spsi:      20.70 MB

     Dynamical RAM for      wfcinit/wfcrot:      24.90 MB

     Dynamical RAM for           addusdens:     314.70 MB

     Dynamical RAM for          addusforce:     383.50 MB

     Estimated static dynamical RAM per process >     527.86 MB

     Estimated max dynamical RAM per process >     959.09 MB

     Estimated total dynamical RAM >       5.62 GB

     Check: negative core charge=   -0.000004
     Generating pointlists ...
     new r_m :   0.1345 (alat units)  1.3466 (a.u.) for type    1
     new r_m :   0.1580 (alat units)  1.5823 (a.u.) for type    2
     new r_m :   0.0743 (alat units)  0.7444 (a.u.) for type    3
     new r_m :   0.2122 (alat units)  2.1246 (a.u.) for type    4
     new r_m :   0.1572 (alat units)  1.5739 (a.u.) for type    5
     new r_m :   0.0743 (alat units)  0.7444 (a.u.) for type    6
     new r_m :   0.1255 (alat units)  1.2564 (a.u.) for type    7

     Initial potential from superposition of free atoms

     starting charge     261.9493, renormalised to     262.0000
     Starting wfcs are  183 randomized atomic wfcs
     Checking if some PAW data can be deallocated... 
       PAW data deallocated on    5 nodes for type:  1
       PAW data deallocated on    5 nodes for type:  2
       PAW data deallocated on    5 nodes for type:  3
       PAW data deallocated on    5 nodes for type:  4
       PAW data deallocated on    5 nodes for type:  5
       PAW data deallocated on    1 nodes for type:  6
       PAW data deallocated on    4 nodes for type:  7

     total cpu time spent up to now is       74.2 secs

     Self-consistent Calculation

     iteration #  1     ecut=    60.00 Ry     beta= 0.70
     Davidson diagonalization with overlap

---- Real-time Memory Report at c_bands before calling an iterative solver
           600 MiB given to the printing process from OS
             0 MiB allocation reported by mallinfo(arena+hblkhd)
           444 MiB available memory on the node where the printing process lives
------------------
     ethr =  1.00E-02,  avg # of iterations =  5.9

     total cpu time spent up to now is      318.9 secs

     total energy              =   -2623.68040842 Ry
     estimated scf accuracy    <      12.45489200 Ry

     total magnetization       =     4.00 Bohr mag/cell
     absolute magnetization    =     4.05 Bohr mag/cell

     iteration #  2     ecut=    60.00 Ry     beta= 0.70
     Davidson diagonalization with overlap

---- Real-time Memory Report at c_bands before calling an iterative solver
           873 MiB given to the printing process from OS
             0 MiB allocation reported by mallinfo(arena+hblkhd)
          1759 MiB available memory on the node where the printing process lives
------------------
     ethr =  4.75E-03,  avg # of iterations =  5.2

     total cpu time spent up to now is      782.1 secs

     total energy              =   -2629.08709399 Ry
     estimated scf accuracy    <      11.72487306 Ry

     total magnetization       =     4.00 Bohr mag/cell
     absolute magnetization    =     4.29 Bohr mag/cell

     iteration #  3     ecut=    60.00 Ry     beta= 0.70
     Davidson diagonalization with overlap

---- Real-time Memory Report at c_bands before calling an iterative solver
           875 MiB given to the printing process from OS
             0 MiB allocation reported by mallinfo(arena+hblkhd)
          1762 MiB available memory on the node where the printing process lives
------------------
     ethr =  4.48E-03,  avg # of iterations =  2.0

     negative rho (up, down):  0.000E+00 1.766E-05

     total cpu time spent up to now is     1061.2 secs

     total energy              =   -2630.03732018 Ry
     estimated scf accuracy    <       2.65136374 Ry

     total magnetization       =     5.05 Bohr mag/cell
     absolute magnetization    =     5.37 Bohr mag/cell

     iteration #  4     ecut=    60.00 Ry     beta= 0.70
     Davidson diagonalization with overlap

---- Real-time Memory Report at c_bands before calling an iterative solver
           878 MiB given to the printing process from OS
             0 MiB allocation reported by mallinfo(arena+hblkhd)
          1769 MiB available memory on the node where the printing process lives
------------------
     ethr =  1.01E-03,  avg # of iterations =  4.7

     negative rho (up, down):  0.000E+00 1.081E-04

     total cpu time spent up to now is     1459.2 secs

     total energy              =   -2631.06759661 Ry
     estimated scf accuracy    <       0.39731251 Ry

     total magnetization       =     4.00 Bohr mag/cell
     absolute magnetization    =     4.10 Bohr mag/cell

     iteration #  5     ecut=    60.00 Ry     beta= 0.70
     Davidson diagonalization with overlap

---- Real-time Memory Report at c_bands before calling an iterative solver
           880 MiB given to the printing process from OS
             0 MiB allocation reported by mallinfo(arena+hblkhd)
          1760 MiB available memory on the node where the printing process lives
------------------
     c_bands:  2 eigenvalues not converged
     c_bands:  1 eigenvalues not converged
     c_bands:  1 eigenvalues not converged
     c_bands:  2 eigenvalues not converged
     c_bands:  1 eigenvalues not converged
     c_bands:  1 eigenvalues not converged
     c_bands:  1 eigenvalues not converged
     ethr =  1.52E-04,  avg # of iterations = 14.9

     negative rho (up, down):  0.000E+00 3.068E-04

     total cpu time spent up to now is     1945.6 secs

     total energy              =   -2631.22036027 Ry
     estimated scf accuracy    <       0.07858471 Ry

     total magnetization       =     4.00 Bohr mag/cell
     absolute magnetization    =     4.09 Bohr mag/cell

     iteration #  6     ecut=    60.00 Ry     beta= 0.70
     Davidson diagonalization with overlap

---- Real-time Memory Report at c_bands before calling an iterative solver
           882 MiB given to the printing process from OS
             0 MiB allocation reported by mallinfo(arena+hblkhd)
          1773 MiB available memory on the node where the printing process lives
------------------
     c_bands:  2 eigenvalues not converged
     c_bands:  2 eigenvalues not converged
     c_bands:  1 eigenvalues not converged
     c_bands:  2 eigenvalues not converged
     c_bands:  1 eigenvalues not converged
     c_bands:  3 eigenvalues not converged
     c_bands:  1 eigenvalues not converged
     c_bands:  3 eigenvalues not converged
     c_bands:  1 eigenvalues not converged
     c_bands:  1 eigenvalues not converged
     c_bands:  2 eigenvalues not converged
     c_bands:  2 eigenvalues not converged
     c_bands:  1 eigenvalues not converged
     c_bands:  3 eigenvalues not converged
     c_bands:  3 eigenvalues not converged
     ethr =  3.00E-05,  avg # of iterations = 17.3

     negative rho (up, down):  0.000E+00 3.088E-04

     total cpu time spent up to now is     2479.4 secs

     total energy              =   -2631.23562808 Ry
     estimated scf accuracy    <       0.04941555 Ry

     total magnetization       =     4.00 Bohr mag/cell
     absolute magnetization    =     4.07 Bohr mag/cell

     iteration #  7     ecut=    60.00 Ry     beta= 0.70
     Davidson diagonalization with overlap

---- Real-time Memory Report at c_bands before calling an iterative solver
           885 MiB given to the printing process from OS
             0 MiB allocation reported by mallinfo(arena+hblkhd)
          1769 MiB available memory on the node where the printing process lives
------------------
     c_bands:  1 eigenvalues not converged
     c_bands:  2 eigenvalues not converged
     c_bands:  1 eigenvalues not converged
     c_bands:  1 eigenvalues not converged
     c_bands:  1 eigenvalues not converged
     ethr =  1.89E-05,  avg # of iterations =  5.2

     negative rho (up, down):  0.000E+00 3.016E-04

     total cpu time spent up to now is     2792.2 secs

     total energy              =   -2631.23352780 Ry
     estimated scf accuracy    <       0.02293013 Ry

     total magnetization       =     4.00 Bohr mag/cell
     absolute magnetization    =     4.06 Bohr mag/cell

     iteration #  8     ecut=    60.00 Ry     beta= 0.70
     Davidson diagonalization with overlap

---- Real-time Memory Report at c_bands before calling an iterative solver
           887 MiB given to the printing process from OS
             0 MiB allocation reported by mallinfo(arena+hblkhd)
          1746 MiB available memory on the node where the printing process lives
------------------
     c_bands:  1 eigenvalues not converged
     c_bands:  1 eigenvalues not converged
     c_bands:  1 eigenvalues not converged
     c_bands:  2 eigenvalues not converged
     c_bands:  1 eigenvalues not converged
     c_bands:  1 eigenvalues not converged
     c_bands:  1 eigenvalues not converged
     c_bands:  1 eigenvalues not converged
     c_bands:  1 eigenvalues not converged
     c_bands:  1 eigenvalues not converged
     ethr =  8.75E-06,  avg # of iterations = 11.5

     negative rho (up, down):  0.000E+00 2.960E-04

     total cpu time spent up to now is     3173.0 secs

     total energy              =   -2631.23515425 Ry
     estimated scf accuracy    <       0.00566711 Ry

     total magnetization       =     4.00 Bohr mag/cell
     absolute magnetization    =     4.05 Bohr mag/cell

     iteration #  9     ecut=    60.00 Ry     beta= 0.70
     Davidson diagonalization with overlap

---- Real-time Memory Report at c_bands before calling an iterative solver
           889 MiB given to the printing process from OS
             0 MiB allocation reported by mallinfo(arena+hblkhd)
          1774 MiB available memory on the node where the printing process lives
------------------
     c_bands:  1 eigenvalues not converged
     c_bands:  2 eigenvalues not converged
     c_bands:  1 eigenvalues not converged
     c_bands:  2 eigenvalues not converged
     c_bands:  1 eigenvalues not converged
     c_bands:  1 eigenvalues not converged
     c_bands:  1 eigenvalues not converged
     c_bands:  1 eigenvalues not converged
     c_bands:  1 eigenvalues not converged
     c_bands:  1 eigenvalues not converged
     c_bands:  1 eigenvalues not converged
     c_bands:  1 eigenvalues not converged
     c_bands:  1 eigenvalues not converged
     c_bands:  1 eigenvalues not converged
     c_bands:  2 eigenvalues not converged
     ethr =  2.16E-06,  avg # of iterations = 14.2

     negative rho (up, down):  0.000E+00 2.940E-04

     total cpu time spent up to now is     3757.0 secs

     total energy              =   -2631.23842282 Ry
     estimated scf accuracy    <       0.00081844 Ry

     total magnetization       =     4.00 Bohr mag/cell
     absolute magnetization    =     4.06 Bohr mag/cell

     iteration # 10     ecut=    60.00 Ry     beta= 0.70
     Davidson diagonalization with overlap

---- Real-time Memory Report at c_bands before calling an iterative solver
           892 MiB given to the printing process from OS
             0 MiB allocation reported by mallinfo(arena+hblkhd)
          1761 MiB available memory on the node where the printing process lives
------------------
     c_bands:  1 eigenvalues not converged
     c_bands:  1 eigenvalues not converged
     c_bands:  1 eigenvalues not converged
     c_bands:  1 eigenvalues not converged
     ethr =  3.12E-07,  avg # of iterations =  7.9

     negative rho (up, down):  0.000E+00 2.925E-04

     total cpu time spent up to now is     4185.8 secs

     total energy              =   -2631.23865431 Ry
     estimated scf accuracy    <       0.00048340 Ry

     total magnetization       =     4.00 Bohr mag/cell
     absolute magnetization    =     4.05 Bohr mag/cell

     iteration # 11     ecut=    60.00 Ry     beta= 0.70
     Davidson diagonalization with overlap

---- Real-time Memory Report at c_bands before calling an iterative solver
           892 MiB given to the printing process from OS
             0 MiB allocation reported by mallinfo(arena+hblkhd)
          1761 MiB available memory on the node where the printing process lives
------------------
     ethr =  1.85E-07,  avg # of iterations =  4.5

     negative rho (up, down):  0.000E+00 2.898E-04

     total cpu time spent up to now is     4548.9 secs

     total energy              =   -2631.23881905 Ry
     estimated scf accuracy    <       0.00010174 Ry

     total magnetization       =     4.00 Bohr mag/cell
     absolute magnetization    =     4.05 Bohr mag/cell

     iteration # 12     ecut=    60.00 Ry     beta= 0.70
     Davidson diagonalization with overlap

---- Real-time Memory Report at c_bands before calling an iterative solver
           892 MiB given to the printing process from OS
             0 MiB allocation reported by mallinfo(arena+hblkhd)
          1752 MiB available memory on the node where the printing process lives
------------------
     c_bands:  1 eigenvalues not converged
     ethr =  3.88E-08,  avg # of iterations =  6.3

     negative rho (up, down):  0.000E+00 2.911E-04

     total cpu time spent up to now is     5084.4 secs

     total energy              =   -2631.23890675 Ry
     estimated scf accuracy    <       0.00027589 Ry

     total magnetization       =     4.00 Bohr mag/cell
     absolute magnetization    =     4.05 Bohr mag/cell

     iteration # 13     ecut=    60.00 Ry     beta= 0.70
     Davidson diagonalization with overlap

---- Real-time Memory Report at c_bands before calling an iterative solver
           892 MiB given to the printing process from OS
             0 MiB allocation reported by mallinfo(arena+hblkhd)
          1751 MiB available memory on the node where the printing process lives
------------------
     ethr =  3.88E-08,  avg # of iterations =  2.4

     negative rho (up, down):  0.000E+00 2.939E-04

     total cpu time spent up to now is     5360.8 secs

     total energy              =   -2631.23879081 Ry
     estimated scf accuracy    <       0.00015589 Ry

     total magnetization       =     4.00 Bohr mag/cell
     absolute magnetization    =     4.05 Bohr mag/cell

     iteration # 14     ecut=    60.00 Ry     beta= 0.70
     Davidson diagonalization with overlap

---- Real-time Memory Report at c_bands before calling an iterative solver
           892 MiB given to the printing process from OS
             0 MiB allocation reported by mallinfo(arena+hblkhd)
          1761 MiB available memory on the node where the printing process lives
------------------
     ethr =  3.88E-08,  avg # of iterations =  5.0

     negative rho (up, down):  0.000E+00 2.957E-04

     total cpu time spent up to now is     5927.0 secs

     total energy              =   -2631.23893610 Ry
     estimated scf accuracy    <       0.00011170 Ry

     total magnetization       =     4.00 Bohr mag/cell
     absolute magnetization    =     4.04 Bohr mag/cell

     iteration # 15     ecut=    60.00 Ry     beta= 0.70
     Davidson diagonalization with overlap

---- Real-time Memory Report at c_bands before calling an iterative solver
           892 MiB given to the printing process from OS
             0 MiB allocation reported by mallinfo(arena+hblkhd)
          1695 MiB available memory on the node where the printing process lives
------------------
     ethr =  3.88E-08,  avg # of iterations =  2.0

     negative rho (up, down):  0.000E+00 2.987E-04

     total cpu time spent up to now is     6242.5 secs

     total energy              =   -2631.23892918 Ry
     estimated scf accuracy    <       0.00001164 Ry

     total magnetization       =     4.00 Bohr mag/cell
     absolute magnetization    =     4.04 Bohr mag/cell

     iteration # 16     ecut=    60.00 Ry     beta= 0.70
     Davidson diagonalization with overlap

---- Real-time Memory Report at c_bands before calling an iterative solver
           892 MiB given to the printing process from OS
             0 MiB allocation reported by mallinfo(arena+hblkhd)
          1704 MiB available memory on the node where the printing process lives
------------------
     ethr =  4.44E-09,  avg # of iterations =  7.1

     negative rho (up, down):  0.000E+00 2.986E-04

     total cpu time spent up to now is     6957.1 secs

     total energy              =   -2631.23896433 Ry
     estimated scf accuracy    <       0.00004697 Ry

     total magnetization       =     4.00 Bohr mag/cell
     absolute magnetization    =     4.04 Bohr mag/cell

     iteration # 17     ecut=    60.00 Ry     beta= 0.70
     Davidson diagonalization with overlap

---- Real-time Memory Report at c_bands before calling an iterative solver
           892 MiB given to the printing process from OS
             0 MiB allocation reported by mallinfo(arena+hblkhd)
          1708 MiB available memory on the node where the printing process lives
------------------
     ethr =  4.44E-09,  avg # of iterations =  4.7

     negative rho (up, down):  0.000E+00 2.992E-04

     total cpu time spent up to now is     7442.6 secs

     total energy              =   -2631.23897013 Ry
     estimated scf accuracy    <       0.00000174 Ry

     total magnetization       =     4.00 Bohr mag/cell
     absolute magnetization    =     4.04 Bohr mag/cell

     iteration # 18     ecut=    60.00 Ry     beta= 0.70
     Davidson diagonalization with overlap

---- Real-time Memory Report at c_bands before calling an iterative solver
           892 MiB given to the printing process from OS
             0 MiB allocation reported by mallinfo(arena+hblkhd)
          1716 MiB available memory on the node where the printing process lives
------------------
     ethr =  6.63E-10,  avg # of iterations =  5.0

     negative rho (up, down):  0.000E+00 2.994E-04

     Magnetic moment per site  (integrated on atomic sphere of radius R)
     atom   1 (R=0.212)  charge=  7.4975  magn=  0.0001
     atom   2 (R=0.212)  charge=  7.5010  magn=  0.0000
     atom   3 (R=0.157)  charge=  8.1043  magn= -0.0000
     atom   4 (R=0.157)  charge=  8.1048  magn=  0.0005
     atom   5 (R=0.157)  charge=  8.1019  magn=  0.0002
     atom   6 (R=0.157)  charge=  8.1028  magn=  0.0001
     atom   7 (R=0.157)  charge=  8.1061  magn=  0.0006
     atom   8 (R=0.125)  charge=  0.5446  magn=  0.0000
     atom   9 (R=0.125)  charge=  0.5446  magn=  0.0000
     atom  10 (R=0.125)  charge=  0.5376  magn=  0.0000
     atom  11 (R=0.125)  charge=  0.5376  magn=  0.0000
     atom  12 (R=0.125)  charge=  0.5364  magn=  0.0012
     atom  13 (R=0.125)  charge=  0.5364  magn=  0.0012
     atom  14 (R=0.134)  charge=  0.3366  magn=  0.0013
     atom  15 (R=0.134)  charge=  0.3366  magn=  0.0013
     atom  16 (R=0.074)  charge=  1.8934  magn=  0.0003
     atom  17 (R=0.074)  charge=  1.8934  magn=  0.0003
     atom  18 (R=0.074)  charge=  1.8948  magn=  0.0001
     atom  19 (R=0.074)  charge=  1.8948  magn=  0.0001
     atom  20 (R=0.074)  charge=  1.8909  magn=  0.0156
     atom  21 (R=0.074)  charge=  1.8909  magn=  0.0156
     atom  22 (R=0.074)  charge=  1.8888  magn=  0.0265
     atom  23 (R=0.074)  charge=  1.8888  magn=  0.0265
     atom  24 (R=0.074)  charge=  1.8951  magn=  0.0004
     atom  25 (R=0.074)  charge=  1.8951  magn=  0.0004
     atom  26 (R=0.074)  charge=  1.9013  magn=  0.0000
     atom  27 (R=0.074)  charge=  1.9013  magn=  0.0000
     atom  28 (R=0.074)  charge=  1.8991  magn=  0.0004
     atom  29 (R=0.074)  charge=  1.8991  magn=  0.0004
     atom  30 (R=0.074)  charge=  1.8985  magn=  0.0010
     atom  31 (R=0.074)  charge=  1.8985  magn=  0.0010
     atom  32 (R=0.074)  charge=  1.8961  magn=  0.0000
     atom  33 (R=0.074)  charge=  1.8961  magn=  0.0000
     atom  34 (R=0.074)  charge=  1.8943  magn=  0.0008
     atom  35 (R=0.074)  charge=  1.8943  magn=  0.0008
     atom  36 (R=0.074)  charge=  1.8930  magn=  0.0204
     atom  37 (R=0.074)  charge=  1.8930  magn=  0.0204
     atom  38 (R=0.074)  charge=  1.8951  magn=  0.0006
     atom  39 (R=0.074)  charge=  1.8951  magn=  0.0006
     atom  40 (R=0.074)  charge=  0.4014  magn=  0.0002
     atom  41 (R=0.074)  charge=  0.4014  magn=  0.0002
     atom  42 (R=0.074)  charge=  0.3985  magn=  0.0000
     atom  43 (R=0.074)  charge=  0.3985  magn=  0.0000
     atom  44 (R=0.158)  charge= 13.3122  magn=  3.2883

     total cpu time spent up to now is     7908.5 secs

     End of self-consistent calculation

 ------ SPIN UP ------------


          k = 0.0000 0.0000 0.0000 ( 25927 PWs)   bands (ev):

   -80.8973 -67.4990 -67.4652 -67.4058 -67.0143 -66.9870 -47.9573 -46.7020
   -46.2198 -34.2716 -34.2480 -34.2413 -34.2232 -34.2196 -34.2061 -34.1676
   -34.1655 -34.1399 -33.7868 -33.7615 -33.7599 -33.7541 -33.7489 -33.7078
   -23.0315 -22.9827 -15.0502 -14.9966 -14.1279 -14.0823 -13.5871 -13.5638
   -13.3935 -13.2662 -13.2282 -13.0879 -12.8684 -12.8343 -12.8075 -12.7854
   -12.7175 -12.5946 -12.4487 -12.3806 -12.2826 -12.2562 -12.2026 -12.0651
   -11.2784 -11.0472  -6.5996  -6.5484  -6.5245  -6.5155  -6.4638  -6.4560
    -4.2522  -4.1948  -2.4086  -2.3084  -1.7961  -1.3613  -1.1527  -1.1202
    -1.0558  -0.9839  -0.6446  -0.5466  -0.4486  -0.3322  -0.3198  -0.1267
     0.0283   0.0937   0.2629   0.4976   0.5977   0.6155   0.7145   0.9173
     0.9289   1.1517   1.1928   1.2565   1.4016   1.5479   1.5497   1.6697
     1.7579   1.8177   1.9403   2.0480   2.1175   2.1634   2.1993   2.3156
     2.3857   2.4102   2.5661   2.6643   2.7134   2.7350   2.7895   2.7965
     2.8995   3.0465   3.0625   3.0890   3.1301   3.1592   3.3140   3.3235
     3.3900   3.4056   3.4653   3.4899   3.5675   3.6909   3.8204   3.8311
     3.8426   3.8932   3.9264   3.9746   3.9809   4.2139   4.3683   4.4264
     5.5460   5.6932   6.7852   7.2308   7.5105   9.1602  10.6778  11.3088
    11.6281  11.9597  12.1565  12.2809  12.5919  12.6722  13.0540  13.0852
    13.1491  13.3326  13.3714  13.5678  13.6727  13.6883  13.8454  13.8794
    13.8798  14.0946  14.2358  14.2561  14.3900

     occupation numbers 
     1.0000   1.0000   1.0000   1.0000   1.0000   1.0000   1.0000   1.0000
     1.0000   1.0000   1.0000   1.0000   1.0000   1.0000   1.0000   1.0000
     1.0000   1.0000   1.0000   1.0000   1.0000   1.0000   1.0000   1.0000
     1.0000   1.0000   1.0000   1.0000   1.0000   1.0000   1.0000   1.0000
     1.0000   1.0000   1.0000   1.0000   1.0000   1.0000   1.0000   1.0000
     1.0000   1.0000   1.0000   1.0000   1.0000   1.0000   1.0000   1.0000
     1.0000   1.0000   1.0000   1.0000   1.0000   1.0000   1.0000   1.0000
     1.0000   1.0000   1.0000   1.0000   1.0000   1.0000   1.0000   1.0000
     1.0000   1.0000   1.0000   1.0000   1.0000   1.0000   1.0000   1.0000
     1.0000   1.0000   1.0000   1.0000   1.0000   1.0000   1.0000   1.0000
     1.0000   1.0000   1.0000   1.0000   1.0000   1.0000   1.0000   1.0000
     1.0000   1.0000   1.0000   1.0000   1.0000   1.0000   1.0000   1.0000
     1.0000   1.0000   1.0000   1.0000   1.0000   1.0000   1.0000   1.0000
     1.0000   1.0000   1.0000   1.0000   1.0000   1.0000   1.0000   1.0000
     1.0000   1.0000   1.0000   1.0000   1.0000   1.0000   1.0000   1.0000
     1.0000   1.0000   1.0000   1.0000   1.0000   1.0000   1.0000   1.0000
     1.0000   1.0000   1.0000   1.0000   1.0000   0.0000   0.0000   0.0000
     0.0000   0.0000   0.0000   0.0000   0.0000   0.0000   0.0000   0.0000
     0.0000   0.0000   0.0000   0.0000   0.0000   0.0000   0.0000   0.0000
     0.0000   0.0000   0.0000   0.0000   0.0000

          k = 0.0000 0.0000 0.1758 ( 25971 PWs)   bands (ev):

   -80.8973 -67.4990 -67.4652 -67.4058 -67.0143 -66.9870 -47.9573 -46.7020
   -46.2198 -34.2716 -34.2480 -34.2413 -34.2232 -34.2196 -34.2061 -34.1676
   -34.1655 -34.1399 -33.7868 -33.7615 -33.7599 -33.7542 -33.7489 -33.7078
   -23.0315 -22.9827 -15.0373 -15.0103 -14.1171 -14.0937 -13.5877 -13.5632
   -13.3827 -13.2868 -13.2204 -13.0831 -12.8688 -12.8357 -12.8052 -12.7907
   -12.7109 -12.5989 -12.4407 -12.3881 -12.2858 -12.2517 -12.1968 -12.0718
   -11.2780 -11.0480  -6.5997  -6.5485  -6.5245  -6.5154  -6.4637  -6.4560
    -4.2487  -4.1987  -2.3855  -2.3356  -1.7650  -1.3505  -1.1527  -1.1124
    -1.0530  -1.0032  -0.6150  -0.5583  -0.4801  -0.3318  -0.3070  -0.2250
     0.0409   0.1357   0.2130   0.4456   0.5892   0.5934   0.7319   0.9398
     0.9798   1.1334   1.2199   1.2504   1.4642   1.4821   1.5947   1.7014
     1.7942   1.8382   1.9810   2.1045   2.1403   2.1589   2.2262   2.3130
     2.3444   2.3856   2.5783   2.6533   2.6768   2.6829   2.7196   2.8442
     2.8484   2.9940   3.0342   3.1371   3.1421   3.1807   3.2669   3.3371
     3.3648   3.4179   3.4374   3.5589   3.6015   3.7385   3.7756   3.7971
     3.8560   3.8859   3.9041   3.9534   3.9654   4.2648   4.3639   4.4279
     5.5457   5.6921   6.7864   7.2216   7.5140   9.4710  10.1999  11.3767
    11.6756  11.8315  12.1758  12.2187  12.7286  12.9172  13.0092  13.1345
    13.2638  13.2926  13.3789  13.5069  13.5448  13.7194  13.8234  13.8466
    13.9538  14.0647  14.1629  14.3047  14.3133

     occupation numbers 
     1.0000   1.0000   1.0000   1.0000   1.0000   1.0000   1.0000   1.0000
     1.0000   1.0000   1.0000   1.0000   1.0000   1.0000   1.0000   1.0000
     1.0000   1.0000   1.0000   1.0000   1.0000   1.0000   1.0000   1.0000
     1.0000   1.0000   1.0000   1.0000   1.0000   1.0000   1.0000   1.0000
     1.0000   1.0000   1.0000   1.0000   1.0000   1.0000   1.0000   1.0000
     1.0000   1.0000   1.0000   1.0000   1.0000   1.0000   1.0000   1.0000
     1.0000   1.0000   1.0000   1.0000   1.0000   1.0000   1.0000   1.0000
     1.0000   1.0000   1.0000   1.0000   1.0000   1.0000   1.0000   1.0000
     1.0000   1.0000   1.0000   1.0000   1.0000   1.0000   1.0000   1.0000
     1.0000   1.0000   1.0000   1.0000   1.0000   1.0000   1.0000   1.0000
     1.0000   1.0000   1.0000   1.0000   1.0000   1.0000   1.0000   1.0000
     1.0000   1.0000   1.0000   1.0000   1.0000   1.0000   1.0000   1.0000
     1.0000   1.0000   1.0000   1.0000   1.0000   1.0000   1.0000   1.0000
     1.0000   1.0000   1.0000   1.0000   1.0000   1.0000   1.0000   1.0000
     1.0000   1.0000   1.0000   1.0000   1.0000   1.0000   1.0000   1.0000
     1.0000   1.0000   1.0000   1.0000   1.0000   1.0000   1.0000   1.0000
     1.0000   1.0000   1.0000   1.0000   1.0000   0.0000   0.0000   0.0000
     0.0000   0.0000   0.0000   0.0000   0.0000   0.0000   0.0000   0.0000
     0.0000   0.0000   0.0000   0.0000   0.0000   0.0000   0.0000   0.0000
     0.0000   0.0000   0.0000   0.0000   0.0000

          k = 0.0000 0.1921 0.0000 ( 25933 PWs)   bands (ev):

   -80.8973 -67.4990 -67.4652 -67.4058 -67.0143 -66.9870 -47.9573 -46.7020
   -46.2198 -34.2716 -34.2480 -34.2413 -34.2232 -34.2196 -34.2061 -34.1675
   -34.1655 -34.1399 -33.7868 -33.7615 -33.7599 -33.7542 -33.7489 -33.7078
   -23.0314 -22.9827 -15.0449 -14.9914 -14.1623 -14.1126 -13.5872 -13.5639
   -13.3084 -13.2198 -13.1673 -13.0966 -12.9033 -12.8671 -12.8580 -12.8131
   -12.7312 -12.5916 -12.4407 -12.3767 -12.2822 -12.2558 -12.1960 -12.0613
   -11.2765 -11.0467  -6.5980  -6.5504  -6.5242  -6.5144  -6.4644  -6.4566
    -4.2121  -4.1529  -2.5531  -2.4507  -1.7459  -1.4146  -1.0565  -1.0430
    -0.9722  -0.9142  -0.7170  -0.6088  -0.4640  -0.2907  -0.2451  -0.1100
    -0.0552   0.1532   0.2513   0.4714   0.5438   0.5971   0.7308   0.8966
     0.9396   1.0903   1.1269   1.2648   1.4121   1.5796   1.5881   1.7074
     1.8044   1.8578   1.9732   2.0928   2.1327   2.1648   2.2015   2.3443
     2.3617   2.4702   2.5720   2.6236   2.6825   2.6991   2.7638   2.8759
     2.9551   3.0363   3.0383   3.1053   3.1383   3.1662   3.2791   3.2828
     3.3871   3.4391   3.4866   3.5044   3.5895   3.6275   3.7741   3.8324
     3.8489   3.8642   3.9519   3.9774   3.9824   4.1440   4.2218   4.4070
     5.5589   5.6885   6.7854   7.1958   7.5181   9.5631  10.5059  10.9079
    11.5052  11.8908  12.3090  12.6151  12.6235  12.8439  12.9255  13.1039
    13.2164  13.3177  13.4018  13.5168  13.5243  13.7030  13.7428  13.8220
    13.8536  13.8813  14.3328  14.3846  14.5239

     occupation numbers 
     1.0000   1.0000   1.0000   1.0000   1.0000   1.0000   1.0000   1.0000
     1.0000   1.0000   1.0000   1.0000   1.0000   1.0000   1.0000   1.0000
     1.0000   1.0000   1.0000   1.0000   1.0000   1.0000   1.0000   1.0000
     1.0000   1.0000   1.0000   1.0000   1.0000   1.0000   1.0000   1.0000
     1.0000   1.0000   1.0000   1.0000   1.0000   1.0000   1.0000   1.0000
     1.0000   1.0000   1.0000   1.0000   1.0000   1.0000   1.0000   1.0000
     1.0000   1.0000   1.0000   1.0000   1.0000   1.0000   1.0000   1.0000
     1.0000   1.0000   1.0000   1.0000   1.0000   1.0000   1.0000   1.0000
     1.0000   1.0000   1.0000   1.0000   1.0000   1.0000   1.0000   1.0000
     1.0000   1.0000   1.0000   1.0000   1.0000   1.0000   1.0000   1.0000
     1.0000   1.0000   1.0000   1.0000   1.0000   1.0000   1.0000   1.0000
     1.0000   1.0000   1.0000   1.0000   1.0000   1.0000   1.0000   1.0000
     1.0000   1.0000   1.0000   1.0000   1.0000   1.0000   1.0000   1.0000
     1.0000   1.0000   1.0000   1.0000   1.0000   1.0000   1.0000   1.0000
     1.0000   1.0000   1.0000   1.0000   1.0000   1.0000   1.0000   1.0000
     1.0000   1.0000   1.0000   1.0000   1.0000   1.0000   1.0000   1.0000
     1.0000   1.0000   1.0000   1.0000   1.0000   0.0000   0.0000   0.0000
     0.0000   0.0000   0.0000   0.0000   0.0000   0.0000   0.0000   0.0000
     0.0000   0.0000   0.0000   0.0000   0.0000   0.0000   0.0000   0.0000
     0.0000   0.0000   0.0000   0.0000   0.0000

          k = 0.0000 0.1921 0.1758 ( 25924 PWs)   bands (ev):

   -80.8972 -67.4990 -67.4652 -67.4058 -67.0143 -66.9870 -47.9573 -46.7020
   -46.2198 -34.2716 -34.2480 -34.2413 -34.2232 -34.2196 -34.2061 -34.1675
   -34.1655 -34.1399 -33.7868 -33.7615 -33.7599 -33.7541 -33.7489 -33.7078
   -23.0314 -22.9827 -15.0320 -15.0052 -14.1503 -14.1254 -13.5879 -13.5633
   -13.3014 -13.2138 -13.1867 -13.0856 -12.9149 -12.8612 -12.8515 -12.8166
   -12.7282 -12.5959 -12.4332 -12.3840 -12.2855 -12.2515 -12.1896 -12.0679
   -11.2762 -11.0475  -6.5980  -6.5505  -6.5242  -6.5143  -6.4643  -6.4566
    -4.2054  -4.1601  -2.5302  -2.4760  -1.7190  -1.4045  -1.0512  -1.0418
    -0.9637  -0.9301  -0.6921  -0.6339  -0.4793  -0.2977  -0.2467  -0.1921
    -0.0105   0.1625   0.1865   0.4501   0.5425   0.5625   0.7583   0.9017
     0.9955   1.0467   1.1189   1.3166   1.4929   1.5623   1.6567   1.7164
     1.8149   1.8835   1.9965   2.0511   2.1153   2.1738   2.2656   2.3398
     2.4023   2.4324   2.5438   2.6224   2.6387   2.6894   2.7806   2.8240
     2.9110   2.9819   3.0381   3.1055   3.1219   3.1793   3.2428   3.2876
     3.4293   3.4554   3.4638   3.5356   3.6135   3.6628   3.7069   3.8120
     3.8668   3.8901   3.9300   3.9421   3.9743   4.1561   4.2696   4.4119
     5.5595   5.6859   6.7867   7.1854   7.5217   9.8320  10.4866  10.6932
    11.2075  11.8639  12.2851  12.6591  12.7487  12.9431  13.1131  13.1645
    13.2528  13.3405  13.4465  13.4859  13.6256  13.6381  13.6891  13.7723
    13.8381  14.0014  14.2549  14.3364  14.4457

     occupation numbers 
     1.0000   1.0000   1.0000   1.0000   1.0000   1.0000   1.0000   1.0000
     1.0000   1.0000   1.0000   1.0000   1.0000   1.0000   1.0000   1.0000
     1.0000   1.0000   1.0000   1.0000   1.0000   1.0000   1.0000   1.0000
     1.0000   1.0000   1.0000   1.0000   1.0000   1.0000   1.0000   1.0000
     1.0000   1.0000   1.0000   1.0000   1.0000   1.0000   1.0000   1.0000
     1.0000   1.0000   1.0000   1.0000   1.0000   1.0000   1.0000   1.0000
     1.0000   1.0000   1.0000   1.0000   1.0000   1.0000   1.0000   1.0000
     1.0000   1.0000   1.0000   1.0000   1.0000   1.0000   1.0000   1.0000
     1.0000   1.0000   1.0000   1.0000   1.0000   1.0000   1.0000   1.0000
     1.0000   1.0000   1.0000   1.0000   1.0000   1.0000   1.0000   1.0000
     1.0000   1.0000   1.0000   1.0000   1.0000   1.0000   1.0000   1.0000
     1.0000   1.0000   1.0000   1.0000   1.0000   1.0000   1.0000   1.0000
     1.0000   1.0000   1.0000   1.0000   1.0000   1.0000   1.0000   1.0000
     1.0000   1.0000   1.0000   1.0000   1.0000   1.0000   1.0000   1.0000
     1.0000   1.0000   1.0000   1.0000   1.0000   1.0000   1.0000   1.0000
     1.0000   1.0000   1.0000   1.0000   1.0000   1.0000   1.0000   1.0000
     1.0000   1.0000   1.0000   1.0000   1.0000   0.0000   0.0000   0.0000
     0.0000   0.0000   0.0000   0.0000   0.0000   0.0000   0.0000   0.0000
     0.0000   0.0000   0.0000   0.0000   0.0000   0.0000   0.0000   0.0000
     0.0000   0.0000   0.0000   0.0000   0.0000

          k = 0.1667 0.0000 0.0301 ( 25941 PWs)   bands (ev):

   -80.8973 -67.4990 -67.4652 -67.4058 -67.0142 -66.9870 -47.9573 -46.7020
   -46.2198 -34.2713 -34.2489 -34.2408 -34.2237 -34.2190 -34.2062 -34.1676
   -34.1655 -34.1399 -33.7867 -33.7619 -33.7600 -33.7536 -33.7489 -33.7081
   -23.0313 -22.9825 -14.9922 -14.9398 -14.1431 -14.1002 -13.7055 -13.6741
   -13.3259 -13.2050 -13.1717 -13.0692 -12.8806 -12.8557 -12.7975 -12.7874
   -12.7066 -12.6029 -12.4699 -12.4041 -12.3409 -12.2898 -12.1834 -12.0539
   -11.2745 -11.0509  -6.6000  -6.5521  -6.5232  -6.5140  -6.4637  -6.4527
    -4.0955  -4.0347  -2.3735  -2.2724  -1.7869  -1.4069  -1.3810  -1.3202
    -0.8659  -0.7898  -0.6459  -0.6046  -0.4743  -0.3221  -0.2752  -0.1232
     0.0010   0.1395   0.2429   0.4752   0.5368   0.6557   0.6712   0.8124
     1.0661   1.1373   1.2344   1.2580   1.3578   1.4454   1.5773   1.5943
     1.6752   1.9088   1.9432   2.0259   2.0847   2.1883   2.3092   2.3403
     2.3879   2.4327   2.5502   2.6209   2.7091   2.7209   2.7729   2.8515
     2.9240   2.9714   3.0284   3.0971   3.1271   3.2375   3.2628   3.3003
     3.3938   3.4096   3.4662   3.4905   3.5877   3.6838   3.7517   3.7944
     3.8381   3.8824   3.9302   3.9437   3.9573   4.1483   4.2542   4.3800
     5.5365   5.6567   6.7921   7.2366   7.5141   9.4833  10.8561  11.3798
    11.7560  12.0025  12.1752  12.4410  12.5869  12.8019  12.9565  13.0698
    13.1666  13.3141  13.3359  13.5682  13.6230  13.6685  13.7663  13.8265
    13.9022  14.1699  14.2093  14.2770  14.4045

     occupation numbers 
     1.0000   1.0000   1.0000   1.0000   1.0000   1.0000   1.0000   1.0000
     1.0000   1.0000   1.0000   1.0000   1.0000   1.0000   1.0000   1.0000
     1.0000   1.0000   1.0000   1.0000   1.0000   1.0000   1.0000   1.0000
     1.0000   1.0000   1.0000   1.0000   1.0000   1.0000   1.0000   1.0000
     1.0000   1.0000   1.0000   1.0000   1.0000   1.0000   1.0000   1.0000
     1.0000   1.0000   1.0000   1.0000   1.0000   1.0000   1.0000   1.0000
     1.0000   1.0000   1.0000   1.0000   1.0000   1.0000   1.0000   1.0000
     1.0000   1.0000   1.0000   1.0000   1.0000   1.0000   1.0000   1.0000
     1.0000   1.0000   1.0000   1.0000   1.0000   1.0000   1.0000   1.0000
     1.0000   1.0000   1.0000   1.0000   1.0000   1.0000   1.0000   1.0000
     1.0000   1.0000   1.0000   1.0000   1.0000   1.0000   1.0000   1.0000
     1.0000   1.0000   1.0000   1.0000   1.0000   1.0000   1.0000   1.0000
     1.0000   1.0000   1.0000   1.0000   1.0000   1.0000   1.0000   1.0000
     1.0000   1.0000   1.0000   1.0000   1.0000   1.0000   1.0000   1.0000
     1.0000   1.0000   1.0000   1.0000   1.0000   1.0000   1.0000   1.0000
     1.0000   1.0000   1.0000   1.0000   1.0000   1.0000   1.0000   1.0000
     1.0000   1.0000   1.0000   1.0000   1.0000   0.0000   0.0000   0.0000
     0.0000   0.0000   0.0000   0.0000   0.0000   0.0000   0.0000   0.0000
     0.0000   0.0000   0.0000   0.0000   0.0000   0.0000   0.0000   0.0000
     0.0000   0.0000   0.0000   0.0000   0.0000

          k = 0.1667 0.0000 0.2059 ( 25961 PWs)   bands (ev):

   -80.8973 -67.4990 -67.4652 -67.4058 -67.0142 -66.9870 -47.9573 -46.7020
   -46.2198 -34.2713 -34.2489 -34.2408 -34.2237 -34.2190 -34.2062 -34.1676
   -34.1655 -34.1399 -33.7867 -33.7619 -33.7600 -33.7536 -33.7489 -33.7081
   -23.0313 -22.9825 -14.9760 -14.9569 -14.1336 -14.1103 -13.7015 -13.6782
   -13.3157 -13.2208 -13.1695 -13.0625 -12.8801 -12.8548 -12.8062 -12.7845
   -12.7003 -12.6076 -12.4627 -12.4131 -12.3323 -12.2966 -12.1739 -12.0622
   -11.2739 -11.0519  -6.6000  -6.5521  -6.5232  -6.5140  -6.4636  -6.4527
    -4.0973  -4.0332  -2.3535  -2.2970  -1.7529  -1.4458  -1.3538  -1.3025
    -0.8634  -0.7918  -0.6438  -0.6081  -0.4706  -0.3164  -0.2766  -0.2349
     0.0352   0.1792   0.1925   0.4146   0.5218   0.6420   0.6575   0.8678
     1.0888   1.1389   1.2308   1.2693   1.3840   1.4614   1.5647   1.6586
     1.7125   1.9140   1.9820   2.0299   2.1689   2.1999   2.2618   2.3317
     2.3983   2.4402   2.5483   2.5888   2.6128   2.6967   2.7434   2.8435
     2.9189   2.9594   3.0283   3.0783   3.1666   3.2170   3.2350   3.3353
     3.3760   3.4103   3.4431   3.5066   3.6335   3.7305   3.7470   3.7770
     3.8194   3.8717   3.8887   3.9126   3.9574   4.2090   4.2601   4.3879
     5.5352   5.6561   6.7933   7.2298   7.5144   9.8474  10.3173  11.4365
    11.7881  11.8984  12.2151  12.3535  12.5512  12.8780  13.1082  13.2124
    13.2699  13.3713  13.4055  13.4421  13.5904  13.6926  13.7513  13.8391
    13.9088  13.9647  14.1092  14.3596  14.3912

     occupation numbers 
     1.0000   1.0000   1.0000   1.0000   1.0000   1.0000   1.0000   1.0000
     1.0000   1.0000   1.0000   1.0000   1.0000   1.0000   1.0000   1.0000
     1.0000   1.0000   1.0000   1.0000   1.0000   1.0000   1.0000   1.0000
     1.0000   1.0000   1.0000   1.0000   1.0000   1.0000   1.0000   1.0000
     1.0000   1.0000   1.0000   1.0000   1.0000   1.0000   1.0000   1.0000
     1.0000   1.0000   1.0000   1.0000   1.0000   1.0000   1.0000   1.0000
     1.0000   1.0000   1.0000   1.0000   1.0000   1.0000   1.0000   1.0000
     1.0000   1.0000   1.0000   1.0000   1.0000   1.0000   1.0000   1.0000
     1.0000   1.0000   1.0000   1.0000   1.0000   1.0000   1.0000   1.0000
     1.0000   1.0000   1.0000   1.0000   1.0000   1.0000   1.0000   1.0000
     1.0000   1.0000   1.0000   1.0000   1.0000   1.0000   1.0000   1.0000
     1.0000   1.0000   1.0000   1.0000   1.0000   1.0000   1.0000   1.0000
     1.0000   1.0000   1.0000   1.0000   1.0000   1.0000   1.0000   1.0000
     1.0000   1.0000   1.0000   1.0000   1.0000   1.0000   1.0000   1.0000
     1.0000   1.0000   1.0000   1.0000   1.0000   1.0000   1.0000   1.0000
     1.0000   1.0000   1.0000   1.0000   1.0000   1.0000   1.0000   1.0000
     1.0000   1.0000   1.0000   1.0000   1.0000   0.0000   0.0000   0.0000
     0.0000   0.0000   0.0000   0.0000   0.0000   0.0000   0.0000   0.0000
     0.0000   0.0000   0.0000   0.0000   0.0000   0.0000   0.0000   0.0000
     0.0000   0.0000   0.0000   0.0000   0.0000

          k = 0.1667 0.0000-0.1457 ( 25956 PWs)   bands (ev):

   -80.8973 -67.4990 -67.4652 -67.4058 -67.0142 -66.9870 -47.9573 -46.7020
   -46.2198 -34.2713 -34.2489 -34.2408 -34.2237 -34.2190 -34.2062 -34.1676
   -34.1656 -34.1399 -33.7867 -33.7619 -33.7600 -33.7536 -33.7489 -33.7081
   -23.0313 -22.9825 -14.9830 -14.9496 -14.1347 -14.1091 -13.7004 -13.6793
   -13.3199 -13.2067 -13.1798 -13.0638 -12.8803 -12.8542 -12.8039 -12.7840
   -12.7042 -12.6069 -12.4585 -12.4167 -12.3217 -12.3077 -12.1742 -12.0609
   -11.2737 -11.0518  -6.6001  -6.5522  -6.5232  -6.5139  -6.4636  -6.4527
    -4.0804  -4.0504  -2.3495  -2.2994  -1.7664  -1.4420  -1.3518  -1.3092
    -0.8491  -0.8103  -0.6134  -0.5998  -0.4984  -0.3097  -0.2920  -0.2068
     0.0077   0.1677   0.2151   0.4209   0.5532   0.6400   0.7021   0.8563
     1.0787   1.0871   1.2276   1.2665   1.3965   1.5092   1.5428   1.5910
     1.7352   1.9071   1.9769   2.0296   2.0772   2.1879   2.3064   2.3403
     2.3725   2.4551   2.5369   2.6086   2.6938   2.7055   2.7296   2.8575
     2.8885   2.9620   3.0658   3.1200   3.1510   3.2028   3.2513   3.3346
     3.3726   3.3969   3.4713   3.5348   3.5876   3.6962   3.7444   3.7797
     3.8164   3.8532   3.8814   3.9340   3.9508   4.1986   4.2619   4.3970
     5.5355   5.6575   6.7923   7.2281   7.5159   9.6730  10.5445  11.4882
    11.8303  11.8774  12.2537  12.3302  12.5842  12.9631  12.9938  13.1052
    13.2007  13.3184  13.4009  13.4326  13.5582  13.6732  13.7136  13.8636
    13.9215  14.0753  14.2066  14.3256  14.3844

     occupation numbers 
     1.0000   1.0000   1.0000   1.0000   1.0000   1.0000   1.0000   1.0000
     1.0000   1.0000   1.0000   1.0000   1.0000   1.0000   1.0000   1.0000
     1.0000   1.0000   1.0000   1.0000   1.0000   1.0000   1.0000   1.0000
     1.0000   1.0000   1.0000   1.0000   1.0000   1.0000   1.0000   1.0000
     1.0000   1.0000   1.0000   1.0000   1.0000   1.0000   1.0000   1.0000
     1.0000   1.0000   1.0000   1.0000   1.0000   1.0000   1.0000   1.0000
     1.0000   1.0000   1.0000   1.0000   1.0000   1.0000   1.0000   1.0000
     1.0000   1.0000   1.0000   1.0000   1.0000   1.0000   1.0000   1.0000
     1.0000   1.0000   1.0000   1.0000   1.0000   1.0000   1.0000   1.0000
     1.0000   1.0000   1.0000   1.0000   1.0000   1.0000   1.0000   1.0000
     1.0000   1.0000   1.0000   1.0000   1.0000   1.0000   1.0000   1.0000
     1.0000   1.0000   1.0000   1.0000   1.0000   1.0000   1.0000   1.0000
     1.0000   1.0000   1.0000   1.0000   1.0000   1.0000   1.0000   1.0000
     1.0000   1.0000   1.0000   1.0000   1.0000   1.0000   1.0000   1.0000
     1.0000   1.0000   1.0000   1.0000   1.0000   1.0000   1.0000   1.0000
     1.0000   1.0000   1.0000   1.0000   1.0000   1.0000   1.0000   1.0000
     1.0000   1.0000   1.0000   1.0000   1.0000   0.0000   0.0000   0.0000
     0.0000   0.0000   0.0000   0.0000   0.0000   0.0000   0.0000   0.0000
     0.0000   0.0000   0.0000   0.0000   0.0000   0.0000   0.0000   0.0000
     0.0000   0.0000   0.0000   0.0000   0.0000

          k = 0.1667 0.1921 0.0301 ( 25937 PWs)   bands (ev):

   -80.8973 -67.4990 -67.4652 -67.4058 -67.0142 -66.9870 -47.9573 -46.7020
   -46.2198 -34.2713 -34.2489 -34.2408 -34.2237 -34.2190 -34.2062 -34.1675
   -34.1655 -34.1399 -33.7867 -33.7619 -33.7600 -33.7536 -33.7489 -33.7081
   -23.0313 -22.9825 -14.9872 -14.9349 -14.1734 -14.1266 -13.6922 -13.6644
   -13.2699 -13.1949 -13.1161 -13.0575 -12.8941 -12.8737 -12.8602 -12.8124
   -12.7285 -12.5993 -12.4652 -12.3913 -12.3355 -12.2936 -12.1797 -12.0517
   -11.2731 -11.0506  -6.5989  -6.5537  -6.5232  -6.5131  -6.4639  -6.4530
    -4.0585  -3.9963  -2.5304  -2.4289  -1.7181  -1.3787  -1.2652  -1.2404
    -0.8637  -0.7920  -0.7303  -0.5727  -0.4769  -0.2773  -0.2270  -0.0935
    -0.0072   0.1357   0.2164   0.4477   0.5147   0.6199   0.6870   0.7684
     1.0542   1.0755   1.2077   1.2946   1.3447   1.4659   1.5849   1.6485
     1.7211   1.8787   1.9288   2.0464   2.1076   2.1774   2.2972   2.3695
     2.4020   2.4975   2.5515   2.6426   2.7070   2.7458   2.7917   2.8767
     2.9227   2.9909   3.0361   3.1009   3.1441   3.2067   3.2526   3.2920
     3.3892   3.4055   3.4519   3.5172   3.6087   3.6371   3.6944   3.7734
     3.8060   3.8636   3.8909   3.9613   4.0006   4.1149   4.1859   4.3491
     5.5487   5.6515   6.7920   7.2029   7.5256   9.8371  10.6878  11.0656
    11.6027  11.9383  12.2910  12.6173  12.7069  12.8289  13.0284  13.0666
    13.2137  13.3136  13.3677  13.5019  13.5221  13.6257  13.7301  13.8067
    13.9666  14.0156  14.2650  14.4361  14.5767

     occupation numbers 
     1.0000   1.0000   1.0000   1.0000   1.0000   1.0000   1.0000   1.0000
     1.0000   1.0000   1.0000   1.0000   1.0000   1.0000   1.0000   1.0000
     1.0000   1.0000   1.0000   1.0000   1.0000   1.0000   1.0000   1.0000
     1.0000   1.0000   1.0000   1.0000   1.0000   1.0000   1.0000   1.0000
     1.0000   1.0000   1.0000   1.0000   1.0000   1.0000   1.0000   1.0000
     1.0000   1.0000   1.0000   1.0000   1.0000   1.0000   1.0000   1.0000
     1.0000   1.0000   1.0000   1.0000   1.0000   1.0000   1.0000   1.0000
     1.0000   1.0000   1.0000   1.0000   1.0000   1.0000   1.0000   1.0000
     1.0000   1.0000   1.0000   1.0000   1.0000   1.0000   1.0000   1.0000
     1.0000   1.0000   1.0000   1.0000   1.0000   1.0000   1.0000   1.0000
     1.0000   1.0000   1.0000   1.0000   1.0000   1.0000   1.0000   1.0000
     1.0000   1.0000   1.0000   1.0000   1.0000   1.0000   1.0000   1.0000
     1.0000   1.0000   1.0000   1.0000   1.0000   1.0000   1.0000   1.0000
     1.0000   1.0000   1.0000   1.0000   1.0000   1.0000   1.0000   1.0000
     1.0000   1.0000   1.0000   1.0000   1.0000   1.0000   1.0000   1.0000
     1.0000   1.0000   1.0000   1.0000   1.0000   1.0000   1.0000   1.0000
     1.0000   1.0000   1.0000   1.0000   1.0000   0.0000   0.0000   0.0000
     0.0000   0.0000   0.0000   0.0000   0.0000   0.0000   0.0000   0.0000
     0.0000   0.0000   0.0000   0.0000   0.0000   0.0000   0.0000   0.0000
     0.0000   0.0000   0.0000   0.0000   0.0000

          k = 0.1667 0.1921 0.2059 ( 25944 PWs)   bands (ev):

   -80.8973 -67.4990 -67.4652 -67.4058 -67.0142 -66.9870 -47.9573 -46.7020
   -46.2198 -34.2713 -34.2489 -34.2408 -34.2237 -34.2190 -34.2062 -34.1675
   -34.1655 -34.1399 -33.7867 -33.7619 -33.7600 -33.7536 -33.7489 -33.7081
   -23.0313 -22.9825 -14.9710 -14.9520 -14.1610 -14.1398 -13.6905 -13.6661
   -13.2632 -13.1892 -13.1372 -13.0434 -12.9019 -12.8717 -12.8612 -12.8078
   -12.7257 -12.6042 -12.4594 -12.3997 -12.3300 -12.2971 -12.1703 -12.0598
   -11.2726 -11.0515  -6.5989  -6.5538  -6.5231  -6.5131  -6.4638  -6.4530
    -4.0567  -3.9982  -2.5067  -2.4554  -1.6916  -1.3677  -1.2869  -1.2199
    -0.8655  -0.7906  -0.7265  -0.5726  -0.4740  -0.3206  -0.2216  -0.1532
     0.0280   0.1326   0.1906   0.4065   0.5010   0.6066   0.6651   0.8161
     1.0149   1.1011   1.2183   1.3248   1.3999   1.5085   1.5818   1.6843
     1.8055   1.8489   1.9199   2.0337   2.1166   2.2385   2.2865   2.3644
     2.4254   2.4983   2.5279   2.6284   2.6570   2.6889   2.7917   2.8579
     2.8930   2.9825   3.0173   3.0897   3.1343   3.1907   3.2374   3.2813
     3.3912   3.4362   3.4986   3.5517   3.6118   3.6391   3.6784   3.7691
     3.7926   3.8419   3.8875   3.9299   3.9985   4.1370   4.2360   4.3561
     5.5478   5.6498   6.7933   7.1957   7.5263  10.1457  10.5985  10.8846
    11.2976  11.9052  12.2625  12.6202  12.7904  12.8636  13.1322  13.2871
    13.2988  13.3768  13.4215  13.4779  13.5629  13.6596  13.7225  13.7803
    13.8630  14.0014  14.1659  14.3158  14.5020

     occupation numbers 
     1.0000   1.0000   1.0000   1.0000   1.0000   1.0000   1.0000   1.0000
     1.0000   1.0000   1.0000   1.0000   1.0000   1.0000   1.0000   1.0000
     1.0000   1.0000   1.0000   1.0000   1.0000   1.0000   1.0000   1.0000
     1.0000   1.0000   1.0000   1.0000   1.0000   1.0000   1.0000   1.0000
     1.0000   1.0000   1.0000   1.0000   1.0000   1.0000   1.0000   1.0000
     1.0000   1.0000   1.0000   1.0000   1.0000   1.0000   1.0000   1.0000
     1.0000   1.0000   1.0000   1.0000   1.0000   1.0000   1.0000   1.0000
     1.0000   1.0000   1.0000   1.0000   1.0000   1.0000   1.0000   1.0000
     1.0000   1.0000   1.0000   1.0000   1.0000   1.0000   1.0000   1.0000
     1.0000   1.0000   1.0000   1.0000   1.0000   1.0000   1.0000   1.0000
     1.0000   1.0000   1.0000   1.0000   1.0000   1.0000   1.0000   1.0000
     1.0000   1.0000   1.0000   1.0000   1.0000   1.0000   1.0000   1.0000
     1.0000   1.0000   1.0000   1.0000   1.0000   1.0000   1.0000   1.0000
     1.0000   1.0000   1.0000   1.0000   1.0000   1.0000   1.0000   1.0000
     1.0000   1.0000   1.0000   1.0000   1.0000   1.0000   1.0000   1.0000
     1.0000   1.0000   1.0000   1.0000   1.0000   1.0000   1.0000   1.0000
     1.0000   1.0000   1.0000   1.0000   1.0000   0.0000   0.0000   0.0000
     0.0000   0.0000   0.0000   0.0000   0.0000   0.0000   0.0000   0.0000
     0.0000   0.0000   0.0000   0.0000   0.0000   0.0000   0.0000   0.0000
     0.0000   0.0000   0.0000   0.0000   0.0000

          k = 0.1667 0.1921-0.1457 ( 25923 PWs)   bands (ev):

   -80.8972 -67.4990 -67.4652 -67.4058 -67.0142 -66.9870 -47.9573 -46.7020
   -46.2198 -34.2713 -34.2488 -34.2408 -34.2237 -34.2190 -34.2062 -34.1675
   -34.1655 -34.1399 -33.7867 -33.7619 -33.7599 -33.7536 -33.7489 -33.7081
   -23.0313 -22.9825 -14.9780 -14.9447 -14.1639 -14.1367 -13.6878 -13.6689
   -13.2660 -13.1897 -13.1289 -13.0506 -12.8994 -12.8730 -12.8575 -12.8129
   -12.7259 -12.6031 -12.4543 -12.4029 -12.3211 -12.3073 -12.1706 -12.0588
   -11.2724 -11.0515  -6.5990  -6.5538  -6.5231  -6.5130  -6.4638  -6.4530
    -4.0410  -4.0143  -2.5066  -2.4549  -1.7015  -1.3715  -1.2902  -1.2159
    -0.8452  -0.8140  -0.6948  -0.5754  -0.5064  -0.2857  -0.2353  -0.1371
    -0.0015   0.1423   0.1763   0.4372   0.5224   0.5996   0.7152   0.8071
     1.0103   1.0683   1.2025   1.2988   1.4095   1.4941   1.6143   1.6799
     1.7179   1.8689   1.9140   2.0688   2.1255   2.1979   2.2756   2.3668
     2.4282   2.4741   2.5473   2.6388   2.6740   2.7180   2.8003   2.8466
     2.8843   2.9697   3.0415   3.1239   3.1431   3.2002   3.2541   3.2911
     3.4134   3.4351   3.4682   3.5440   3.5981   3.6363   3.6756   3.7700
     3.7896   3.8478   3.8907   3.9310   3.9534   4.1407   4.2336   4.3552
     5.5485   5.6522   6.7921   7.1929   7.5270  10.0151  10.7810  10.8363
    11.3888  11.9747  12.3110  12.6262  12.6974  12.8800  13.0668  13.1760
    13.2441  13.3361  13.4071  13.4634  13.5645  13.6577  13.6958  13.8926
    13.9280  13.9534  14.1249  14.3593  14.4864

     occupation numbers 
     1.0000   1.0000   1.0000   1.0000   1.0000   1.0000   1.0000   1.0000
     1.0000   1.0000   1.0000   1.0000   1.0000   1.0000   1.0000   1.0000
     1.0000   1.0000   1.0000   1.0000   1.0000   1.0000   1.0000   1.0000
     1.0000   1.0000   1.0000   1.0000   1.0000   1.0000   1.0000   1.0000
     1.0000   1.0000   1.0000   1.0000   1.0000   1.0000   1.0000   1.0000
     1.0000   1.0000   1.0000   1.0000   1.0000   1.0000   1.0000   1.0000
     1.0000   1.0000   1.0000   1.0000   1.0000   1.0000   1.0000   1.0000
     1.0000   1.0000   1.0000   1.0000   1.0000   1.0000   1.0000   1.0000
     1.0000   1.0000   1.0000   1.0000   1.0000   1.0000   1.0000   1.0000
     1.0000   1.0000   1.0000   1.0000   1.0000   1.0000   1.0000   1.0000
     1.0000   1.0000   1.0000   1.0000   1.0000   1.0000   1.0000   1.0000
     1.0000   1.0000   1.0000   1.0000   1.0000   1.0000   1.0000   1.0000
     1.0000   1.0000   1.0000   1.0000   1.0000   1.0000   1.0000   1.0000
     1.0000   1.0000   1.0000   1.0000   1.0000   1.0000   1.0000   1.0000
     1.0000   1.0000   1.0000   1.0000   1.0000   1.0000   1.0000   1.0000
     1.0000   1.0000   1.0000   1.0000   1.0000   1.0000   1.0000   1.0000
     1.0000   1.0000   1.0000   1.0000   1.0000   0.0000   0.0000   0.0000
     0.0000   0.0000   0.0000   0.0000   0.0000   0.0000   0.0000   0.0000
     0.0000   0.0000   0.0000   0.0000   0.0000   0.0000   0.0000   0.0000
     0.0000   0.0000   0.0000   0.0000   0.0000

          k = 0.3333 0.0000 0.0601 ( 25907 PWs)   bands (ev):

   -80.8972 -67.4990 -67.4652 -67.4058 -67.0142 -66.9871 -47.9573 -46.7019
   -46.2198 -34.2705 -34.2504 -34.2398 -34.2245 -34.2180 -34.2064 -34.1675
   -34.1657 -34.1400 -33.7864 -33.7624 -33.7602 -33.7525 -33.7490 -33.7085
   -23.0310 -22.9822 -14.8335 -14.7850 -14.2537 -14.2157 -13.8339 -13.7982
   -13.2246 -13.1156 -13.0479 -13.0264 -12.9191 -12.9002 -12.8105 -12.7975
   -12.7087 -12.6203 -12.5336 -12.4812 -12.4040 -12.3220 -12.1625 -12.0458
   -11.2683 -11.0587  -6.6012  -6.5593  -6.5203  -6.5114  -6.4633  -6.4458
    -3.6873  -3.6156  -2.4974  -2.3856  -1.7781  -1.6298  -1.3819  -1.2285
    -0.8233  -0.7677  -0.7015  -0.6538  -0.4098  -0.2684  -0.1996  -0.1140
    -0.0835   0.1568   0.2783   0.4426   0.5198   0.6461   0.6882   0.7511
     0.9813   1.1043   1.1483   1.2290   1.4103   1.4672   1.5330   1.5935
     1.6247   1.6925   1.8384   1.9514   2.0836   2.2881   2.3450   2.3879
     2.4440   2.5107   2.6395   2.6982   2.7346   2.7657   2.7861   2.8410
     2.8839   2.9579   3.0284   3.0794   3.1461   3.2153   3.2497   3.2854
     3.3018   3.3663   3.4694   3.5363   3.5917   3.6305   3.6794   3.7082
     3.7483   3.7579   3.8449   3.9202   3.9911   4.0395   4.1758   4.3437
     5.5171   5.5811   6.8027   7.2474   7.5233  10.2600  11.2766  11.5040
    11.9747  12.0745  12.2420  12.3062  12.7412  12.7643  12.8063  13.0770
    13.1878  13.2551  13.4118  13.5235  13.5752  13.6398  13.7602  13.9547
    14.0048  14.1944  14.2654  14.3236  14.4580

     occupation numbers 
     1.0000   1.0000   1.0000   1.0000   1.0000   1.0000   1.0000   1.0000
     1.0000   1.0000   1.0000   1.0000   1.0000   1.0000   1.0000   1.0000
     1.0000   1.0000   1.0000   1.0000   1.0000   1.0000   1.0000   1.0000
     1.0000   1.0000   1.0000   1.0000   1.0000   1.0000   1.0000   1.0000
     1.0000   1.0000   1.0000   1.0000   1.0000   1.0000   1.0000   1.0000
     1.0000   1.0000   1.0000   1.0000   1.0000   1.0000   1.0000   1.0000
     1.0000   1.0000   1.0000   1.0000   1.0000   1.0000   1.0000   1.0000
     1.0000   1.0000   1.0000   1.0000   1.0000   1.0000   1.0000   1.0000
     1.0000   1.0000   1.0000   1.0000   1.0000   1.0000   1.0000   1.0000
     1.0000   1.0000   1.0000   1.0000   1.0000   1.0000   1.0000   1.0000
     1.0000   1.0000   1.0000   1.0000   1.0000   1.0000   1.0000   1.0000
     1.0000   1.0000   1.0000   1.0000   1.0000   1.0000   1.0000   1.0000
     1.0000   1.0000   1.0000   1.0000   1.0000   1.0000   1.0000   1.0000
     1.0000   1.0000   1.0000   1.0000   1.0000   1.0000   1.0000   1.0000
     1.0000   1.0000   1.0000   1.0000   1.0000   1.0000   1.0000   1.0000
     1.0000   1.0000   1.0000   1.0000   1.0000   1.0000   1.0000   1.0000
     1.0000   1.0000   1.0000   1.0000   1.0000   0.0000   0.0000   0.0000
     0.0000   0.0000   0.0000   0.0000   0.0000   0.0000   0.0000   0.0000
     0.0000   0.0000   0.0000   0.0000   0.0000   0.0000   0.0000   0.0000
     0.0000   0.0000   0.0000   0.0000   0.0000

          k = 0.3333 0.0000 0.2360 ( 25948 PWs)   bands (ev):

   -80.8973 -67.4990 -67.4652 -67.4058 -67.0142 -66.9871 -47.9573 -46.7019
   -46.2198 -34.2705 -34.2504 -34.2398 -34.2245 -34.2181 -34.2064 -34.1675
   -34.1657 -34.1400 -33.7864 -33.7624 -33.7603 -33.7525 -33.7490 -33.7085
   -23.0310 -22.9822 -14.8157 -14.8037 -14.2513 -14.2182 -13.8275 -13.8050
   -13.2180 -13.1170 -13.0636 -13.0163 -12.9164 -12.8968 -12.8199 -12.7936
   -12.7073 -12.6229 -12.5259 -12.4910 -12.3898 -12.3330 -12.1526 -12.0548
   -11.2673 -11.0599  -6.6013  -6.5594  -6.5202  -6.5114  -6.4632  -6.4458
    -3.6888  -3.6141  -2.4714  -2.4151  -1.7496  -1.6669  -1.3538  -1.2184
    -0.8255  -0.7771  -0.6965  -0.6456  -0.3753  -0.2598  -0.2170  -0.2009
    -0.0591   0.1146   0.2837   0.4136   0.5269   0.6283   0.6670   0.8061
     0.9898   1.1363   1.1594   1.2137   1.3358   1.4979   1.5761   1.5904
     1.6866   1.7334   1.7826   2.0420   2.1166   2.2182   2.3420   2.3914
     2.4400   2.4589   2.6344   2.6881   2.7456   2.7776   2.7856   2.8115
     2.8681   2.9532   2.9739   3.0808   3.1391   3.2164   3.2659   3.3071
     3.3404   3.3730   3.4880   3.5385   3.5814   3.6193   3.6788   3.7043
     3.7370   3.7892   3.8377   3.8391   3.9524   4.1191   4.1772   4.3687
     5.5142   5.5819   6.8028   7.2436   7.5231  10.5800  10.8233  11.5499
[...]
     atom   18 type  6   force =    -0.00014281    0.00006586   -0.00699636
     atom   19 type  6   force =     0.00014281    0.00006586    0.00699636
     atom   20 type  6   force =     0.00050382    0.00054912    0.00662269
     atom   21 type  6   force =    -0.00050382    0.00054912   -0.00662269
     atom   22 type  6   force =    -0.00056937   -0.00111232   -0.00262507
     atom   23 type  6   force =     0.00056937   -0.00111232    0.00262507
     atom   24 type  6   force =     0.00463018   -0.00186096   -0.00587442
     atom   25 type  6   force =    -0.00463018   -0.00186096    0.00587439
     atom   26 type  6   force =    -0.00364345    0.00079646   -0.00712544
     atom   27 type  6   force =     0.00364345    0.00079646    0.00712543
     atom   28 type  6   force =    -0.00167538    0.00241096    0.00737282
     atom   29 type  6   force =     0.00167538    0.00241096   -0.00737282
     atom   30 type  6   force =     0.00101024   -0.00233911   -0.00762044
     atom   31 type  6   force =    -0.00101024   -0.00233911    0.00762044
     atom   32 type  6   force =    -0.00262504   -0.00345984   -0.00644849
     atom   33 type  6   force =     0.00262503   -0.00345983    0.00644850
     atom   34 type  6   force =     0.00100338    0.00421329    0.00652387
     atom   35 type  6   force =    -0.00100338    0.00421329   -0.00652387
     atom   36 type  6   force =    -0.00191357    0.00057110    0.01103529
     atom   37 type  6   force =     0.00191358    0.00057110   -0.01103529
     atom   38 type  6   force =     0.00015041   -0.00147104    0.01096880
     atom   39 type  6   force =    -0.00015041   -0.00147103   -0.01096877
     atom   40 type  3   force =     0.00000000    0.00000000    0.00000000
     atom   41 type  3   force =     0.00000000    0.00000000    0.00000000
     atom   42 type  3   force =     0.00000000    0.00000000    0.00000000
     atom   43 type  3   force =     0.00000000    0.00000000    0.00000000
     atom   44 type  2   force =    -0.00000000   -0.00867495    0.00000000
     The Hubbard contrib.    to forces
     atom    1 type  4   force =     0.00000000    0.00000000    0.00000000
     atom    2 type  4   force =     0.00000000    0.00000000    0.00000000
     atom    3 type  5   force =     0.00000000    0.00000000    0.00000000
     atom    4 type  5   force =     0.00000000    0.00000000    0.00000000
     atom    5 type  5   force =     0.00000000    0.00000000    0.00000000
     atom    6 type  5   force =     0.00000000    0.00000000    0.00000000
     atom    7 type  5   force =     0.00000000    0.00000000    0.00000000
     atom    8 type  7   force =     0.00000000    0.00000000    0.00000000
     atom    9 type  7   force =     0.00000000    0.00000000    0.00000000
     atom   10 type  7   force =     0.00000000    0.00000000    0.00000000
     atom   11 type  7   force =     0.00000000    0.00000000    0.00000000
     atom   12 type  7   force =     0.00000000    0.00000000    0.00000000
     atom   13 type  7   force =     0.00000000    0.00000000    0.00000000
     atom   14 type  1   force =     0.00000000    0.00000000    0.00000000
     atom   15 type  1   force =     0.00000000    0.00000000    0.00000000
     atom   16 type  6   force =     0.00000000    0.00000000    0.00000000
     atom   17 type  6   force =     0.00000000    0.00000000    0.00000000
     atom   18 type  6   force =     0.00000000    0.00000000    0.00000000
     atom   19 type  6   force =     0.00000000    0.00000000    0.00000000
     atom   20 type  6   force =     0.00000000    0.00000000    0.00000000
     atom   21 type  6   force =     0.00000000    0.00000000    0.00000000
     atom   22 type  6   force =     0.00000000    0.00000000    0.00000000
     atom   23 type  6   force =     0.00000000    0.00000000    0.00000000
     atom   24 type  6   force =     0.00000000    0.00000000    0.00000000
     atom   25 type  6   force =     0.00000000    0.00000000    0.00000000
     atom   26 type  6   force =     0.00000000    0.00000000    0.00000000
     atom   27 type  6   force =     0.00000000    0.00000000    0.00000000
     atom   28 type  6   force =     0.00000000    0.00000000    0.00000000
     atom   29 type  6   force =     0.00000000    0.00000000    0.00000000
     atom   30 type  6   force =     0.00000000    0.00000000    0.00000000
     atom   31 type  6   force =     0.00000000    0.00000000    0.00000000
     atom   32 type  6   force =     0.00000000    0.00000000    0.00000000
     atom   33 type  6   force =     0.00000000    0.00000000    0.00000000
     atom   34 type  6   force =     0.00000000    0.00000000    0.00000000
     atom   35 type  6   force =     0.00000000    0.00000000    0.00000000
     atom   36 type  6   force =     0.00000000    0.00000000    0.00000000
     atom   37 type  6   force =     0.00000000    0.00000000    0.00000000
     atom   38 type  6   force =     0.00000000    0.00000000    0.00000000
     atom   39 type  6   force =     0.00000000    0.00000000    0.00000000
     atom   40 type  3   force =     0.00000000    0.00000000    0.00000000
     atom   41 type  3   force =     0.00000000    0.00000000    0.00000000
     atom   42 type  3   force =     0.00000000    0.00000000    0.00000000
     atom   43 type  3   force =     0.00000000    0.00000000    0.00000000
     atom   44 type  2   force =     0.00000000    0.00000000    0.00000000
     The SCF correction term to forces
     atom    1 type  4   force =     0.00000000   -0.00000686    0.00000000
     atom    2 type  4   force =    -0.00000000    0.00000608    0.00000000
     atom    3 type  5   force =    -0.00000000   -0.00001546    0.00000000
     atom    4 type  5   force =     0.00000000    0.00000030   -0.00000000
     atom    5 type  5   force =     0.00000000    0.00001118    0.00000000
     atom    6 type  5   force =     0.00000000   -0.00000754   -0.00000000
     atom    7 type  5   force =     0.00000000   -0.00001505    0.00000000
     atom    8 type  7   force =     0.00000151   -0.00000134   -0.00000520
     atom    9 type  7   force =    -0.00000151   -0.00000134    0.00000520
     atom   10 type  7   force =    -0.00000051    0.00000091   -0.00000076
     atom   11 type  7   force =     0.00000051    0.00000091    0.00000076
     atom   12 type  7   force =    -0.00000108    0.00000262    0.00000507
     atom   13 type  7   force =     0.00000108    0.00000262   -0.00000507
     atom   14 type  1   force =     0.00000087   -0.00000164    0.00000219
     atom   15 type  1   force =    -0.00000087   -0.00000164   -0.00000219
     atom   16 type  6   force =    -0.00000022   -0.00000647    0.00000330
     atom   17 type  6   force =     0.00000022   -0.00000647   -0.00000330
     atom   18 type  6   force =    -0.00000244   -0.00000022   -0.00000634
     atom   19 type  6   force =     0.00000244   -0.00000022    0.00000634
     atom   20 type  6   force =    -0.00000708    0.00000532    0.00000193
     atom   21 type  6   force =     0.00000708    0.00000532   -0.00000193
     atom   22 type  6   force =     0.00000343    0.00000034    0.00000629
     atom   23 type  6   force =    -0.00000343    0.00000034   -0.00000629
     atom   24 type  6   force =     0.00000303    0.00000079   -0.00000844
     atom   25 type  6   force =    -0.00000303    0.00000079    0.00000844
     atom   26 type  6   force =     0.00000093   -0.00000108   -0.00000486
     atom   27 type  6   force =    -0.00000093   -0.00000108    0.00000486
     atom   28 type  6   force =    -0.00000211   -0.00000011   -0.00000164
     atom   29 type  6   force =     0.00000211   -0.00000011    0.00000164
     atom   30 type  6   force =    -0.00000234    0.00000383   -0.00000114
     atom   31 type  6   force =     0.00000234    0.00000383    0.00000114
     atom   32 type  6   force =    -0.00000002    0.00000013   -0.00000004
     atom   33 type  6   force =     0.00000002    0.00000013    0.00000004
     atom   34 type  6   force =     0.00000403   -0.00000304    0.00001096
     atom   35 type  6   force =    -0.00000403   -0.00000304   -0.00001096
     atom   36 type  6   force =     0.00000468    0.00000680   -0.00000722
     atom   37 type  6   force =    -0.00000468    0.00000680    0.00000722
     atom   38 type  6   force =     0.00000045   -0.00000482    0.00000088
     atom   39 type  6   force =    -0.00000045   -0.00000482   -0.00000088
     atom   40 type  3   force =     0.00000056    0.00000074    0.00000130
     atom   41 type  3   force =    -0.00000056    0.00000074   -0.00000130
     atom   42 type  3   force =    -0.00000006   -0.00000037   -0.00000082
     atom   43 type  3   force =     0.00000006   -0.00000037    0.00000082
     atom   44 type  2   force =    -0.00000000    0.00003256    0.00000000

     DFT-D3 dispersion contribution to forces:
     atom    1 type  4   force =    -0.00000000    0.00053069    0.00000000
     atom    2 type  4   force =     0.00000000   -0.00040303    0.00000000
     atom    3 type  5   force =     0.00000000    0.00027631   -0.00000000
     atom    4 type  5   force =     0.00000000    0.00084438   -0.00000000
     atom    5 type  5   force =    -0.00000000   -0.00121282   -0.00000000
     atom    6 type  5   force =    -0.00000000    0.00108461    0.00000000
     atom    7 type  5   force =     0.00000000   -0.00035017   -0.00000000
     atom    8 type  7   force =     0.00004368   -0.00017101   -0.00039190
     atom    9 type  7   force =    -0.00004368   -0.00017101    0.00039190
     atom   10 type  7   force =     0.00003765    0.00017694    0.00035467
     atom   11 type  7   force =    -0.00003765    0.00017694   -0.00035467
     atom   12 type  7   force =    -0.00014668    0.00008668   -0.00010358
     atom   13 type  7   force =     0.00014668    0.00008668    0.00010358
     atom   14 type  1   force =     0.00013873    0.00011121   -0.00119974
     atom   15 type  1   force =    -0.00013873    0.00011121    0.00119974
     atom   16 type  6   force =    -0.00001956    0.00001521    0.00040884
     atom   17 type  6   force =     0.00001956    0.00001521   -0.00040884
     atom   18 type  6   force =     0.00001352    0.00004159   -0.00033480
     atom   19 type  6   force =    -0.00001352    0.00004159    0.00033480
     atom   20 type  6   force =    -0.00004807   -0.00010863    0.00042122
     atom   21 type  6   force =     0.00004807   -0.00010863   -0.00042122
     atom   22 type  6   force =    -0.00001415    0.00005645    0.00008756
     atom   23 type  6   force =     0.00001415    0.00005645   -0.00008756
     atom   24 type  6   force =    -0.00017229    0.00095925    0.00014554
     atom   25 type  6   force =     0.00017229    0.00095925   -0.00014554
     atom   26 type  6   force =     0.00080462    0.00006635    0.00017573
     atom   27 type  6   force =    -0.00080462    0.00006635   -0.00017573
     atom   28 type  6   force =     0.00042614   -0.00061321   -0.00013154
     atom   29 type  6   force =    -0.00042614   -0.00061321    0.00013154
     atom   30 type  6   force =    -0.00028013    0.00046930    0.00016057
     atom   31 type  6   force =     0.00028013    0.00046930   -0.00016057
     atom   32 type  6   force =     0.00088264   -0.00042717    0.00038535
     atom   33 type  6   force =    -0.00088264   -0.00042717   -0.00038535
     atom   34 type  6   force =     0.00060908   -0.00048994   -0.00034554
     atom   35 type  6   force =    -0.00060908   -0.00048994    0.00034554
     atom   36 type  6   force =     0.00017117   -0.00002987   -0.00044318
     atom   37 type  6   force =    -0.00017117   -0.00002987    0.00044318
     atom   38 type  6   force =     0.00000460    0.00006137   -0.00052707
     atom   39 type  6   force =    -0.00000460    0.00006137    0.00052707
     atom   40 type  3   force =     0.00005933    0.00010063   -0.00012937
     atom   41 type  3   force =    -0.00005933    0.00010063    0.00012937
     atom   42 type  3   force =     0.00008686   -0.00041210   -0.00031402
     atom   43 type  3   force =    -0.00008686   -0.00041210    0.00031402
     atom   44 type  2   force =     0.00000000   -0.00055611    0.00000000

     Total force =     0.004166     Total SCF correction =     0.000057

     DFT-D3 dispersion Force =     0.004405
     Energy error            =      3.4E-05 Ry
     Gradient error          =      9.5E-04 Ry/Bohr

     bfgs converged in  10 scf cycles and   9 bfgs steps
     (criteria: energy <  1.0E-04 Ry, force <  1.0E-03 Ry/Bohr)

     End of BFGS Geometry Optimization

     Final energy             =   -2631.2467866841 Ry

     File ./temp/phl-fe1-fe4.bfgs deleted, as requested
Begin final coordinates

ATOMIC_POSITIONS (crystal)
K                0.0000000000        0.4932956391        0.0000000000
K                0.5000000000        0.0046699405        0.0000000000
Mg              -0.0000000000        0.0040025403        0.5000000000
Mg              -0.0000000000        0.3325438843        0.5000000000
Mg              -0.0000000000        0.6659010380        0.5000000000
Mg               0.5000000000        0.8352444242        0.5000000000
Mg               0.5000000000        0.1693805314        0.5000000000
Si               0.0827577912        0.1650904478        0.2219737022
Si               0.9172421948        0.1650904478        0.7780263278
Si               0.9348303986        0.8342902481        0.7720662991
Si               0.0651696014        0.8342902481        0.2279337009
Si               0.5644053427        0.6674343879        0.2259761687
Si               0.4355946573        0.6674343879        0.7740238163
Al               0.4160084814        0.3312426105        0.7763343836
Al               0.5839915186        0.3312426105        0.2236656164
O                0.1275721876        0.1631952740        0.3844165380
O                0.8724277824        0.1631952740        0.6155834910
O                0.8743071296        0.8334075585        0.6109694922
O                0.1256928704        0.8334075585        0.3890305078
O                0.6276619102        0.6738390572        0.3875764409
O                0.3723380898        0.6738390572        0.6124235591
O                0.3601433598        0.3284648942        0.6036684047
O                0.6398566402        0.3284648942        0.3963315953
O                0.3419606610        0.2033475531        0.1642779648
O                0.6580393390        0.2033475531        0.8357220052
O                0.9952452438        0.9973285448        0.1668863931
O                0.0047547562        0.9973285448        0.8331135919
O                0.6838909239        0.7750067373        0.8323870862
O                0.3161090761        0.7750067373        0.1676129138
O                0.8152004365        0.7322702240        0.1661080793
O                0.1847995635        0.7322702240        0.8338919207
O                0.4966025183        0.5080867431        0.1625780725
O                0.5033974517        0.5080867431        0.8374219425
O                0.1441810514        0.2765192666        0.8416965912
O                0.8558189636        0.2765192666        0.1583034088
O                0.1181399309        0.5036977919        0.3916052355
O                0.8818600841        0.5036977919        0.6083947645
O                0.6329682947        0.9992012314        0.3971940062
O                0.3670317053        0.9992012314        0.6028059638
H                0.1008635776        0.4954875172        0.2960555618
H                0.8991364524        0.4954875172        0.7039444382
H                0.5957150690        0.0136490845        0.3019911782
H                0.4042849310        0.0136490845        0.6980088218
Fe               0.5000000000        0.4918387108        0.5000000000
End final coordinates



     Writing all to output data dir ./temp/phl-fe1-fe4.save/ :
     XML data file, charge density, pseudopotentials, collected wavefunctions

     init_run     :     70.60s CPU     73.31s WALL (       1 calls)
     electrons    :  40838.01s CPU  41247.06s WALL (      10 calls)
     update_pot   :     22.03s CPU     22.21s WALL (       9 calls)
     forces       :    724.09s CPU    730.04s WALL (      10 calls)
     force_dftd3  :     28.63s CPU     28.95s WALL (      10 calls)

     Called by init_run:
     wfcinit      :     64.92s CPU     66.70s WALL (       1 calls)
     wfcinit:atom :      0.40s CPU      0.59s WALL (      40 calls)
     wfcinit:wfcr :     61.80s CPU     63.07s WALL (      40 calls)
     potinit      :      2.22s CPU      2.28s WALL (       1 calls)
     hinit0       :      0.75s CPU      0.82s WALL (       1 calls)

     Called by electrons:
     c_bands      :  36439.22s CPU  36714.42s WALL (      97 calls)
     sum_band     :   3855.82s CPU   3945.07s WALL (      97 calls)
     v_of_rho     :     53.34s CPU     54.92s WALL (     101 calls)
     v_h          :      2.36s CPU      2.46s WALL (     101 calls)
     v_xc         :     55.97s CPU     57.74s WALL (     111 calls)
     newd         :    329.52s CPU    374.94s WALL (     101 calls)
     PAW_pot      :    191.99s CPU    192.09s WALL (     110 calls)
     mix_rho      :      9.27s CPU      9.59s WALL (      97 calls)
     energy_dftd3 :     21.77s CPU     21.77s WALL (      10 calls)

     Called by c_bands:
     init_us_2    :    291.46s CPU    291.66s WALL (    8560 calls)
     cegterg      :  36051.44s CPU  36323.38s WALL (    3880 calls)

     Called by sum_band:
     sum_band:wei :      0.06s CPU      0.10s WALL (      97 calls)
     sum_band:loo :   3175.34s CPU   3205.71s WALL (      97 calls)
     sum_band:buf :     37.56s CPU     37.64s WALL (    3880 calls)
     sum_band:ini :    131.03s CPU    131.08s WALL (    3880 calls)
     sum_band:cal :   1501.82s CPU   1502.97s WALL (    4240 calls)
     sum_band:bec :      4.33s CPU      4.36s WALL (    4240 calls)
     addusdens    :    569.24s CPU    626.75s WALL (      97 calls)
                                        0.00s GPU  (      97 calls)
     addusd:skk   :      3.23s CPU      4.51s WALL (     679 calls)
                                        0.00s GPU  (     679 calls)

     Called by *egterg:
     cdiaghg      :   1729.12s CPU   1745.40s WALL (   28335 calls)
     cegterg:over :   6012.34s CPU   6014.94s WALL (   25055 calls)
     cegterg:upda :   2926.91s CPU   2936.73s WALL (   25055 calls)
     cegterg:last :   5879.73s CPU   5882.64s WALL (   10586 calls)
     cdiaghg:chol :     49.07s CPU     49.38s WALL (   28335 calls)
     cdiaghg:inve :     33.73s CPU     33.80s WALL (   28335 calls)
     cdiaghg:para :    426.44s CPU    433.39s WALL (   56670 calls)
     h_psi        :  14697.16s CPU  14883.10s WALL (   28975 calls)
     s_psi        :   2711.09s CPU   2713.57s WALL (   28975 calls)
     g_psi        :     34.66s CPU     34.73s WALL (   25055 calls)

     Called by h_psi:
     h_psi:calbec :   4364.57s CPU   4369.43s WALL (   28975 calls)
     vloc_psi     :   7453.79s CPU   7604.78s WALL (   28975 calls)
     add_vuspsi   :   2813.39s CPU   2816.36s WALL (   28975 calls)

     General routines
     calbec       :   6439.91s CPU   6446.34s WALL (   34815 calls)
     fft          :     41.23s CPU     43.57s WALL (    2676 calls)
     ffts         :      1.16s CPU      1.19s WALL (     396 calls)
     fftw         :   5863.11s CPU   5974.27s WALL ( 4348118 calls)
     interpolate  :      4.97s CPU      5.13s WALL (     202 calls)

     Parallel routines

     PAW routines
     PAW_pot      :    191.99s CPU    192.09s WALL (     110 calls)
     PAW_symme    :      0.16s CPU      0.16s WALL (     207 calls)

     PWSCF        :     11h37m CPU     11h44m WALL


   This run was terminated on:   2:21:50  25Jan2025            

=------------------------------------------------------------------------------=
   JOB DONE.
=------------------------------------------------------------------------------=
