
     Program PWSCF v.7.3.1 starts on 16Dec2024 at 21:35: 8 

     This program is part of the open-source Quantum ESPRESSO suite
     for quantum simulation of materials; please cite
         "P. Giannozzi et al., J. Phys.:Condens. Matter 21 395502 (2009);
         "P. Giannozzi et al., J. Phys.:Condens. Matter 29 465901 (2017);
         "P. Giannozzi et al., J. Chem. Phys. 152 154105 (2020);
          URL http://www.quantum-espresso.org", 
     in publications or presentations arising from this work. More details at
     http://www.quantum-espresso.org/quote

     Parallel version (MPI), running on    12 processors

     MPI processes distributed on     1 nodes
     10859 MiB available memory on the printing compute node when the environment starts

     Reading input from relax.in
Warning: card  &CELL ignored
Warning: card    CELL_DOFREE     = 'IBRAV' ignored
Warning: card  / ignored

     Current dimensions of program PWSCF are:
     Max number of different atomic species (ntypx) = 10
     Max number of k-points (npk) =  40000
     Max angular momentum in pseudopotentials (lmaxx) =  4
     file Al.pbe-n-kjpaw_psl.1.0.0.UPF: wavefunction(s)  3S 3P renormalized
     file Fe.pbe-spn-kjpaw_psl.1.0.0.UPF: wavefunction(s)  3P 3D renormalized
     file H.pbe-kjpaw_psl.1.0.0.UPF: wavefunction(s)  1S renormalized
     file K.pbe-spn-kjpaw_psl.1.0.0.UPF: wavefunction(s)  3S renormalized
     file Mg.pbe-spnl-kjpaw_psl.1.0.0.UPF: wavefunction(s)  2P renormalized
     file O.pbe-n-kjpaw_psl.1.0.0.UPF: wavefunction(s)  2S 2P renormalized
     file Si.pbe-n-kjpaw_psl.1.0.0.UPF: wavefunction(s)  3S 3P renormalized

     R & G space division:  proc/nbgrp/npool/nimage =      12
     Subspace diagonalization in iterative solution of the eigenvalue problem:
     one sub-group per band group will be used
     custom distributed-memory algorithm (size of sub-group:  2*  2 procs)


     Parallelization info
     --------------------
     sticks:   dense  smooth     PW     G-vecs:    dense   smooth      PW
     Min         550     276     75                48625    17197    2446
     Max         551     277     76                48631    17201    2449
     Sum        6609    3313    901               583539   206401   29369

     Using Slab Decomposition



     bravais-lattice index     =          -12
     lattice parameter (alat)  =       9.9883  a.u.
     unit-cell volume          =    3285.8057 (a.u.)^3
     number of atoms/cell      =           44
     number of atomic types    =            7
     number of electrons       =       262.00
     number of Kohn-Sham states=          157
     kinetic-energy cutoff     =      60.0000  Ry
     charge density cutoff     =     480.0000  Ry
     scf convergence threshold =      1.0E-06
     mixing beta               =       0.7000
     number of iterations used =            8  plain     mixing
     energy convergence thresh.=      1.0E-04
     force convergence thresh. =      1.0E-03
     Exchange-correlation= SLA  PW   PBX  PBC
                           (   1   4   3   4   0   0   0)
     nstep                     =           50


     celldm(1)=   9.988336  celldm(2)=   1.736567  celldm(3)=   1.928182
     celldm(4)=   0.000000  celldm(5)=  -0.174018  celldm(6)=   0.000000

     crystal axes: (cart. coord. in units of alat)
               a(1) = (   1.000000   0.000000   0.000000 )  
               a(2) = (   0.000000   1.736567   0.000000 )  
               a(3) = (  -0.335538   0.000000   1.898763 )  

     reciprocal axes: (cart. coord. in units 2 pi/alat)
               b(1) = (  1.000000 -0.000000  0.176714 )  
               b(2) = (  0.000000  0.575849 -0.000000 )  
               b(3) = (  0.000000  0.000000  0.526659 )  


     PseudoPot. # 1 for Al read from file:
     ./../../pseudos/Al.pbe-n-kjpaw_psl.1.0.0.UPF
     MD5 check sum: 502b6b27b9c6270cab5dd1084b96fa6d
     Pseudo is Projector augmented-wave + core cor, Zval =  3.0
     Generated using &quot;atomic&quot; code by A. Dal Corso  v.6.3
     Shape of augmentation charge: PSQ
     Using radial grid of 1135 points,  6 beta functions with: 
                l(1) =   0
                l(2) =   0
                l(3) =   1
                l(4) =   1
                l(5) =   2
                l(6) =   2
     Q(r) pseudized with 0 coefficients 


     PseudoPot. # 2 for Fe read from file:
     ./../../pseudos/Fe.pbe-spn-kjpaw_psl.1.0.0.UPF
     MD5 check sum: fc81f059e5c5069939230b1155715ae8
     Pseudo is Projector augmented-wave + core cor, Zval = 16.0
     Generated using &quot;atomic&quot; code by A. Dal Corso  v.6.3
     Shape of augmentation charge: PSQ
     Using radial grid of 1191 points,  6 beta functions with: 
                l(1) =   0
                l(2) =   0
                l(3) =   1
                l(4) =   1
                l(5) =   2
                l(6) =   2
     Q(r) pseudized with 0 coefficients 


     PseudoPot. # 3 for H  read from file:
     ./../../pseudos/H.pbe-kjpaw_psl.1.0.0.UPF
     MD5 check sum: d81a744832360e4a8af0b0b5b123bc2a
     Pseudo is Projector augmented-wave, Zval =  1.0
     Generated using &quot;atomic&quot; code by A. Dal Corso  v.6.3MaX
     Shape of augmentation charge: PSQ
     Using radial grid of  929 points,  2 beta functions with: 
                l(1) =   0
                l(2) =   0
     Q(r) pseudized with 0 coefficients 


     PseudoPot. # 4 for K  read from file:
     ./../../pseudos/K.pbe-spn-kjpaw_psl.1.0.0.UPF
     MD5 check sum: 34cc42130a09071ebe376fd42eb21491
     Pseudo is Projector augmented-wave + core cor, Zval =  9.0
     Generated using &quot;atomic&quot; code by A. Dal Corso  v.6.2.2
     Shape of augmentation charge: PSQ
     Using radial grid of 1165 points,  6 beta functions with: 
                l(1) =   0
                l(2) =   0
                l(3) =   1
                l(4) =   1
                l(5) =   2
                l(6) =   2
     Q(r) pseudized with 0 coefficients 


     PseudoPot. # 5 for Mg read from file:
     ./../../pseudos/Mg.pbe-spnl-kjpaw_psl.1.0.0.UPF
     MD5 check sum: fda14e0d92a6a9a5ebed782e5a4b3067
     Pseudo is Projector augmented-wave + core cor, Zval = 10.0
     Generated using &quot;atomic&quot; code by A. Dal Corso  v.6.3
     Shape of augmentation charge: PSQ
     Using radial grid of 1129 points,  4 beta functions with: 
                l(1) =   0
                l(2) =   0
                l(3) =   1
                l(4) =   1
     Q(r) pseudized with 0 coefficients 


     PseudoPot. # 6 for O  read from file:
     ./../../pseudos/O.pbe-n-kjpaw_psl.1.0.0.UPF
     MD5 check sum: e99d9cef9b487d1ca56f5b95ecd0fd7a
     Pseudo is Projector augmented-wave + core cor, Zval =  6.0
     Generated using &quot;atomic&quot; code by A. Dal Corso  v.6.3
     Shape of augmentation charge: PSQ
     Using radial grid of 1095 points,  4 beta functions with: 
                l(1) =   0
                l(2) =   0
                l(3) =   1
                l(4) =   1
     Q(r) pseudized with 0 coefficients 


     PseudoPot. # 7 for Si read from file:
     ./../../pseudos/Si.pbe-n-kjpaw_psl.1.0.0.UPF
     MD5 check sum: c39c59da582df4a0d9f10159256ea34e
     Pseudo is Projector augmented-wave + core cor, Zval =  4.0
     Generated using &quot;atomic&quot; code by A. Dal Corso  v.6.3
     Shape of augmentation charge: PSQ
     Using radial grid of 1141 points,  6 beta functions with: 
                l(1) =   0
                l(2) =   0
                l(3) =   1
                l(4) =   1
                l(5) =   2
                l(6) =   2
     Q(r) pseudized with 0 coefficients 


     atomic species   valence    mass     pseudopotential
     Al                3.00    26.98154     Al( 1.00)
     Fe               16.00    55.84500     Fe( 1.00)
     H                 1.00     1.00794     H ( 1.00)
     K                 9.00    39.09830     K ( 1.00)
     Mg               10.00    24.30500     Mg( 1.00)
     O                 6.00    15.99940     O ( 1.00)
     Si                4.00    28.08550     Si( 1.00)

     Starting magnetic structure 
     atomic species   magnetization
     Al              0.000
     Fe              0.300
     H               0.000
     K               0.000
     Mg              0.000
     O               0.000
     Si              0.000

      2 Sym. Ops. (no inversion) found


                                    s                        frac. trans.

      isym =  1     identity                                     

 cryst.   s( 1) = (     1          0          0      )
                  (     0          1          0      )
                  (     0          0          1      )

 cart.    s( 1) = (  1.0000000  0.0000000  0.0000000 )
                  (  0.0000000  1.0000000  0.0000000 )
                  (  0.0000000  0.0000000  1.0000000 )


      isym =  2     180 deg rotation - cart. axis [0,1,0]        

 cryst.   s( 2) = (    -1          0          0      )
                  (     0          1          0      )
                  (     0          0         -1      )

 cart.    s( 2) = ( -1.0000000  0.0000000  0.0000000 )
                  (  0.0000000  1.0000000  0.0000000 )
                  (  0.0000000  0.0000000 -1.0000000 )


     point group C_2  (2)   
     there are  2 classes
     the character table:

       E     C2   
A      1.00  1.00
B      1.00 -1.00

     the symmetry operations in each class and the name of the first element:

     E        1
          identity                                               
     C2       2
          180 deg rotation - cart. axis [0,1,0]                  

   Cartesian axes

     site n.     atom                  positions (alat units)
         1        K      tau(   1) = (   0.0000000   0.8568223   0.0000000  )
         2        K      tau(   2) = (   0.5000000   0.0097248   0.0000000  )
         3        Mg     tau(   3) = (  -0.1677688   0.0062516   0.9493815  )
         4        Mg     tau(   4) = (  -0.1677688   0.5789715   0.9493815  )
         5        Mg     tau(   5) = (  -0.1677688   1.1532543   0.9493815  )
         6        Mg     tau(   6) = (   0.3322312   1.4489917   0.9493815  )
         7        Mg     tau(   7) = (   0.3322312   0.3011208   0.9493815  )
         8        Fe     tau(   8) = (   0.3322312   0.8644632   0.9493815  )
         9        Si     tau(   9) = (   0.0078751   0.2868809   0.4234242  )
        10        Si     tau(  10) = (   0.6565873   0.2868809   1.4753389  )
        11        Si     tau(  11) = (   0.6740999   1.4484708   1.4645160  )
        12        Si     tau(  12) = (  -0.0096375   1.4484708   0.4342471  )
        13        Si     tau(  13) = (   0.4895001   1.1563801   0.4306395  )
        14        Si     tau(  14) = (   0.1749623   1.1563801   1.4681237  )
        15        Al     tau(  15) = (   0.1565906   0.5770613   1.4724908  )
        16        Al     tau(  16) = (   0.5078718   0.5770613   0.4262723  )
        17        O      tau(  17) = (  -0.0026826   0.2835814   0.7315934  )
        18        O      tau(  18) = (   0.6671450   0.2835814   1.1671696  )
        19        O      tau(  19) = (   0.6695214   1.4455186   1.1588151  )
        20        O      tau(  20) = (  -0.0050590   1.4455186   0.7399480  )
        21        O      tau(  21) = (   0.4958430   1.1596796   0.7382391  )
        22        O      tau(  22) = (   0.1686195   1.1596796   1.1605239  )
        23        O      tau(  23) = (   0.1614037   0.5826183   1.1453339  )
        24        O      tau(  24) = (   0.5030587   0.5826183   0.7534292  )
        25        O      tau(  25) = (   0.2868665   0.3546070   0.3159542  )
        26        O      tau(  26) = (   0.3775959   0.3546070   1.5828089  )
        27        O      tau(  27) = (   0.9409297   1.7313575   0.3189922  )
        28        O      tau(  28) = (  -0.2764673   1.7313575   1.5797709  )
        29        O      tau(  29) = (   0.4011696   1.3470552   1.5767328  )
        30        O      tau(  30) = (   0.2632928   1.3470552   0.3220302  )
        31        O      tau(  31) = (   0.7619283   1.2692570   0.3201314  )
        32        O      tau(  32) = (  -0.0974659   1.2692570   1.5786317  )
        33        O      tau(  33) = (   0.4412429   0.8820025   0.3075996  )
        34        O      tau(  34) = (   0.2232195   0.8820025   1.5911635  )
        35        O      tau(  35) = (  -0.1370160   0.4799872   1.5930622  )
        36        O      tau(  36) = (   0.8014784   0.4799872   0.3057009  )
        37        O      tau(  37) = (   0.0045271   0.8729723   0.7519102  )
        38        O      tau(  38) = (   0.6599353   0.8729723   1.1468528  )
        39        O      tau(  39) = (   0.4991915   1.7355254   0.7538090  )
        40        O      tau(  40) = (   0.1652709   1.7355254   1.1449541  )
        41        H      tau(  41) = (   0.0188690   0.8575169   0.5722872  )
        42        H      tau(  42) = (   0.6455934   0.8575169   1.3264759  )
        43        H      tau(  43) = (   0.4947663   0.0220544   0.5745657  )
        44        H      tau(  44) = (   0.1696961   0.0220544   1.3241973  )

     -------------------------------------------------
     Parameters for Dispersion (Grimme-D2) Correction:
     -------------------------------------------------
       atom      VdW radius       C_6     

        Al         3.097        374.319
        Fe         2.952        374.666
        H          1.892          4.857
        K          2.806        374.666
        Mg         2.578        198.087
        O          2.536         24.284
        Si         3.243        320.200

   Crystallographic axes

     site n.     atom                  positions (cryst. coord.)
         1        K      tau(   1) = (  0.0000000  0.4934000  0.0000000  )
         2        K      tau(   2) = (  0.5000000  0.0056000  0.0000000  )
         3        Mg     tau(   3) = (  0.0000000  0.0036000  0.5000000  )
         4        Mg     tau(   4) = (  0.0000000  0.3334000  0.5000000  )
         5        Mg     tau(   5) = (  0.0000000  0.6641000  0.5000000  )
         6        Mg     tau(   6) = (  0.5000000  0.8344000  0.5000000  )
         7        Mg     tau(   7) = (  0.5000000  0.1734000  0.5000000  )
         8        Fe     tau(   8) = (  0.5000000  0.4978000  0.5000000  )
         9        Si     tau(   9) = (  0.0827000  0.1652000  0.2230000  )
        10        Si     tau(  10) = (  0.9173000  0.1652000  0.7770000  )
        11        Si     tau(  11) = (  0.9329000  0.8341000  0.7713000  )
        12        Si     tau(  12) = (  0.0671000  0.8341000  0.2287000  )
        13        Si     tau(  13) = (  0.5656000  0.6659000  0.2268000  )
        14        Si     tau(  14) = (  0.4344000  0.6659000  0.7732000  )
        15        Al     tau(  15) = (  0.4168000  0.3323000  0.7755000  )
        16        Al     tau(  16) = (  0.5832000  0.3323000  0.2245000  )
        17        O      tau(  17) = (  0.1266000  0.1633000  0.3853000  )
        18        O      tau(  18) = (  0.8734000  0.1633000  0.6147000  )
        19        O      tau(  19) = (  0.8743000  0.8324000  0.6103000  )
        20        O      tau(  20) = (  0.1257000  0.8324000  0.3897000  )
        21        O      tau(  21) = (  0.6263000  0.6678000  0.3888000  )
        22        O      tau(  22) = (  0.3737000  0.6678000  0.6112000  )
        23        O      tau(  23) = (  0.3638000  0.3355000  0.6032000  )
        24        O      tau(  24) = (  0.6362000  0.3355000  0.3968000  )
        25        O      tau(  25) = (  0.3427000  0.2042000  0.1664000  )
        26        O      tau(  26) = (  0.6573000  0.2042000  0.8336000  )
        27        O      tau(  27) = (  0.9973000  0.9970000  0.1680000  )
        28        O      tau(  28) = (  0.0027000  0.9970000  0.8320000  )
        29        O      tau(  29) = (  0.6798000  0.7757000  0.8304000  )
        30        O      tau(  30) = (  0.3202000  0.7757000  0.1696000  )
        31        O      tau(  31) = (  0.8185000  0.7309000  0.1686000  )
        32        O      tau(  32) = (  0.1815000  0.7309000  0.8314000  )
        33        O      tau(  33) = (  0.4956000  0.5079000  0.1620000  )
        34        O      tau(  34) = (  0.5044000  0.5079000  0.8380000  )
        35        O      tau(  35) = (  0.1445000  0.2764000  0.8390000  )
        36        O      tau(  36) = (  0.8555000  0.2764000  0.1610000  )
        37        O      tau(  37) = (  0.1374000  0.5027000  0.3960000  )
        38        O      tau(  38) = (  0.8626000  0.5027000  0.6040000  )
        39        O      tau(  39) = (  0.6324000  0.9994000  0.3970000  )
        40        O      tau(  40) = (  0.3676000  0.9994000  0.6030000  )
        41        H      tau(  41) = (  0.1200000  0.4938000  0.3014000  )
        42        H      tau(  42) = (  0.8800000  0.4938000  0.6986000  )
        43        H      tau(  43) = (  0.5963000  0.0127000  0.3026000  )
        44        H      tau(  44) = (  0.4037000  0.0127000  0.6974000  )

     number of k points=    20  Gaussian smearing, width (Ry)=  0.0010
                       cart. coord. in units 2pi/alat
        k(    1) = (   0.0000000   0.0000000   0.0000000), wk =   0.0185185
        k(    2) = (   0.0000000   0.0000000   0.1755529), wk =   0.0370370
        k(    3) = (   0.0000000   0.1919496   0.0000000), wk =   0.0370370
        k(    4) = (   0.0000000   0.1919496   0.1755529), wk =   0.0740741
        k(    5) = (   0.1666667   0.0000000   0.0294523), wk =   0.0370370
        k(    6) = (   0.1666667   0.0000000   0.2050052), wk =   0.0370370
        k(    7) = (   0.1666667   0.0000000  -0.1461006), wk =   0.0370370
        k(    8) = (   0.1666667   0.1919496   0.0294523), wk =   0.0740741
        k(    9) = (   0.1666667   0.1919496   0.2050052), wk =   0.0740741
        k(   10) = (   0.1666667   0.1919496  -0.1461006), wk =   0.0740741
        k(   11) = (   0.3333333   0.0000000   0.0589046), wk =   0.0370370
        k(   12) = (   0.3333333   0.0000000   0.2344575), wk =   0.0370370
        k(   13) = (   0.3333333   0.0000000  -0.1166483), wk =   0.0370370
        k(   14) = (   0.3333333   0.1919496   0.0589046), wk =   0.0740741
        k(   15) = (   0.3333333   0.1919496   0.2344575), wk =   0.0740741
        k(   16) = (   0.3333333   0.1919496  -0.1166483), wk =   0.0740741
        k(   17) = (  -0.5000000   0.0000000  -0.0883569), wk =   0.0185185
        k(   18) = (  -0.5000000   0.0000000   0.0871960), wk =   0.0370370
        k(   19) = (  -0.5000000   0.1919496  -0.0883569), wk =   0.0370370
        k(   20) = (  -0.5000000   0.1919496   0.0871960), wk =   0.0740741

                       cryst. coord.
        k(    1) = (   0.0000000   0.0000000   0.0000000), wk =   0.0185185
        k(    2) = (   0.0000000   0.0000000   0.3333333), wk =   0.0370370
        k(    3) = (   0.0000000   0.3333333   0.0000000), wk =   0.0370370
        k(    4) = (   0.0000000   0.3333333   0.3333333), wk =   0.0740741
        k(    5) = (   0.1666667   0.0000000   0.0000000), wk =   0.0370370
        k(    6) = (   0.1666667   0.0000000   0.3333333), wk =   0.0370370
        k(    7) = (   0.1666667   0.0000000  -0.3333333), wk =   0.0370370
        k(    8) = (   0.1666667   0.3333333   0.0000000), wk =   0.0740741
        k(    9) = (   0.1666667   0.3333333   0.3333333), wk =   0.0740741
        k(   10) = (   0.1666667   0.3333333  -0.3333333), wk =   0.0740741
        k(   11) = (   0.3333333   0.0000000   0.0000000), wk =   0.0370370
        k(   12) = (   0.3333333   0.0000000   0.3333333), wk =   0.0370370
        k(   13) = (   0.3333333   0.0000000  -0.3333333), wk =   0.0370370
        k(   14) = (   0.3333333   0.3333333   0.0000000), wk =   0.0740741
        k(   15) = (   0.3333333   0.3333333   0.3333333), wk =   0.0740741
        k(   16) = (   0.3333333   0.3333333  -0.3333333), wk =   0.0740741
        k(   17) = (  -0.5000000   0.0000000   0.0000000), wk =   0.0185185
        k(   18) = (  -0.5000000   0.0000000   0.3333333), wk =   0.0370370
        k(   19) = (  -0.5000000   0.3333333   0.0000000), wk =   0.0370370
        k(   20) = (  -0.5000000   0.3333333   0.3333333), wk =   0.0740741

     Dense  grid:   583539 G-vectors     FFT dimensions: (  72, 125, 135)

     Smooth grid:   206401 G-vectors     FFT dimensions: (  50,  90,  96)

     Dynamical RAM for                 wfc:       5.15 MB

     Dynamical RAM for     wfc (w. buffer):     211.08 MB

     Dynamical RAM for           str. fact:       5.19 MB

     Dynamical RAM for           local pot:       0.00 MB

     Dynamical RAM for          nlocal pot:      14.36 MB

     Dynamical RAM for                qrad:      12.30 MB

     Dynamical RAM for          rho,v,vnew:       9.40 MB

     Dynamical RAM for               rhoin:       3.13 MB

     Dynamical RAM for            rho*nmix:      23.74 MB

     Dynamical RAM for           G-vectors:       2.91 MB

     Dynamical RAM for          h,s,v(r/c):       1.13 MB

     Dynamical RAM for          <psi|beta>:       1.05 MB

     Dynamical RAM for                 psi:      10.30 MB

     Dynamical RAM for                hpsi:      10.30 MB

     Dynamical RAM for                spsi:      10.30 MB

     Dynamical RAM for      wfcinit/wfcrot:      12.77 MB

     Dynamical RAM for           addusdens:     156.57 MB

     Dynamical RAM for          addusforce:     190.89 MB

     Dynamical RAM for         addusstress:     150.26 MB

     Estimated static dynamical RAM per process >     269.26 MB

     Estimated max dynamical RAM per process >     483.89 MB

     Estimated total dynamical RAM >       5.67 GB

     Check: negative core charge=   -0.000004
     Generating pointlists ...
     new r_m :   0.1350 (alat units)  1.3483 (a.u.) for type    1
     new r_m :   0.1579 (alat units)  1.5768 (a.u.) for type    2
     new r_m :   0.0746 (alat units)  0.7448 (a.u.) for type    3
     new r_m :   0.2120 (alat units)  2.1178 (a.u.) for type    4
     new r_m :   0.1580 (alat units)  1.5784 (a.u.) for type    5
     new r_m :   0.0746 (alat units)  0.7448 (a.u.) for type    6
     new r_m :   0.1256 (alat units)  1.2548 (a.u.) for type    7

     Initial potential from superposition of free atoms

     starting charge     261.9493, renormalised to     262.0000
     Starting wfcs are  183 randomized atomic wfcs
     Checking if some PAW data can be deallocated... 
       PAW data deallocated on   11 nodes for type:  1
       PAW data deallocated on   11 nodes for type:  2
       PAW data deallocated on   10 nodes for type:  3
       PAW data deallocated on   11 nodes for type:  4
       PAW data deallocated on   10 nodes for type:  5
       PAW data deallocated on    5 nodes for type:  6
       PAW data deallocated on   10 nodes for type:  7

     total cpu time spent up to now is      174.3 secs

     Self-consistent Calculation

     iteration #  1     ecut=    60.00 Ry     beta= 0.70
     Davidson diagonalization with overlap

---- Real-time Memory Report at c_bands before calling an iterative solver
           326 MiB given to the printing process from OS
             0 MiB allocation reported by mallinfo(arena+hblkhd)
          8218 MiB available memory on the node where the printing process lives
------------------
     ethr =  1.00E-02,  avg # of iterations =  5.8

     total cpu time spent up to now is      756.2 secs

     total energy              =   -2623.83271928 Ry
     estimated scf accuracy    <      12.45935812 Ry

     total magnetization       =     4.00 Bohr mag/cell
     absolute magnetization    =     4.05 Bohr mag/cell

     iteration #  2     ecut=    60.00 Ry     beta= 0.70
     Davidson diagonalization with overlap

---- Real-time Memory Report at c_bands before calling an iterative solver
           511 MiB given to the printing process from OS
             0 MiB allocation reported by mallinfo(arena+hblkhd)
          6683 MiB available memory on the node where the printing process lives
------------------
     ethr =  4.76E-03,  avg # of iterations =  5.1

     negative rho (up, down):  0.000E+00 3.720E-05

     total cpu time spent up to now is     1624.9 secs

     total energy              =   -2629.27382211 Ry
     estimated scf accuracy    <      11.53095725 Ry

     total magnetization       =     4.00 Bohr mag/cell
     absolute magnetization    =     4.37 Bohr mag/cell

     iteration #  3     ecut=    60.00 Ry     beta= 0.70
     Davidson diagonalization with overlap

---- Real-time Memory Report at c_bands before calling an iterative solver
           512 MiB given to the printing process from OS
             0 MiB allocation reported by mallinfo(arena+hblkhd)
          6682 MiB available memory on the node where the printing process lives
------------------
     ethr =  4.40E-03,  avg # of iterations =  2.0

     negative rho (up, down):  0.000E+00 2.639E-04

     total cpu time spent up to now is     2126.7 secs

     total energy              =   -2630.16892046 Ry
     estimated scf accuracy    <       2.21513845 Ry

     total magnetization       =     4.86 Bohr mag/cell
     absolute magnetization    =     5.31 Bohr mag/cell

     iteration #  4     ecut=    60.00 Ry     beta= 0.70
     Davidson diagonalization with overlap

---- Real-time Memory Report at c_bands before calling an iterative solver
           513 MiB given to the printing process from OS
             0 MiB allocation reported by mallinfo(arena+hblkhd)
          6219 MiB available memory on the node where the printing process lives
------------------
     ethr =  8.45E-04,  avg # of iterations =  4.5

     negative rho (up, down):  0.000E+00 3.017E-04

     total cpu time spent up to now is     2848.7 secs

     total energy              =   -2631.25330640 Ry
     estimated scf accuracy    <       0.42124994 Ry

     total magnetization       =     4.00 Bohr mag/cell
     absolute magnetization    =     4.06 Bohr mag/cell

     iteration #  5     ecut=    60.00 Ry     beta= 0.70
     Davidson diagonalization with overlap

---- Real-time Memory Report at c_bands before calling an iterative solver
           514 MiB given to the printing process from OS
             0 MiB allocation reported by mallinfo(arena+hblkhd)
          6687 MiB available memory on the node where the printing process lives
------------------
     c_bands:  1 eigenvalues not converged
     c_bands:  1 eigenvalues not converged
     c_bands:  1 eigenvalues not converged
     c_bands:  1 eigenvalues not converged
     c_bands:  1 eigenvalues not converged
     ethr =  1.61E-04,  avg # of iterations = 13.9

     negative rho (up, down):  0.000E+00 3.856E-04

     total cpu time spent up to now is     3600.0 secs

     total energy              =   -2631.35307026 Ry
     estimated scf accuracy    <       0.09217611 Ry

     total magnetization       =     4.00 Bohr mag/cell
     absolute magnetization    =     4.09 Bohr mag/cell

     iteration #  6     ecut=    60.00 Ry     beta= 0.70
     Davidson diagonalization with overlap

---- Real-time Memory Report at c_bands before calling an iterative solver
           516 MiB given to the printing process from OS
             0 MiB allocation reported by mallinfo(arena+hblkhd)
          6571 MiB available memory on the node where the printing process lives
------------------
     c_bands:  1 eigenvalues not converged
     c_bands:  2 eigenvalues not converged
     c_bands:  2 eigenvalues not converged
     c_bands:  3 eigenvalues not converged
     c_bands:  2 eigenvalues not converged
     c_bands:  2 eigenvalues not converged
     c_bands:  1 eigenvalues not converged
     c_bands:  2 eigenvalues not converged
     c_bands:  1 eigenvalues not converged
     c_bands:  1 eigenvalues not converged
     c_bands:  1 eigenvalues not converged
     c_bands:  2 eigenvalues not converged
     c_bands:  3 eigenvalues not converged
     c_bands:  3 eigenvalues not converged
     ethr =  3.52E-05,  avg # of iterations = 12.9

     negative rho (up, down):  0.000E+00 3.426E-04

     total cpu time spent up to now is     4389.3 secs

     total energy              =   -2631.36609277 Ry
     estimated scf accuracy    <       0.06504997 Ry

     total magnetization       =     4.00 Bohr mag/cell
     absolute magnetization    =     4.07 Bohr mag/cell

     iteration #  7     ecut=    60.00 Ry     beta= 0.70
     Davidson diagonalization with overlap

---- Real-time Memory Report at c_bands before calling an iterative solver
           517 MiB given to the printing process from OS
             0 MiB allocation reported by mallinfo(arena+hblkhd)
          6486 MiB available memory on the node where the printing process lives
------------------
     c_bands:  1 eigenvalues not converged
     c_bands:  1 eigenvalues not converged
     c_bands:  1 eigenvalues not converged
     c_bands:  1 eigenvalues not converged
     c_bands:  2 eigenvalues not converged
     c_bands:  2 eigenvalues not converged
     c_bands:  3 eigenvalues not converged
     ethr =  2.48E-05,  avg # of iterations =  9.2

     negative rho (up, down):  0.000E+00 3.059E-04

     total cpu time spent up to now is     4915.5 secs

     total energy              =   -2631.36263560 Ry
     estimated scf accuracy    <       0.03053061 Ry

     total magnetization       =     4.00 Bohr mag/cell
     absolute magnetization    =     4.07 Bohr mag/cell

     iteration #  8     ecut=    60.00 Ry     beta= 0.70
     Davidson diagonalization with overlap

---- Real-time Memory Report at c_bands before calling an iterative solver
           518 MiB given to the printing process from OS
             0 MiB allocation reported by mallinfo(arena+hblkhd)
          6324 MiB available memory on the node where the printing process lives
------------------
     c_bands:  1 eigenvalues not converged
     c_bands:  1 eigenvalues not converged
     c_bands:  1 eigenvalues not converged
     c_bands:  1 eigenvalues not converged
     c_bands:  1 eigenvalues not converged
     c_bands:  1 eigenvalues not converged
     c_bands:  2 eigenvalues not converged
     c_bands:  1 eigenvalues not converged
     ethr =  1.17E-05,  avg # of iterations = 11.7

     negative rho (up, down):  0.000E+00 2.773E-04

     total cpu time spent up to now is     5544.1 secs

     total energy              =   -2631.36510965 Ry
     estimated scf accuracy    <       0.00740644 Ry

     total magnetization       =     4.00 Bohr mag/cell
     absolute magnetization    =     4.07 Bohr mag/cell

     iteration #  9     ecut=    60.00 Ry     beta= 0.70
     Davidson diagonalization with overlap

---- Real-time Memory Report at c_bands before calling an iterative solver
           520 MiB given to the printing process from OS
             0 MiB allocation reported by mallinfo(arena+hblkhd)
          6540 MiB available memory on the node where the printing process lives
------------------
     c_bands:  1 eigenvalues not converged
     c_bands:  1 eigenvalues not converged
     c_bands:  2 eigenvalues not converged
     c_bands:  1 eigenvalues not converged
     c_bands:  1 eigenvalues not converged
     c_bands:  1 eigenvalues not converged
     c_bands:  1 eigenvalues not converged
     c_bands:  1 eigenvalues not converged
     c_bands:  2 eigenvalues not converged
     c_bands:  1 eigenvalues not converged
     c_bands:  1 eigenvalues not converged
     c_bands:  2 eigenvalues not converged
     c_bands:  1 eigenvalues not converged
     c_bands:  2 eigenvalues not converged
     c_bands:  1 eigenvalues not converged
     c_bands:  1 eigenvalues not converged
     ethr =  2.83E-06,  avg # of iterations = 14.5

     negative rho (up, down):  0.000E+00 2.606E-04

     total cpu time spent up to now is     6466.9 secs

     total energy              =   -2631.36877208 Ry
     estimated scf accuracy    <       0.00089656 Ry

     total magnetization       =     4.00 Bohr mag/cell
     absolute magnetization    =     4.06 Bohr mag/cell

     iteration # 10     ecut=    60.00 Ry     beta= 0.70
     Davidson diagonalization with overlap

---- Real-time Memory Report at c_bands before calling an iterative solver
           521 MiB given to the printing process from OS
             0 MiB allocation reported by mallinfo(arena+hblkhd)
          6536 MiB available memory on the node where the printing process lives
------------------
     c_bands:  1 eigenvalues not converged
     c_bands:  1 eigenvalues not converged
     c_bands:  1 eigenvalues not converged
     c_bands:  1 eigenvalues not converged
     c_bands:  1 eigenvalues not converged
     c_bands:  1 eigenvalues not converged
     c_bands:  1 eigenvalues not converged
     ethr =  3.42E-07,  avg # of iterations =  9.1

     negative rho (up, down):  0.000E+00 2.597E-04

     total cpu time spent up to now is     7303.7 secs

     total energy              =   -2631.36937130 Ry
     estimated scf accuracy    <       0.00099020 Ry

     total magnetization       =     4.00 Bohr mag/cell
     absolute magnetization    =     4.06 Bohr mag/cell

     iteration # 11     ecut=    60.00 Ry     beta= 0.70
     Davidson diagonalization with overlap

---- Real-time Memory Report at c_bands before calling an iterative solver
           521 MiB given to the printing process from OS
             0 MiB allocation reported by mallinfo(arena+hblkhd)
          6502 MiB available memory on the node where the printing process lives
------------------
     c_bands:  1 eigenvalues not converged
     c_bands:  1 eigenvalues not converged
     c_bands:  1 eigenvalues not converged
     ethr =  3.42E-07,  avg # of iterations =  3.4

     negative rho (up, down):  0.000E+00 2.636E-04

     total cpu time spent up to now is     7785.7 secs

     total energy              =   -2631.36956095 Ry
     estimated scf accuracy    <       0.00043872 Ry

     total magnetization       =     4.00 Bohr mag/cell
     absolute magnetization    =     4.06 Bohr mag/cell

     iteration # 12     ecut=    60.00 Ry     beta= 0.70
     Davidson diagonalization with overlap

---- Real-time Memory Report at c_bands before calling an iterative solver
           521 MiB given to the printing process from OS
             0 MiB allocation reported by mallinfo(arena+hblkhd)
          6619 MiB available memory on the node where the printing process lives
------------------
     ethr =  1.67E-07,  avg # of iterations =  6.0

     negative rho (up, down):  0.000E+00 2.611E-04

     total cpu time spent up to now is     8592.1 secs

     total energy              =   -2631.36991979 Ry
     estimated scf accuracy    <       0.00085847 Ry

     total magnetization       =     4.00 Bohr mag/cell
     absolute magnetization    =     4.05 Bohr mag/cell

     iteration # 13     ecut=    60.00 Ry     beta= 0.70
     Davidson diagonalization with overlap

---- Real-time Memory Report at c_bands before calling an iterative solver
           521 MiB given to the printing process from OS
             0 MiB allocation reported by mallinfo(arena+hblkhd)
          6493 MiB available memory on the node where the printing process lives
------------------
     ethr =  1.67E-07,  avg # of iterations =  2.0

     negative rho (up, down):  0.000E+00 2.642E-04

     total cpu time spent up to now is     9034.4 secs

     total energy              =   -2631.36984398 Ry
     estimated scf accuracy    <       0.00063988 Ry

     total magnetization       =     4.00 Bohr mag/cell
     absolute magnetization    =     4.05 Bohr mag/cell

     iteration # 14     ecut=    60.00 Ry     beta= 0.70
     Davidson diagonalization with overlap

---- Real-time Memory Report at c_bands before calling an iterative solver
           521 MiB given to the printing process from OS
             0 MiB allocation reported by mallinfo(arena+hblkhd)
          6281 MiB available memory on the node where the printing process lives
------------------
     ethr =  1.67E-07,  avg # of iterations =  4.1

     negative rho (up, down):  0.000E+00 2.795E-04

     total cpu time spent up to now is     9743.1 secs

     total energy              =   -2631.36733522 Ry
     estimated scf accuracy    <       0.00042937 Ry

     total magnetization       =     4.00 Bohr mag/cell
     absolute magnetization    =     4.05 Bohr mag/cell

     iteration # 15     ecut=    60.00 Ry     beta= 0.70
     Davidson diagonalization with overlap

---- Real-time Memory Report at c_bands before calling an iterative solver
           521 MiB given to the printing process from OS
             0 MiB allocation reported by mallinfo(arena+hblkhd)
          6449 MiB available memory on the node where the printing process lives
------------------
     ethr =  1.64E-07,  avg # of iterations =  6.5

     negative rho (up, down):  0.000E+00 2.760E-04

     total cpu time spent up to now is    10579.5 secs

     total energy              =   -2631.36994701 Ry
     estimated scf accuracy    <       0.00233738 Ry

     total magnetization       =     4.00 Bohr mag/cell
     absolute magnetization    =     4.05 Bohr mag/cell

     iteration # 16     ecut=    60.00 Ry     beta= 0.70
     Davidson diagonalization with overlap

---- Real-time Memory Report at c_bands before calling an iterative solver
           521 MiB given to the printing process from OS
             0 MiB allocation reported by mallinfo(arena+hblkhd)
          6282 MiB available memory on the node where the printing process lives
------------------
     ethr =  1.64E-07,  avg # of iterations =  4.8

     negative rho (up, down):  0.000E+00 2.805E-04

     total cpu time spent up to now is    11294.4 secs

     total energy              =   -2631.37056284 Ry
     estimated scf accuracy    <       0.00023088 Ry

     total magnetization       =     4.00 Bohr mag/cell
     absolute magnetization    =     4.05 Bohr mag/cell

     iteration # 17     ecut=    60.00 Ry     beta= 0.70
     Davidson diagonalization with overlap

---- Real-time Memory Report at c_bands before calling an iterative solver
           521 MiB given to the printing process from OS
             0 MiB allocation reported by mallinfo(arena+hblkhd)
          6298 MiB available memory on the node where the printing process lives
------------------
     ethr =  8.81E-08,  avg # of iterations =  4.4

     negative rho (up, down):  0.000E+00 2.806E-04

     total cpu time spent up to now is    11815.5 secs

     total energy              =   -2631.37063925 Ry
     estimated scf accuracy    <       0.00022458 Ry

     total magnetization       =     4.00 Bohr mag/cell
     absolute magnetization    =     4.05 Bohr mag/cell

     iteration # 18     ecut=    60.00 Ry     beta= 0.70
     Davidson diagonalization with overlap

---- Real-time Memory Report at c_bands before calling an iterative solver
           521 MiB given to the printing process from OS
             0 MiB allocation reported by mallinfo(arena+hblkhd)
          6476 MiB available memory on the node where the printing process lives
------------------
     ethr =  8.57E-08,  avg # of iterations =  4.7

     negative rho (up, down):  0.000E+00 2.837E-04

     total cpu time spent up to now is    12491.8 secs

     total energy              =   -2631.37069218 Ry
     estimated scf accuracy    <       0.00039067 Ry

     total magnetization       =     4.00 Bohr mag/cell
     absolute magnetization    =     4.05 Bohr mag/cell

     iteration # 19     ecut=    60.00 Ry     beta= 0.70
     Davidson diagonalization with overlap

---- Real-time Memory Report at c_bands before calling an iterative solver
           521 MiB given to the printing process from OS
             0 MiB allocation reported by mallinfo(arena+hblkhd)
          6622 MiB available memory on the node where the printing process lives
------------------
     ethr =  8.57E-08,  avg # of iterations =  3.9

     negative rho (up, down):  0.000E+00 2.886E-04

     total cpu time spent up to now is    12993.2 secs

     total energy              =   -2631.37053488 Ry
     estimated scf accuracy    <       0.00007515 Ry

     total magnetization       =     4.00 Bohr mag/cell
     absolute magnetization    =     4.05 Bohr mag/cell

     iteration # 20     ecut=    60.00 Ry     beta= 0.70
     Davidson diagonalization with overlap

---- Real-time Memory Report at c_bands before calling an iterative solver
           521 MiB given to the printing process from OS
             0 MiB allocation reported by mallinfo(arena+hblkhd)
          6474 MiB available memory on the node where the printing process lives
------------------
     ethr =  2.87E-08,  avg # of iterations =  7.0

     negative rho (up, down):  0.000E+00 2.851E-04

     total cpu time spent up to now is    13755.1 secs

     total energy              =   -2631.37085190 Ry
     estimated scf accuracy    <       0.00015857 Ry

     total magnetization       =     4.00 Bohr mag/cell
     absolute magnetization    =     4.05 Bohr mag/cell

     iteration # 21     ecut=    60.00 Ry     beta= 0.70
     Davidson diagonalization with overlap

---- Real-time Memory Report at c_bands before calling an iterative solver
           521 MiB given to the printing process from OS
             0 MiB allocation reported by mallinfo(arena+hblkhd)
          6500 MiB available memory on the node where the printing process lives
------------------
     ethr =  2.87E-08,  avg # of iterations =  5.2

     negative rho (up, down):  0.000E+00 2.853E-04

     total cpu time spent up to now is    14270.4 secs

     total energy              =   -2631.37094916 Ry
     estimated scf accuracy    <       0.00000677 Ry

     total magnetization       =     4.00 Bohr mag/cell
     absolute magnetization    =     4.05 Bohr mag/cell

     iteration # 22     ecut=    60.00 Ry     beta= 0.70
     Davidson diagonalization with overlap

---- Real-time Memory Report at c_bands before calling an iterative solver
           521 MiB given to the printing process from OS
             0 MiB allocation reported by mallinfo(arena+hblkhd)
          6305 MiB available memory on the node where the printing process lives
------------------
     ethr =  2.58E-09,  avg # of iterations =  4.5

     negative rho (up, down):  0.000E+00 2.869E-04

     total cpu time spent up to now is    15016.6 secs

     total energy              =   -2631.37093184 Ry
     estimated scf accuracy    <       0.00000319 Ry

     total magnetization       =     4.00 Bohr mag/cell
     absolute magnetization    =     4.05 Bohr mag/cell

     iteration # 23     ecut=    60.00 Ry     beta= 0.70
     Davidson diagonalization with overlap

---- Real-time Memory Report at c_bands before calling an iterative solver
           521 MiB given to the printing process from OS
             0 MiB allocation reported by mallinfo(arena+hblkhd)
          6385 MiB available memory on the node where the printing process lives
------------------
     ethr =  1.22E-09,  avg # of iterations =  7.0

     negative rho (up, down):  0.000E+00 2.858E-04

     total cpu time spent up to now is    15612.5 secs

     total energy              =   -2631.37094742 Ry
     estimated scf accuracy    <       0.00000823 Ry

     total magnetization       =     4.00 Bohr mag/cell
     absolute magnetization    =     4.05 Bohr mag/cell

     iteration # 24     ecut=    60.00 Ry     beta= 0.70
     Davidson diagonalization with overlap

---- Real-time Memory Report at c_bands before calling an iterative solver
           521 MiB given to the printing process from OS
             0 MiB allocation reported by mallinfo(arena+hblkhd)
          6331 MiB available memory on the node where the printing process lives
------------------
     ethr =  1.22E-09,  avg # of iterations =  6.3

     negative rho (up, down):  0.000E+00 2.859E-04

     total cpu time spent up to now is    16164.5 secs

     total energy              =   -2631.37095637 Ry
     estimated scf accuracy    <       0.00000124 Ry

     total magnetization       =     4.00 Bohr mag/cell
     absolute magnetization    =     4.05 Bohr mag/cell

     iteration # 25     ecut=    60.00 Ry     beta= 0.70
     Davidson diagonalization with overlap

---- Real-time Memory Report at c_bands before calling an iterative solver
           521 MiB given to the printing process from OS
             0 MiB allocation reported by mallinfo(arena+hblkhd)
          6278 MiB available memory on the node where the printing process lives
------------------
     ethr =  4.75E-10,  avg # of iterations =  3.0

     negative rho (up, down):  0.000E+00 2.860E-04

     Magnetic moment per site  (integrated on atomic sphere of radius R)
     atom   1 (R=0.212)  charge=  7.4895  magn=  0.0001
     atom   2 (R=0.212)  charge=  7.4925  magn=  0.0000
     atom   3 (R=0.158)  charge=  8.1113  magn= -0.0000
     atom   4 (R=0.158)  charge=  8.1114  magn=  0.0006
     atom   5 (R=0.158)  charge=  8.1078  magn=  0.0003
     atom   6 (R=0.158)  charge=  8.1082  magn=  0.0002
     atom   7 (R=0.158)  charge=  8.1122  magn=  0.0007
     atom   8 (R=0.158)  charge= 13.3112  magn=  3.2752
     atom   9 (R=0.126)  charge=  0.5429  magn=  0.0000
     atom  10 (R=0.126)  charge=  0.5429  magn=  0.0000
     atom  11 (R=0.126)  charge=  0.5360  magn=  0.0000
     atom  12 (R=0.126)  charge=  0.5360  magn=  0.0000
     atom  13 (R=0.126)  charge=  0.5346  magn=  0.0015
     atom  14 (R=0.126)  charge=  0.5346  magn=  0.0015
     atom  15 (R=0.135)  charge=  0.3395  magn=  0.0013
     atom  16 (R=0.135)  charge=  0.3395  magn=  0.0013
     atom  17 (R=0.075)  charge=  1.8970  magn=  0.0004
     atom  18 (R=0.075)  charge=  1.8970  magn=  0.0004
     atom  19 (R=0.075)  charge=  1.8983  magn=  0.0002
     atom  20 (R=0.075)  charge=  1.8983  magn=  0.0002
     atom  21 (R=0.075)  charge=  1.8951  magn=  0.0166
     atom  22 (R=0.075)  charge=  1.8951  magn=  0.0166
     atom  23 (R=0.075)  charge=  1.8914  magn=  0.0262
     atom  24 (R=0.075)  charge=  1.8914  magn=  0.0262
     atom  25 (R=0.075)  charge=  1.8980  magn=  0.0004
     atom  26 (R=0.075)  charge=  1.8980  magn=  0.0004
     atom  27 (R=0.075)  charge=  1.9038  magn=  0.0000
     atom  28 (R=0.075)  charge=  1.9038  magn=  0.0000
     atom  29 (R=0.075)  charge=  1.9024  magn=  0.0005
     atom  30 (R=0.075)  charge=  1.9024  magn=  0.0005
     atom  31 (R=0.075)  charge=  1.9031  magn=  0.0012
     atom  32 (R=0.075)  charge=  1.9031  magn=  0.0012
     atom  33 (R=0.075)  charge=  1.8972  magn=  0.0001
     atom  34 (R=0.075)  charge=  1.8972  magn=  0.0001
     atom  35 (R=0.075)  charge=  1.8965  magn=  0.0009
     atom  36 (R=0.075)  charge=  1.8965  magn=  0.0009
     atom  37 (R=0.075)  charge=  1.8975  magn=  0.0212
     atom  38 (R=0.075)  charge=  1.8975  magn=  0.0212
     atom  39 (R=0.075)  charge=  1.8985  magn=  0.0007
     atom  40 (R=0.075)  charge=  1.8985  magn=  0.0007
     atom  41 (R=0.075)  charge=  0.4006  magn=  0.0000
     atom  42 (R=0.075)  charge=  0.4006  magn=  0.0000
     atom  43 (R=0.075)  charge=  0.3994  magn= -0.0000
     atom  44 (R=0.075)  charge=  0.3994  magn= -0.0000

     total cpu time spent up to now is    16612.4 secs

     End of self-consistent calculation

 ------ SPIN UP ------------


          k = 0.0000 0.0000 0.0000 ( 25799 PWs)   bands (ev):

   -80.6375 -67.4775 -67.4507 -67.3194 -66.9021 -66.8798 -47.6841 -46.4897
   -45.9441 -34.2495 -34.2264 -34.2214 -34.2071 -34.2051 -34.1919 -34.0813
   -34.0807 -34.0542 -33.6768 -33.6532 -33.6511 -33.6413 -33.6410 -33.5992
   -22.9537 -22.9007 -15.0290 -14.9746 -14.0847 -14.0393 -13.5583 -13.5357
   -13.3808 -13.2389 -13.1874 -13.0643 -12.8227 -12.8052 -12.8009 -12.7702
   -12.6875 -12.5762 -12.4697 -12.4042 -12.2153 -12.1918 -12.1415 -12.0037
   -11.1490 -10.8973  -6.5217  -6.4653  -6.4500  -6.4390  -6.3852  -6.3795
    -4.2144  -4.1562  -2.3558  -2.2531  -1.7840  -1.3485  -1.1027  -1.0885
    -1.0353  -0.9414  -0.6239  -0.4959  -0.4274  -0.2865  -0.2865  -0.0960
     0.0210   0.1369   0.2607   0.5528   0.6539   0.6689   0.7420   0.9373
     0.9414   1.1636   1.2480   1.3311   1.4347   1.5436   1.5748   1.7085
     1.8333   1.8533   1.9935   2.0877   2.1701   2.1984   2.2070   2.3466
     2.4163   2.4480   2.5628   2.7170   2.7630   2.7832   2.8332   2.8524
     2.9438   3.0633   3.0857   3.0956   3.1745   3.1937   3.3323   3.3779
     3.4260   3.4682   3.5119   3.5211   3.6196   3.7492   3.8542   3.8877
     3.9137   3.9858   3.9945   4.0387   4.0485   4.2987   4.4557   4.5591
     5.7719   5.9370   7.0141   7.5422   7.9181   9.2391  10.7493  11.4037
    11.7045  12.0466  12.2463  12.3564  12.6609  12.7724  13.1143  13.1743
    13.2221  13.3974  13.4214  13.6319  13.7262  13.7313  13.9072  13.9176
    13.9416  14.1845  14.3167  14.3485  14.4699

     occupation numbers 
     1.0000   1.0000   1.0000   1.0000   1.0000   1.0000   1.0000   1.0000
     1.0000   1.0000   1.0000   1.0000   1.0000   1.0000   1.0000   1.0000
     1.0000   1.0000   1.0000   1.0000   1.0000   1.0000   1.0000   1.0000
     1.0000   1.0000   1.0000   1.0000   1.0000   1.0000   1.0000   1.0000
     1.0000   1.0000   1.0000   1.0000   1.0000   1.0000   1.0000   1.0000
     1.0000   1.0000   1.0000   1.0000   1.0000   1.0000   1.0000   1.0000
     1.0000   1.0000   1.0000   1.0000   1.0000   1.0000   1.0000   1.0000
     1.0000   1.0000   1.0000   1.0000   1.0000   1.0000   1.0000   1.0000
     1.0000   1.0000   1.0000   1.0000   1.0000   1.0000   1.0000   1.0000
     1.0000   1.0000   1.0000   1.0000   1.0000   1.0000   1.0000   1.0000
     1.0000   1.0000   1.0000   1.0000   1.0000   1.0000   1.0000   1.0000
     1.0000   1.0000   1.0000   1.0000   1.0000   1.0000   1.0000   1.0000
     1.0000   1.0000   1.0000   1.0000   1.0000   1.0000   1.0000   1.0000
     1.0000   1.0000   1.0000   1.0000   1.0000   1.0000   1.0000   1.0000
     1.0000   1.0000   1.0000   1.0000   1.0000   1.0000   1.0000   1.0000
     1.0000   1.0000   1.0000   1.0000   1.0000   1.0000   1.0000   1.0000
     1.0000   1.0000   1.0000   1.0000   1.0000   0.0000   0.0000   0.0000
     0.0000   0.0000   0.0000   0.0000   0.0000   0.0000   0.0000   0.0000
     0.0000   0.0000   0.0000   0.0000   0.0000   0.0000   0.0000   0.0000
     0.0000   0.0000   0.0000   0.0000   0.0000

          k = 0.0000 0.0000 0.1756 ( 25812 PWs)   bands (ev):

   -80.6375 -67.4775 -67.4507 -67.3194 -66.9021 -66.8798 -47.6841 -46.4897
   -45.9442 -34.2495 -34.2264 -34.2214 -34.2071 -34.2051 -34.1919 -34.0813
   -34.0808 -34.0542 -33.6768 -33.6532 -33.6511 -33.6413 -33.6410 -33.5992
   -22.9537 -22.9007 -15.0161 -14.9884 -14.0739 -14.0507 -13.5588 -13.5351
   -13.3707 -13.2590 -13.1791 -13.0594 -12.8237 -12.8059 -12.7951 -12.7801
   -12.6801 -12.5802 -12.4616 -12.4120 -12.2194 -12.1859 -12.1364 -12.0101
   -11.1487 -10.8980  -6.5217  -6.4654  -6.4500  -6.4389  -6.3851  -6.3795
    -4.2102  -4.1609  -2.3323  -2.2810  -1.7526  -1.3377  -1.1157  -1.0655
    -1.0316  -0.9647  -0.5951  -0.5057  -0.4678  -0.2960  -0.2639  -0.1877
     0.0314   0.1792   0.2232   0.4959   0.6434   0.6508   0.7579   0.9554
     0.9949   1.1840   1.2272   1.3216   1.4901   1.5179   1.6184   1.7279
     1.8489   1.8682   2.0305   2.1454   2.1853   2.1896   2.2458   2.3515
     2.3638   2.4505   2.5782   2.7019   2.7130   2.7430   2.7879   2.8591
     2.8933   2.9858   3.0635   3.1723   3.1802   3.2182   3.3590   3.3623
     3.4041   3.4624   3.4776   3.6032   3.6447   3.7931   3.8079   3.8573
     3.9158   3.9609   3.9815   4.0244   4.0279   4.3480   4.4513   4.5623
     5.7718   5.9360   7.0154   7.5327   7.9224   9.5490  10.2771  11.4675
    11.7532  11.9204  12.2606  12.3088  12.7888  12.9988  13.0754  13.1853
    13.3250  13.3702  13.4490  13.5740  13.6067  13.7880  13.8757  13.8980
    14.0321  14.1318  14.2353  14.3683  14.4047

     occupation numbers 
     1.0000   1.0000   1.0000   1.0000   1.0000   1.0000   1.0000   1.0000
     1.0000   1.0000   1.0000   1.0000   1.0000   1.0000   1.0000   1.0000
     1.0000   1.0000   1.0000   1.0000   1.0000   1.0000   1.0000   1.0000
     1.0000   1.0000   1.0000   1.0000   1.0000   1.0000   1.0000   1.0000
     1.0000   1.0000   1.0000   1.0000   1.0000   1.0000   1.0000   1.0000
     1.0000   1.0000   1.0000   1.0000   1.0000   1.0000   1.0000   1.0000
     1.0000   1.0000   1.0000   1.0000   1.0000   1.0000   1.0000   1.0000
     1.0000   1.0000   1.0000   1.0000   1.0000   1.0000   1.0000   1.0000
     1.0000   1.0000   1.0000   1.0000   1.0000   1.0000   1.0000   1.0000
     1.0000   1.0000   1.0000   1.0000   1.0000   1.0000   1.0000   1.0000
     1.0000   1.0000   1.0000   1.0000   1.0000   1.0000   1.0000   1.0000
     1.0000   1.0000   1.0000   1.0000   1.0000   1.0000   1.0000   1.0000
     1.0000   1.0000   1.0000   1.0000   1.0000   1.0000   1.0000   1.0000
     1.0000   1.0000   1.0000   1.0000   1.0000   1.0000   1.0000   1.0000
     1.0000   1.0000   1.0000   1.0000   1.0000   1.0000   1.0000   1.0000
     1.0000   1.0000   1.0000   1.0000   1.0000   1.0000   1.0000   1.0000
     1.0000   1.0000   1.0000   1.0000   1.0000   0.0000   0.0000   0.0000
     0.0000   0.0000   0.0000   0.0000   0.0000   0.0000   0.0000   0.0000
     0.0000   0.0000   0.0000   0.0000   0.0000   0.0000   0.0000   0.0000
     0.0000   0.0000   0.0000   0.0000   0.0000

          k = 0.0000 0.1919 0.0000 ( 25771 PWs)   bands (ev):

   -80.6375 -67.4775 -67.4507 -67.3194 -66.9021 -66.8798 -47.6840 -46.4897
   -45.9442 -34.2495 -34.2264 -34.2214 -34.2071 -34.2051 -34.1919 -34.0813
   -34.0808 -34.0542 -33.6768 -33.6532 -33.6511 -33.6413 -33.6410 -33.5992
   -22.9537 -22.9007 -15.0238 -14.9695 -14.1212 -14.0708 -13.5584 -13.5358
   -13.2940 -13.1767 -13.1304 -13.0715 -12.8958 -12.8628 -12.8076 -12.7848
   -12.7107 -12.5734 -12.4561 -12.3997 -12.2152 -12.1911 -12.1364 -12.0001
   -11.1473 -10.8969  -6.5201  -6.4671  -6.4497  -6.4380  -6.3858  -6.3801
    -4.1753  -4.1154  -2.4992  -2.3936  -1.7323  -1.3995  -1.0376  -1.0176
    -0.9256  -0.8682  -0.6929  -0.5693  -0.4337  -0.2522  -0.2033  -0.0852
    -0.0334   0.1713   0.2565   0.5255   0.5971   0.6386   0.7506   0.9159
     0.9645   1.1343   1.1781   1.3124   1.4442   1.5867   1.6137   1.7446
     1.8779   1.8852   2.0225   2.1492   2.1775   2.1894   2.2269   2.3630
     2.4154   2.5085   2.6016   2.6373   2.7212   2.7484   2.8042   2.9294
     3.0001   3.0585   3.0769   3.0894   3.1781   3.2069   3.3152   3.3237
     3.4316   3.4566   3.5011   3.5648   3.6538   3.6696   3.8705   3.8917
     3.8948   3.9619   4.0149   4.0363   4.0557   4.2351   4.2996   4.5442
     5.7868   5.9325   7.0143   7.5069   7.9261   9.6422  10.5921  10.9783
    11.5875  11.9764  12.4027  12.6865  12.7117  12.9240  13.0236  13.1793
    13.2665  13.4000  13.4460  13.5784  13.5928  13.7240  13.7697  13.8858
    13.9222  13.9428  14.3967  14.4602  14.5849

     occupation numbers 
     1.0000   1.0000   1.0000   1.0000   1.0000   1.0000   1.0000   1.0000
     1.0000   1.0000   1.0000   1.0000   1.0000   1.0000   1.0000   1.0000
     1.0000   1.0000   1.0000   1.0000   1.0000   1.0000   1.0000   1.0000
     1.0000   1.0000   1.0000   1.0000   1.0000   1.0000   1.0000   1.0000
     1.0000   1.0000   1.0000   1.0000   1.0000   1.0000   1.0000   1.0000
     1.0000   1.0000   1.0000   1.0000   1.0000   1.0000   1.0000   1.0000
     1.0000   1.0000   1.0000   1.0000   1.0000   1.0000   1.0000   1.0000
     1.0000   1.0000   1.0000   1.0000   1.0000   1.0000   1.0000   1.0000
     1.0000   1.0000   1.0000   1.0000   1.0000   1.0000   1.0000   1.0000
     1.0000   1.0000   1.0000   1.0000   1.0000   1.0000   1.0000   1.0000
     1.0000   1.0000   1.0000   1.0000   1.0000   1.0000   1.0000   1.0000
     1.0000   1.0000   1.0000   1.0000   1.0000   1.0000   1.0000   1.0000
     1.0000   1.0000   1.0000   1.0000   1.0000   1.0000   1.0000   1.0000
     1.0000   1.0000   1.0000   1.0000   1.0000   1.0000   1.0000   1.0000
     1.0000   1.0000   1.0000   1.0000   1.0000   1.0000   1.0000   1.0000
     1.0000   1.0000   1.0000   1.0000   1.0000   1.0000   1.0000   1.0000
     1.0000   1.0000   1.0000   1.0000   1.0000   0.0000   0.0000   0.0000
     0.0000   0.0000   0.0000   0.0000   0.0000   0.0000   0.0000   0.0000
     0.0000   0.0000   0.0000   0.0000   0.0000   0.0000   0.0000   0.0000
     0.0000   0.0000   0.0000   0.0000   0.0000

          k = 0.0000 0.1919 0.1756 ( 25786 PWs)   bands (ev):

   -80.6375 -67.4775 -67.4507 -67.3194 -66.9021 -66.8798 -47.6840 -46.4897
   -45.9442 -34.2495 -34.2264 -34.2214 -34.2071 -34.2051 -34.1919 -34.0813
   -34.0808 -34.0542 -33.6768 -33.6532 -33.6511 -33.6413 -33.6410 -33.5992
   -22.9537 -22.9007 -15.0108 -14.9834 -14.1091 -14.0838 -13.5590 -13.5352
   -13.2875 -13.1713 -13.1492 -13.0595 -12.9097 -12.8473 -12.8098 -12.7873
   -12.7077 -12.5774 -12.4485 -12.4073 -12.2191 -12.1857 -12.1309 -12.0065
   -11.1470 -10.8976  -6.5201  -6.4672  -6.4497  -6.4379  -6.3856  -6.3801
    -4.1680  -4.1232  -2.4749  -2.4205  -1.7054  -1.3892  -1.0309  -1.0180
    -0.9176  -0.8838  -0.6689  -0.6015  -0.4469  -0.2552  -0.2093  -0.1623
     0.0066   0.1814   0.2084   0.5015   0.5927   0.6040   0.7794   0.9230
     1.0183   1.0920   1.1628   1.3539   1.5286   1.5963   1.6892   1.7352
     1.8450   1.9345   2.0459   2.0947   2.1476   2.2054   2.2949   2.3694
     2.4562   2.4760   2.5848   2.6480   2.6740   2.7298   2.8257   2.8694
     2.9416   2.9864   3.0741   3.1443   3.1512   3.2208   3.2812   3.3400
     3.4529   3.4777   3.5176   3.5597   3.6699   3.7139   3.7944   3.8791
     3.9225   3.9561   3.9973   4.0142   4.0397   4.2453   4.3496   4.5504
     5.7873   5.9300   7.0157   7.4958   7.9303   9.9097  10.5628  10.7777
    11.2924  11.9572  12.3787  12.7437  12.8177  13.0074  13.1826  13.2124
    13.3365  13.3892  13.5079  13.5540  13.6565  13.7148  13.7360  13.8444
    13.8940  14.0828  14.3316  14.3953  14.4985

     occupation numbers 
     1.0000   1.0000   1.0000   1.0000   1.0000   1.0000   1.0000   1.0000
     1.0000   1.0000   1.0000   1.0000   1.0000   1.0000   1.0000   1.0000
     1.0000   1.0000   1.0000   1.0000   1.0000   1.0000   1.0000   1.0000
     1.0000   1.0000   1.0000   1.0000   1.0000   1.0000   1.0000   1.0000
     1.0000   1.0000   1.0000   1.0000   1.0000   1.0000   1.0000   1.0000
     1.0000   1.0000   1.0000   1.0000   1.0000   1.0000   1.0000   1.0000
     1.0000   1.0000   1.0000   1.0000   1.0000   1.0000   1.0000   1.0000
     1.0000   1.0000   1.0000   1.0000   1.0000   1.0000   1.0000   1.0000
     1.0000   1.0000   1.0000   1.0000   1.0000   1.0000   1.0000   1.0000
     1.0000   1.0000   1.0000   1.0000   1.0000   1.0000   1.0000   1.0000
     1.0000   1.0000   1.0000   1.0000   1.0000   1.0000   1.0000   1.0000
     1.0000   1.0000   1.0000   1.0000   1.0000   1.0000   1.0000   1.0000
     1.0000   1.0000   1.0000   1.0000   1.0000   1.0000   1.0000   1.0000
     1.0000   1.0000   1.0000   1.0000   1.0000   1.0000   1.0000   1.0000
     1.0000   1.0000   1.0000   1.0000   1.0000   1.0000   1.0000   1.0000
     1.0000   1.0000   1.0000   1.0000   1.0000   1.0000   1.0000   1.0000
     1.0000   1.0000   1.0000   1.0000   1.0000   0.0000   0.0000   0.0000
     0.0000   0.0000   0.0000   0.0000   0.0000   0.0000   0.0000   0.0000
     0.0000   0.0000   0.0000   0.0000   0.0000   0.0000   0.0000   0.0000
     0.0000   0.0000   0.0000   0.0000   0.0000

          k = 0.1667 0.0000 0.0295 ( 25803 PWs)   bands (ev):

   -80.6375 -67.4775 -67.4507 -67.3194 -66.9021 -66.8799 -47.6841 -46.4897
   -45.9442 -34.2491 -34.2275 -34.2206 -34.2077 -34.2044 -34.1920 -34.0814
   -34.0807 -34.0542 -33.6767 -33.6537 -33.6501 -33.6424 -33.6402 -33.5995
   -22.9535 -22.9005 -14.9702 -14.9169 -14.1037 -14.0609 -13.6763 -13.6448
   -13.3103 -13.1690 -13.1354 -13.0440 -12.8522 -12.8150 -12.7876 -12.7734
   -12.6773 -12.5843 -12.4844 -12.4159 -12.2830 -12.2376 -12.1214 -11.9912
   -11.1452 -10.9014  -6.5220  -6.4690  -6.4487  -6.4376  -6.3851  -6.3760
    -4.0571  -3.9959  -2.3249  -2.2201  -1.7689  -1.3849  -1.3502  -1.2885
    -0.8345  -0.7448  -0.6266  -0.5566  -0.4434  -0.2713  -0.2535  -0.0965
    -0.0067   0.1845   0.2440   0.5237   0.5853   0.6975   0.7169   0.8281
     1.0813   1.1906   1.2838   1.3134   1.3881   1.4472   1.6006   1.6459
     1.7257   1.9531   1.9892   2.0587   2.1377   2.2281   2.3252   2.3697
     2.4000   2.4748   2.5583   2.6855   2.7520   2.7745   2.8157   2.8964
     2.9721   2.9915   3.0623   3.1133   3.1602   3.2543   3.3047   3.3258
     3.4277   3.4622   3.5046   3.5623   3.6392   3.7276   3.8037   3.8624
     3.8837   3.9588   3.9893   4.0208   4.0283   4.2317   4.3795   4.4869
     5.7667   5.9020   7.0220   7.5481   7.9177   9.5624  10.9280  11.4727
    11.8242  12.0909  12.2602  12.5074  12.6434  12.8920  13.0053  13.1226
    13.2468  13.3722  13.4274  13.6216  13.6884  13.7278  13.8257  13.8824
    13.9758  14.2528  14.2663  14.3466  14.4766

     occupation numbers 
     1.0000   1.0000   1.0000   1.0000   1.0000   1.0000   1.0000   1.0000
     1.0000   1.0000   1.0000   1.0000   1.0000   1.0000   1.0000   1.0000
     1.0000   1.0000   1.0000   1.0000   1.0000   1.0000   1.0000   1.0000
     1.0000   1.0000   1.0000   1.0000   1.0000   1.0000   1.0000   1.0000
     1.0000   1.0000   1.0000   1.0000   1.0000   1.0000   1.0000   1.0000
     1.0000   1.0000   1.0000   1.0000   1.0000   1.0000   1.0000   1.0000
     1.0000   1.0000   1.0000   1.0000   1.0000   1.0000   1.0000   1.0000
     1.0000   1.0000   1.0000   1.0000   1.0000   1.0000   1.0000   1.0000
     1.0000   1.0000   1.0000   1.0000   1.0000   1.0000   1.0000   1.0000
     1.0000   1.0000   1.0000   1.0000   1.0000   1.0000   1.0000   1.0000
     1.0000   1.0000   1.0000   1.0000   1.0000   1.0000   1.0000   1.0000
     1.0000   1.0000   1.0000   1.0000   1.0000   1.0000   1.0000   1.0000
     1.0000   1.0000   1.0000   1.0000   1.0000   1.0000   1.0000   1.0000
     1.0000   1.0000   1.0000   1.0000   1.0000   1.0000   1.0000   1.0000
     1.0000   1.0000   1.0000   1.0000   1.0000   1.0000   1.0000   1.0000
     1.0000   1.0000   1.0000   1.0000   1.0000   1.0000   1.0000   1.0000
     1.0000   1.0000   1.0000   1.0000   1.0000   0.0000   0.0000   0.0000
     0.0000   0.0000   0.0000   0.0000   0.0000   0.0000   0.0000   0.0000
     0.0000   0.0000   0.0000   0.0000   0.0000   0.0000   0.0000   0.0000
     0.0000   0.0000   0.0000   0.0000   0.0000

          k = 0.1667 0.0000 0.2050 ( 25826 PWs)   bands (ev):

   -80.6375 -67.4775 -67.4507 -67.3194 -66.9021 -66.8799 -47.6841 -46.4897
   -45.9442 -34.2491 -34.2275 -34.2206 -34.2077 -34.2044 -34.1920 -34.0814
   -34.0807 -34.0542 -33.6767 -33.6537 -33.6501 -33.6424 -33.6403 -33.5995
   -22.9535 -22.9005 -14.9539 -14.9342 -14.0942 -14.0710 -13.6719 -13.6495
   -13.3009 -13.1878 -13.1290 -13.0370 -12.8501 -12.8147 -12.7916 -12.7773
   -12.6701 -12.5884 -12.4786 -12.4223 -12.2786 -12.2424 -12.1120 -11.9993
   -11.1448 -10.9023  -6.5220  -6.4691  -6.4487  -6.4375  -6.3850  -6.3759
    -4.0585  -3.9948  -2.3048  -2.2452  -1.7344  -1.4145  -1.3389  -1.2646
    -0.8331  -0.7447  -0.6164  -0.5726  -0.4439  -0.2847  -0.2381  -0.2001
     0.0265   0.1947   0.2328   0.4610   0.5681   0.6733   0.7159   0.8815
     1.1333   1.1606   1.2859   1.3140   1.4041   1.4950   1.5909   1.6953
     1.7551   1.9539   2.0265   2.0632   2.1872   2.2389   2.2920   2.3648
     2.4397   2.4838   2.5602   2.6392   2.6749   2.7432   2.7956   2.8559
     2.9432   2.9897   3.0526   3.1278   3.1956   3.2576   3.2810   3.3644
     3.4018   3.4634   3.5052   3.5642   3.6714   3.7526   3.8119   3.8529
     3.8763   3.9298   3.9564   3.9868   4.0221   4.2914   4.3806   4.4990
     5.7656   5.9013   7.0234   7.5411   7.9178   9.9239  10.3982  11.5255
    11.8577  11.9864  12.3026  12.4274  12.6015  12.9372  13.1607  13.2771
    13.3213  13.4534  13.4676  13.5033  13.6502  13.7391  13.8497  13.9120
    13.9647  14.0397  14.1849  14.4382  14.4717

     occupation numbers 
     1.0000   1.0000   1.0000   1.0000   1.0000   1.0000   1.0000   1.0000
     1.0000   1.0000   1.0000   1.0000   1.0000   1.0000   1.0000   1.0000
     1.0000   1.0000   1.0000   1.0000   1.0000   1.0000   1.0000   1.0000
     1.0000   1.0000   1.0000   1.0000   1.0000   1.0000   1.0000   1.0000
     1.0000   1.0000   1.0000   1.0000   1.0000   1.0000   1.0000   1.0000
     1.0000   1.0000   1.0000   1.0000   1.0000   1.0000   1.0000   1.0000
     1.0000   1.0000   1.0000   1.0000   1.0000   1.0000   1.0000   1.0000
     1.0000   1.0000   1.0000   1.0000   1.0000   1.0000   1.0000   1.0000
     1.0000   1.0000   1.0000   1.0000   1.0000   1.0000   1.0000   1.0000
     1.0000   1.0000   1.0000   1.0000   1.0000   1.0000   1.0000   1.0000
     1.0000   1.0000   1.0000   1.0000   1.0000   1.0000   1.0000   1.0000
     1.0000   1.0000   1.0000   1.0000   1.0000   1.0000   1.0000   1.0000
     1.0000   1.0000   1.0000   1.0000   1.0000   1.0000   1.0000   1.0000
     1.0000   1.0000   1.0000   1.0000   1.0000   1.0000   1.0000   1.0000
     1.0000   1.0000   1.0000   1.0000   1.0000   1.0000   1.0000   1.0000
     1.0000   1.0000   1.0000   1.0000   1.0000   1.0000   1.0000   1.0000
     1.0000   1.0000   1.0000   1.0000   1.0000   0.0000   0.0000   0.0000
     0.0000   0.0000   0.0000   0.0000   0.0000   0.0000   0.0000   0.0000
     0.0000   0.0000   0.0000   0.0000   0.0000   0.0000   0.0000   0.0000
     0.0000   0.0000   0.0000   0.0000   0.0000

          k = 0.1667 0.0000-0.1461 ( 25786 PWs)   bands (ev):

   -80.6375 -67.4774 -67.4507 -67.3194 -66.9021 -66.8799 -47.6840 -46.4896
   -45.9442 -34.2491 -34.2275 -34.2206 -34.2077 -34.2043 -34.1920 -34.0814
   -34.0807 -34.0542 -33.6767 -33.6537 -33.6501 -33.6424 -33.6402 -33.5995
   -22.9535 -22.9005 -14.9609 -14.9269 -14.0950 -14.0702 -13.6708 -13.6505
   -13.3038 -13.1776 -13.1374 -13.0377 -12.8504 -12.8125 -12.7974 -12.7700
   -12.6738 -12.5878 -12.4734 -12.4270 -12.2662 -12.2551 -12.1120 -11.9981
   -11.1446 -10.9023  -6.5221  -6.4691  -6.4487  -6.4375  -6.3850  -6.3759
    -4.0413  -4.0123  -2.3013  -2.2471  -1.7474  -1.4161  -1.3295  -1.2731
    -0.8172  -0.7647  -0.5894  -0.5562  -0.4743  -0.2748  -0.2604  -0.1702
    -0.0030   0.1974   0.2379   0.4730   0.6004   0.6977   0.7293   0.8701
     1.0988   1.1320   1.2837   1.3078   1.4300   1.5271   1.5839   1.6195
     1.7790   1.9491   2.0133   2.0694   2.1176   2.2263   2.3388   2.3561
     2.4105   2.4974   2.5462   2.6676   2.7325   2.7639   2.7702   2.8888
     2.9167   2.9929   3.0992   3.1573   3.1821   3.2458   3.2892   3.3548
     3.4142   3.4502   3.5276   3.5836   3.6381   3.7234   3.7938   3.8330
     3.8766   3.9383   3.9587   3.9942   4.0135   4.2872   4.3829   4.5044
     5.7657   5.9028   7.0222   7.5393   7.9195   9.7531  10.6185  11.5816
    11.9042  11.9593  12.3421  12.3975  12.6417  13.0117  13.0432  13.1783
    13.2642  13.3688  13.4660  13.5352  13.6231  13.7443  13.7883  13.9096
    13.9931  14.1473  14.2733  14.4011  14.4726

     occupation numbers 
     1.0000   1.0000   1.0000   1.0000   1.0000   1.0000   1.0000   1.0000
     1.0000   1.0000   1.0000   1.0000   1.0000   1.0000   1.0000   1.0000
     1.0000   1.0000   1.0000   1.0000   1.0000   1.0000   1.0000   1.0000
     1.0000   1.0000   1.0000   1.0000   1.0000   1.0000   1.0000   1.0000
     1.0000   1.0000   1.0000   1.0000   1.0000   1.0000   1.0000   1.0000
     1.0000   1.0000   1.0000   1.0000   1.0000   1.0000   1.0000   1.0000
     1.0000   1.0000   1.0000   1.0000   1.0000   1.0000   1.0000   1.0000
     1.0000   1.0000   1.0000   1.0000   1.0000   1.0000   1.0000   1.0000
     1.0000   1.0000   1.0000   1.0000   1.0000   1.0000   1.0000   1.0000
     1.0000   1.0000   1.0000   1.0000   1.0000   1.0000   1.0000   1.0000
     1.0000   1.0000   1.0000   1.0000   1.0000   1.0000   1.0000   1.0000
     1.0000   1.0000   1.0000   1.0000   1.0000   1.0000   1.0000   1.0000
     1.0000   1.0000   1.0000   1.0000   1.0000   1.0000   1.0000   1.0000
     1.0000   1.0000   1.0000   1.0000   1.0000   1.0000   1.0000   1.0000
     1.0000   1.0000   1.0000   1.0000   1.0000   1.0000   1.0000   1.0000
     1.0000   1.0000   1.0000   1.0000   1.0000   1.0000   1.0000   1.0000
     1.0000   1.0000   1.0000   1.0000   1.0000   0.0000   0.0000   0.0000
     0.0000   0.0000   0.0000   0.0000   0.0000   0.0000   0.0000   0.0000
     0.0000   0.0000   0.0000   0.0000   0.0000   0.0000   0.0000   0.0000
     0.0000   0.0000   0.0000   0.0000   0.0000

          k = 0.1667 0.1919 0.0295 ( 25796 PWs)   bands (ev):

   -80.6375 -67.4775 -67.4507 -67.3194 -66.9021 -66.8799 -47.6840 -46.4897
   -45.9442 -34.2491 -34.2275 -34.2206 -34.2077 -34.2044 -34.1920 -34.0813
   -34.0807 -34.0542 -33.6767 -33.6537 -33.6501 -33.6424 -33.6402 -33.5995
   -22.9535 -22.9005 -14.9651 -14.9121 -14.1355 -14.0881 -13.6621 -13.6349
   -13.2532 -13.1542 -13.0781 -13.0286 -12.8813 -12.8648 -12.8165 -12.7909
   -12.7046 -12.5814 -12.4763 -12.4047 -12.2784 -12.2388 -12.1186 -11.9892
   -11.1440 -10.9012  -6.5210  -6.4706  -6.4487  -6.4367  -6.3852  -6.3764
    -4.0211  -3.9584  -2.4806  -2.3757  -1.6997  -1.3683  -1.2359  -1.2019
    -0.8312  -0.7471  -0.7000  -0.5323  -0.4504  -0.2312  -0.1993  -0.0691
     0.0058   0.1599   0.2295   0.5037   0.5498   0.6735   0.7129   0.7900
     1.0911   1.1126   1.2665   1.3285   1.3726   1.4828   1.6140   1.6873
     1.7788   1.9088   1.9709   2.0943   2.1635   2.2312   2.3187   2.3759
     2.4330   2.5401   2.5838   2.6693   2.7469   2.7854   2.8309   2.9114
     2.9778   3.0253   3.0648   3.1232   3.1653   3.2379   3.2905   3.3299
     3.4096   3.4431   3.4815   3.5817   3.6648   3.6768   3.7832   3.8404
     3.8676   3.9287   3.9668   4.0248   4.0660   4.2012   4.2852   4.4761
     5.7809   5.8963   7.0220   7.5142   7.9296   9.9157  10.7725  11.1365
    11.6836  12.0192  12.3780  12.6806  12.7857  12.8834  13.1096  13.1476
    13.2645  13.3894  13.4292  13.5389  13.5865  13.6808  13.7847  13.8628
    14.0328  14.0901  14.3343  14.5072  14.6481

     occupation numbers 
     1.0000   1.0000   1.0000   1.0000   1.0000   1.0000   1.0000   1.0000
     1.0000   1.0000   1.0000   1.0000   1.0000   1.0000   1.0000   1.0000
     1.0000   1.0000   1.0000   1.0000   1.0000   1.0000   1.0000   1.0000
     1.0000   1.0000   1.0000   1.0000   1.0000   1.0000   1.0000   1.0000
     1.0000   1.0000   1.0000   1.0000   1.0000   1.0000   1.0000   1.0000
     1.0000   1.0000   1.0000   1.0000   1.0000   1.0000   1.0000   1.0000
     1.0000   1.0000   1.0000   1.0000   1.0000   1.0000   1.0000   1.0000
     1.0000   1.0000   1.0000   1.0000   1.0000   1.0000   1.0000   1.0000
     1.0000   1.0000   1.0000   1.0000   1.0000   1.0000   1.0000   1.0000
     1.0000   1.0000   1.0000   1.0000   1.0000   1.0000   1.0000   1.0000
     1.0000   1.0000   1.0000   1.0000   1.0000   1.0000   1.0000   1.0000
     1.0000   1.0000   1.0000   1.0000   1.0000   1.0000   1.0000   1.0000
     1.0000   1.0000   1.0000   1.0000   1.0000   1.0000   1.0000   1.0000
     1.0000   1.0000   1.0000   1.0000   1.0000   1.0000   1.0000   1.0000
     1.0000   1.0000   1.0000   1.0000   1.0000   1.0000   1.0000   1.0000
     1.0000   1.0000   1.0000   1.0000   1.0000   1.0000   1.0000   1.0000
     1.0000   1.0000   1.0000   1.0000   1.0000   0.0000   0.0000   0.0000
     0.0000   0.0000   0.0000   0.0000   0.0000   0.0000   0.0000   0.0000
     0.0000   0.0000   0.0000   0.0000   0.0000   0.0000   0.0000   0.0000
     0.0000   0.0000   0.0000   0.0000   0.0000

          k = 0.1667 0.1919 0.2050 ( 25776 PWs)   bands (ev):

   -80.6375 -67.4774 -67.4507 -67.3194 -66.9021 -66.8799 -47.6840 -46.4897
   -45.9442 -34.2491 -34.2275 -34.2206 -34.2077 -34.2044 -34.1920 -34.0813
   -34.0807 -34.0542 -33.6767 -33.6537 -33.6501 -33.6424 -33.6402 -33.5995
   -22.9535 -22.9005 -14.9489 -14.9293 -14.1230 -14.1014 -13.6603 -13.6367
   -13.2467 -13.1497 -13.0979 -13.0136 -12.8934 -12.8575 -12.8150 -12.7905
   -12.7016 -12.5861 -12.4722 -12.4096 -12.2762 -12.2412 -12.1093 -11.9972
   -11.1435 -10.9020  -6.5210  -6.4707  -6.4486  -6.4367  -6.3851  -6.3763
    -4.0189  -3.9607  -2.4551  -2.4042  -1.6728  -1.3577  -1.2555  -1.1834
    -0.8335  -0.7464  -0.6936  -0.5379  -0.4520  -0.2834  -0.1806  -0.1241
     0.0376   0.1477   0.2222   0.4616   0.5321   0.6569   0.7017   0.8334
     1.0626   1.1338   1.2593   1.3546   1.4325   1.5389   1.6167   1.7304
     1.8422   1.8816   1.9557   2.0799   2.1545   2.2640   2.3249   2.3875
     2.4512   2.5520   2.5794   2.6616   2.7004   2.7232   2.8313   2.8889
     2.9225   3.0025   3.0549   3.1260   3.1741   3.2213   3.2760   3.3234
     3.4129   3.4673   3.5579   3.5918   3.6557   3.6917   3.7529   3.8460
     3.8625   3.9027   3.9557   3.9856   4.0660   4.2289   4.3243   4.4870
     5.7802   5.8945   7.0234   7.5067   7.9304  10.2203  10.6786  10.9653
    11.3836  11.9940  12.3512  12.6765  12.8557  12.9291  13.1796  13.3322
    13.3598  13.4270  13.4886  13.5266  13.6189  13.7187  13.7866  13.8574
    13.9452  14.0935  14.2458  14.3876  14.6047

     occupation numbers 
     1.0000   1.0000   1.0000   1.0000   1.0000   1.0000   1.0000   1.0000
     1.0000   1.0000   1.0000   1.0000   1.0000   1.0000   1.0000   1.0000
     1.0000   1.0000   1.0000   1.0000   1.0000   1.0000   1.0000   1.0000
     1.0000   1.0000   1.0000   1.0000   1.0000   1.0000   1.0000   1.0000
     1.0000   1.0000   1.0000   1.0000   1.0000   1.0000   1.0000   1.0000
     1.0000   1.0000   1.0000   1.0000   1.0000   1.0000   1.0000   1.0000
     1.0000   1.0000   1.0000   1.0000   1.0000   1.0000   1.0000   1.0000
     1.0000   1.0000   1.0000   1.0000   1.0000   1.0000   1.0000   1.0000
     1.0000   1.0000   1.0000   1.0000   1.0000   1.0000   1.0000   1.0000
     1.0000   1.0000   1.0000   1.0000   1.0000   1.0000   1.0000   1.0000
     1.0000   1.0000   1.0000   1.0000   1.0000   1.0000   1.0000   1.0000
     1.0000   1.0000   1.0000   1.0000   1.0000   1.0000   1.0000   1.0000
     1.0000   1.0000   1.0000   1.0000   1.0000   1.0000   1.0000   1.0000
     1.0000   1.0000   1.0000   1.0000   1.0000   1.0000   1.0000   1.0000
     1.0000   1.0000   1.0000   1.0000   1.0000   1.0000   1.0000   1.0000
     1.0000   1.0000   1.0000   1.0000   1.0000   1.0000   1.0000   1.0000
     1.0000   1.0000   1.0000   1.0000   1.0000   0.0000   0.0000   0.0000
     0.0000   0.0000   0.0000   0.0000   0.0000   0.0000   0.0000   0.0000
     0.0000   0.0000   0.0000   0.0000   0.0000   0.0000   0.0000   0.0000
     0.0000   0.0000   0.0000   0.0000   0.0000

          k = 0.1667 0.1919-0.1461 ( 25782 PWs)   bands (ev):

   -80.6375 -67.4774 -67.4507 -67.3194 -66.9021 -66.8799 -47.6840 -46.4897
   -45.9442 -34.2491 -34.2275 -34.2206 -34.2077 -34.2044 -34.1920 -34.0813
   -34.0807 -34.0542 -33.6767 -33.6537 -33.6501 -33.6424 -33.6402 -33.5995
   -22.9535 -22.9005 -14.9558 -14.9221 -14.1256 -14.0987 -13.6575 -13.6396
   -13.2486 -13.1509 -13.0903 -13.0206 -12.8918 -12.8548 -12.8194 -12.7901
   -12.7022 -12.5847 -12.4657 -12.4152 -12.2661 -12.2520 -12.1093 -11.9962
   -11.1433 -10.9020  -6.5211  -6.4707  -6.4487  -6.4366  -6.3851  -6.3764
    -4.0030  -3.9771  -2.4565  -2.4022  -1.6824  -1.3615  -1.2589  -1.1792
    -0.8128  -0.7676  -0.6639  -0.5348  -0.4873  -0.2520  -0.1950  -0.1086
     0.0045   0.1689   0.1982   0.4933   0.5588   0.6555   0.7359   0.8276
     1.0592   1.0940   1.2502   1.3338   1.4459   1.5253   1.6388   1.7169
     1.7570   1.9007   1.9607   2.1096   2.1785   2.2449   2.3055   2.3819
     2.4506   2.5146   2.5952   2.6618   2.7188   2.7625   2.8376   2.8650
     2.9293   2.9991   3.0862   3.1637   3.1804   3.2184   3.2815   3.3403
     3.4378   3.4709   3.5064   3.5966   3.6541   3.6933   3.7359   3.8322
     3.8593   3.9083   3.9662   3.9932   4.0217   4.2360   4.3213   4.4850
     5.7807   5.8970   7.0221   7.5036   7.9310  10.0953  10.8528  10.9223
    11.4695  12.0592  12.3954  12.6933  12.7690  12.9226  13.1286  13.2399
    13.3085  13.3939  13.4727  13.5471  13.6307  13.7047  13.7414  13.9571
    13.9979  14.0328  14.2044  14.4272  14.5660

     occupation numbers 
     1.0000   1.0000   1.0000   1.0000   1.0000   1.0000   1.0000   1.0000
     1.0000   1.0000   1.0000   1.0000   1.0000   1.0000   1.0000   1.0000
     1.0000   1.0000   1.0000   1.0000   1.0000   1.0000   1.0000   1.0000
     1.0000   1.0000   1.0000   1.0000   1.0000   1.0000   1.0000   1.0000
     1.0000   1.0000   1.0000   1.0000   1.0000   1.0000   1.0000   1.0000
     1.0000   1.0000   1.0000   1.0000   1.0000   1.0000   1.0000   1.0000
     1.0000   1.0000   1.0000   1.0000   1.0000   1.0000   1.0000   1.0000
     1.0000   1.0000   1.0000   1.0000   1.0000   1.0000   1.0000   1.0000
     1.0000   1.0000   1.0000   1.0000   1.0000   1.0000   1.0000   1.0000
     1.0000   1.0000   1.0000   1.0000   1.0000   1.0000   1.0000   1.0000
     1.0000   1.0000   1.0000   1.0000   1.0000   1.0000   1.0000   1.0000
     1.0000   1.0000   1.0000   1.0000   1.0000   1.0000   1.0000   1.0000
     1.0000   1.0000   1.0000   1.0000   1.0000   1.0000   1.0000   1.0000
     1.0000   1.0000   1.0000   1.0000   1.0000   1.0000   1.0000   1.0000
     1.0000   1.0000   1.0000   1.0000   1.0000   1.0000   1.0000   1.0000
     1.0000   1.0000   1.0000   1.0000   1.0000   1.0000   1.0000   1.0000
     1.0000   1.0000   1.0000   1.0000   1.0000   0.0000   0.0000   0.0000
     0.0000   0.0000   0.0000   0.0000   0.0000   0.0000   0.0000   0.0000
     0.0000   0.0000   0.0000   0.0000   0.0000   0.0000   0.0000   0.0000
     0.0000   0.0000   0.0000   0.0000   0.0000

          k = 0.3333 0.0000 0.0589 ( 25772 PWs)   bands (ev):

   -80.6375 -67.4774 -67.4507 -67.3194 -66.9021 -66.8799 -47.6840 -46.4896
   -45.9442 -34.2483 -34.2293 -34.2193 -34.2086 -34.2034 -34.1922 -34.0813
   -34.0807 -34.0542 -33.6767 -33.6542 -33.6485 -33.6436 -33.6397 -33.5999
   -22.9532 -22.9002 -14.8080 -14.7588 -14.2281 -14.1895 -13.7960 -13.7604
   -13.2007 -13.0759 -13.0130 -12.9966 -12.9131 -12.8538 -12.7967 -12.7773
   -12.6790 -12.6030 -12.5217 -12.4616 -12.3731 -12.3069 -12.1014 -11.9821
   -11.1391 -10.9101  -6.5234  -6.4765  -6.4458  -6.4350  -6.3846  -6.3687
    -3.6467  -3.5749  -2.4656  -2.3493  -1.7370  -1.5838  -1.3620  -1.1973
    -0.7849  -0.7599  -0.6532  -0.6194  -0.3717  -0.2230  -0.1738  -0.0938
    -0.0808   0.1742   0.3195   0.4786   0.5701   0.6887   0.7193   0.7652
     1.0190   1.1581   1.2062   1.2662   1.4404   1.5124   1.5664   1.6378
     1.6496   1.7295   1.8696   2.0000   2.1191   2.3107   2.3765   2.4231
     2.4809   2.5450   2.6497   2.7409   2.7821   2.8126   2.8388   2.8880
     2.9070   2.9883   3.0521   3.1199   3.1810   3.2458   3.2676   3.3312
     3.3492   3.3988   3.5040   3.5963   3.6343   3.6769   3.7185   3.7811
     3.8025   3.8369   3.9233   3.9998   4.0786   4.1181   4.2832   4.4509
     5.7541   5.8282   7.0349   7.5593   7.9188  10.3399  11.3423  11.6007
    12.0296  12.1586  12.3059  12.3618  12.7978  12.8144  12.8569  13.1214
    13.2473  13.3143  13.5202  13.5848  13.6486  13.6895  13.8511  14.0322
    14.0502  14.2911  14.3354  14.3954  14.5387

     occupation numbers 
     1.0000   1.0000   1.0000   1.0000   1.0000   1.0000   1.0000   1.0000
     1.0000   1.0000   1.0000   1.0000   1.0000   1.0000   1.0000   1.0000
     1.0000   1.0000   1.0000   1.0000   1.0000   1.0000   1.0000   1.0000
     1.0000   1.0000   1.0000   1.0000   1.0000   1.0000   1.0000   1.0000
     1.0000   1.0000   1.0000   1.0000   1.0000   1.0000   1.0000   1.0000
     1.0000   1.0000   1.0000   1.0000   1.0000   1.0000   1.0000   1.0000
     1.0000   1.0000   1.0000   1.0000   1.0000   1.0000   1.0000   1.0000
     1.0000   1.0000   1.0000   1.0000   1.0000   1.0000   1.0000   1.0000
     1.0000   1.0000   1.0000   1.0000   1.0000   1.0000   1.0000   1.0000
     1.0000   1.0000   1.0000   1.0000   1.0000   1.0000   1.0000   1.0000
[...]
     atom   13 type  7   force =     0.00000000    0.00000000    0.00000000
     atom   14 type  7   force =     0.00000000    0.00000000    0.00000000
     atom   15 type  1   force =     0.00000000    0.00000000    0.00000000
     atom   16 type  1   force =     0.00000000    0.00000000    0.00000000
     atom   17 type  6   force =     0.00000000    0.00000000    0.00000000
     atom   18 type  6   force =     0.00000000    0.00000000    0.00000000
     atom   19 type  6   force =     0.00000000    0.00000000    0.00000000
     atom   20 type  6   force =     0.00000000    0.00000000    0.00000000
     atom   21 type  6   force =     0.00000000    0.00000000    0.00000000
     atom   22 type  6   force =     0.00000000    0.00000000    0.00000000
     atom   23 type  6   force =     0.00000000    0.00000000    0.00000000
     atom   24 type  6   force =     0.00000000    0.00000000    0.00000000
     atom   25 type  6   force =     0.00000000    0.00000000    0.00000000
     atom   26 type  6   force =     0.00000000    0.00000000    0.00000000
     atom   27 type  6   force =     0.00000000    0.00000000    0.00000000
     atom   28 type  6   force =     0.00000000    0.00000000    0.00000000
     atom   29 type  6   force =     0.00000000    0.00000000    0.00000000
     atom   30 type  6   force =     0.00000000    0.00000000    0.00000000
     atom   31 type  6   force =     0.00000000    0.00000000    0.00000000
     atom   32 type  6   force =     0.00000000    0.00000000    0.00000000
     atom   33 type  6   force =     0.00000000    0.00000000    0.00000000
     atom   34 type  6   force =     0.00000000    0.00000000    0.00000000
     atom   35 type  6   force =     0.00000000    0.00000000    0.00000000
     atom   36 type  6   force =     0.00000000    0.00000000    0.00000000
     atom   37 type  6   force =     0.00000000    0.00000000    0.00000000
     atom   38 type  6   force =     0.00000000    0.00000000    0.00000000
     atom   39 type  6   force =     0.00000000    0.00000000    0.00000000
     atom   40 type  6   force =     0.00000000    0.00000000    0.00000000
     atom   41 type  3   force =     0.00000000    0.00000000    0.00000000
     atom   42 type  3   force =     0.00000000    0.00000000    0.00000000
     atom   43 type  3   force =     0.00000000    0.00000000    0.00000000
     atom   44 type  3   force =     0.00000000    0.00000000    0.00000000
     The SCF correction term to forces
     atom    1 type  4   force =     0.00000000   -0.00000464    0.00000000
     atom    2 type  4   force =     0.00000000    0.00000519   -0.00000000
     atom    3 type  5   force =     0.00000000   -0.00000019    0.00000000
     atom    4 type  5   force =    -0.00000000    0.00001249    0.00000000
     atom    5 type  5   force =     0.00000000    0.00001383    0.00000000
     atom    6 type  5   force =    -0.00000000   -0.00000437    0.00000000
     atom    7 type  5   force =    -0.00000000    0.00002008    0.00000000
     atom    8 type  2   force =    -0.00000000   -0.00000761    0.00000000
     atom    9 type  7   force =    -0.00000124    0.00000741   -0.00001234
     atom   10 type  7   force =     0.00000124    0.00000741    0.00001234
     atom   11 type  7   force =     0.00000269   -0.00000461    0.00000252
     atom   12 type  7   force =    -0.00000269   -0.00000461   -0.00000252
     atom   13 type  7   force =     0.00000343   -0.00000426   -0.00000101
     atom   14 type  7   force =    -0.00000343   -0.00000426    0.00000101
     atom   15 type  1   force =    -0.00000089    0.00000089    0.00000619
     atom   16 type  1   force =     0.00000089    0.00000089   -0.00000619
     atom   17 type  6   force =     0.00000179    0.00000140    0.00000001
     atom   18 type  6   force =    -0.00000179    0.00000140   -0.00000001
     atom   19 type  6   force =    -0.00000077   -0.00001516    0.00000497
     atom   20 type  6   force =     0.00000077   -0.00001516   -0.00000497
     atom   21 type  6   force =     0.00000351    0.00000415   -0.00000826
     atom   22 type  6   force =    -0.00000351    0.00000415    0.00000826
     atom   23 type  6   force =    -0.00000502    0.00000788   -0.00000120
     atom   24 type  6   force =     0.00000502    0.00000788    0.00000120
     atom   25 type  6   force =    -0.00001743    0.00003897   -0.00002072
     atom   26 type  6   force =     0.00001743    0.00003897    0.00002072
     atom   27 type  6   force =    -0.00000127    0.00000168   -0.00001415
     atom   28 type  6   force =     0.00000127    0.00000168    0.00001415
     atom   29 type  6   force =     0.00000000    0.00000675    0.00000304
     atom   30 type  6   force =    -0.00000000    0.00000675   -0.00000304
     atom   31 type  6   force =     0.00000354   -0.00000799    0.00000940
     atom   32 type  6   force =    -0.00000354   -0.00000799   -0.00000940
     atom   33 type  6   force =     0.00000077   -0.00000456   -0.00000675
     atom   34 type  6   force =    -0.00000077   -0.00000456    0.00000675
     atom   35 type  6   force =     0.00003559   -0.00001289    0.00002118
     atom   36 type  6   force =    -0.00003559   -0.00001289   -0.00002118
     atom   37 type  6   force =     0.00000159    0.00000021   -0.00000893
     atom   38 type  6   force =    -0.00000159    0.00000021    0.00000893
     atom   39 type  6   force =    -0.00000638   -0.00001205   -0.00000105
     atom   40 type  6   force =     0.00000638   -0.00001205    0.00000105
     atom   41 type  3   force =     0.00000008    0.00000047    0.00000036
     atom   42 type  3   force =    -0.00000008    0.00000047   -0.00000036
     atom   43 type  3   force =    -0.00000012   -0.00000070   -0.00000252
     atom   44 type  3   force =     0.00000012   -0.00000070    0.00000252

     Dispersion contribution to forces:
     atom    1 type  4   force =    -0.00000000    0.00223176    0.00000000
     atom    2 type  4   force =     0.00000000   -0.00156642    0.00000000
     atom    3 type  5   force =    -0.00000000    0.00044135    0.00000000
     atom    4 type  5   force =    -0.00000000   -0.00232627    0.00000000
     atom    5 type  5   force =     0.00000000    0.00097856    0.00000000
     atom    6 type  5   force =    -0.00000000    0.00255168    0.00000000
     atom    7 type  5   force =     0.00000000   -0.00406849    0.00000000
     atom    8 type  2   force =    -0.00000000    0.00313868    0.00000000
     atom    9 type  7   force =    -0.00012281   -0.00044749    0.00144502
     atom   10 type  7   force =     0.00012281   -0.00044749   -0.00144502
     atom   11 type  7   force =    -0.00013920    0.00015206   -0.00081819
     atom   12 type  7   force =     0.00013920    0.00015206    0.00081819
     atom   13 type  7   force =     0.00047846    0.00156811   -0.00051937
     atom   14 type  7   force =    -0.00047846    0.00156811    0.00051936
     atom   15 type  1   force =    -0.00074852   -0.00148473   -0.00133996
     atom   16 type  1   force =     0.00074852   -0.00148473    0.00133996
     atom   17 type  6   force =    -0.00015206    0.00018755    0.00041951
     atom   18 type  6   force =     0.00015206    0.00018755   -0.00041951
     atom   19 type  6   force =     0.00011140   -0.00016643   -0.00029311
     atom   20 type  6   force =    -0.00011140   -0.00016643    0.00029311
     atom   21 type  6   force =    -0.00017444   -0.00017005    0.00064971
     atom   22 type  6   force =     0.00017444   -0.00017005   -0.00064971
     atom   23 type  6   force =    -0.00015191   -0.00008589    0.00091071
     atom   24 type  6   force =     0.00015191   -0.00008589   -0.00091071
     atom   25 type  6   force =     0.00033349    0.00192456    0.00142536
     atom   26 type  6   force =    -0.00033349    0.00192456   -0.00142536
     atom   27 type  6   force =     0.00033431    0.00014121    0.00063081
     atom   28 type  6   force =    -0.00033431    0.00014121   -0.00063081
     atom   29 type  6   force =     0.00004414   -0.00000919   -0.00015556
     atom   30 type  6   force =    -0.00004414   -0.00000919    0.00015556
     atom   31 type  6   force =     0.00015027   -0.00022879   -0.00016385
     atom   32 type  6   force =    -0.00015027   -0.00022879    0.00016385
     atom   33 type  6   force =     0.00084490   -0.00151016    0.00125439
     atom   34 type  6   force =    -0.00084490   -0.00151016   -0.00125439
     atom   35 type  6   force =     0.00153187   -0.00038494   -0.00127729
     atom   36 type  6   force =    -0.00153187   -0.00038494    0.00127729
     atom   37 type  6   force =     0.00007616    0.00011283   -0.00215508
     atom   38 type  6   force =    -0.00007616    0.00011283    0.00215508
     atom   39 type  6   force =     0.00015558    0.00012068   -0.00245569
     atom   40 type  6   force =    -0.00015558    0.00012068    0.00245569
     atom   41 type  3   force =    -0.00075652   -0.00015778   -0.00015714
     atom   42 type  3   force =     0.00075652   -0.00015778    0.00015714
     atom   43 type  3   force =     0.00039688   -0.00025198    0.00086677
     atom   44 type  3   force =    -0.00039688   -0.00025198   -0.00086677

     Total force =     0.003374     Total SCF correction =     0.000110

     Total Dispersion Force =     0.011244


     Computing stress (Cartesian axis) and pressure


     negative rho (up, down):  0.000E+00 2.090E-04
          total   stress  (Ry/bohr**3)                   (kbar)     P=        7.39
   0.00006397   0.00000000  -0.00000448            9.41        0.00       -0.66
   0.00000000   0.00007558   0.00000000            0.00       11.12        0.00
  -0.00000448   0.00000000   0.00001120           -0.66        0.00        1.65

     kinetic stress (kbar)  20973.34      0.00     15.50
                                0.00  20881.61      0.00
                               15.50      0.00  20705.69

     local   stress (kbar) -38602.61     -0.00    149.26
                               -0.00 -38477.80      0.00
                              149.26      0.00  17357.06

     nonloc. stress (kbar)   3947.16      0.00      0.45
                                0.00   3949.95      0.00
                                0.45      0.00   3928.01

     hartree stress (kbar)  22068.75     -0.00    -56.99
                               -0.00  22009.74      0.00
                              -56.99      0.00  -5297.84

     exc-cor stress (kbar)  -2937.29     -0.00     -0.03
                               -0.00  -2937.64      0.00
                               -0.03      0.00  -2933.83

     corecor stress (kbar)  -1932.71      0.00     -0.07
                                0.00  -1932.16     -0.00
                               -0.07     -0.00  -1934.52

     ewald   stress (kbar)  -3477.04      0.00   -108.59
                                0.00  -3452.51     -0.00
                             -108.59     -0.00 -31793.23

     hubbard stress (kbar)      0.00      0.00      0.00
                                0.00      0.00      0.00
                                0.00      0.00      0.00

     DFT-D   stress (kbar)    -30.19      0.00     -0.19
                                0.00    -30.07     -0.00
                               -0.19     -0.00    -29.68

     XDM     stress (kbar)      0.00      0.00      0.00
                                0.00      0.00      0.00
                                0.00      0.00      0.00

     dft-nl  stress (kbar)      0.00      0.00      0.00
                                0.00      0.00      0.00
                                0.00      0.00      0.00

     TS-vdW  stress (kbar)      0.00      0.00      0.00
                                0.00      0.00      0.00
                                0.00      0.00      0.00

     MDB     stress (kbar)      0.00      0.00      0.00
                                0.00      0.00      0.00
                                0.00      0.00      0.00

     3D-RISM stress (kbar)      0.00      0.00      0.00
                                0.00      0.00      0.00
                                0.00      0.00      0.00

     Energy error            =      2.2E-05 Ry
     Gradient error          =      8.8E-04 Ry/Bohr

     bfgs converged in  17 scf cycles and  16 bfgs steps
     (criteria: energy <  1.0E-04 Ry, force <  1.0E-03 Ry/Bohr)

     End of BFGS Geometry Optimization

     Final energy             =   -2631.3894281189 Ry

     File ./temp/phl-fe1.bfgs deleted, as requested
Begin final coordinates

ATOMIC_POSITIONS (crystal)
K                0.0000000000        0.4979186871        0.0000000000
K                0.5000000000        0.0009006515        0.0000000000
Mg               0.0000000000        0.0033754692        0.5000000000
Mg               0.0000000000        0.3313628385        0.5000000000
Mg               0.0000000000        0.6658802985        0.5000000000
Mg               0.5000000000        0.8357729074        0.5000000000
Mg               0.5000000000        0.1681941257        0.5000000000
Fe               0.5000000000        0.4924963008        0.5000000000
Si               0.0836369233        0.1649526293        0.2217311170
Si               0.9163630617        0.1649526293        0.7782688980
Si               0.9332791112        0.8345134845        0.7724005473
Si               0.0667208888        0.8345134845        0.2275994527
Si               0.5660129931        0.6677081211        0.2259172158
Si               0.4339870069        0.6677081211        0.7740828142
Al               0.4148106665        0.3309519966        0.7762949046
Al               0.5851893035        0.3309519966        0.2237050954
O                0.1276550537        0.1623018339        0.3842021592
O                0.8723449163        0.1623018339        0.6157978108
O                0.8737013420        0.8333443850        0.6112735508
O                0.1262986580        0.8333443850        0.3887264492
O                0.6287845766        0.6744746792        0.3875601377
O                0.3712154234        0.6744746792        0.6124398323
O                0.3593033850        0.3279157530        0.6036280455
O                0.6406966150        0.3279157530        0.3963719545
O                0.3455581723        0.2013021383        0.1648226866
O                0.6544418277        0.2013021383        0.8351772984
O                0.9929736971        0.9973285715        0.1661554036
O                0.0070263029        0.9973285715        0.8338446114
O                0.6794686193        0.7776059334        0.8326809009
O                0.3205313807        0.7776059334        0.1673190991
O                0.8196339537        0.7299026426        0.1656945794
O                0.1803660463        0.7299026426        0.8343054506
O                0.4936001615        0.5080923295        0.1634353718
O                0.5063998385        0.5080923295        0.8365646282
O                0.1406008872        0.2784500707        0.8414896032
O                0.8593990978        0.2784500707        0.1585103968
O                0.1191262891        0.5033845736        0.3912538595
O                0.8808736809        0.5033845736        0.6087461105
O                0.6336253153        0.9990047385        0.3966741824
O                0.3663746847        0.9990047385        0.6033258176
H                0.1047973747        0.4946016678        0.2957641776
H                0.8952026173        0.4946016678        0.7042358224
H                0.5969876629        0.0162637894        0.3018019759
H                0.4030123371        0.0162637894        0.6981979941
End final coordinates



     Writing all to output data dir ./temp/phl-fe1.save/ :
     XML data file, charge density, pseudopotentials, collected wavefunctions

     init_run     :    150.65s CPU    173.13s WALL (       1 calls)
     electrons    : 105565.68s CPU 136902.32s WALL (      17 calls)
     update_pot   :     35.89s CPU     49.30s WALL (      16 calls)
     forces       :   1969.09s CPU   2462.27s WALL (      17 calls)
     force_london :      6.08s CPU      7.59s WALL (      17 calls)
     stress       :   6551.72s CPU   7557.79s WALL (      17 calls)
     stres_london :      8.32s CPU     10.28s WALL (      17 calls)

     Called by init_run:
     wfcinit      :    144.01s CPU    164.76s WALL (       1 calls)
     wfcinit:atom :      0.24s CPU      0.24s WALL (      40 calls)
     wfcinit:wfcr :    141.95s CPU    162.64s WALL (      40 calls)
     potinit      :      2.40s CPU      3.25s WALL (       1 calls)
     hinit0       :      0.97s CPU      1.33s WALL (       1 calls)

     Called by electrons:
     c_bands      :  97667.20s CPU 126639.16s WALL (     165 calls)
     sum_band     :   7165.92s CPU   9286.70s WALL (     165 calls)
     v_of_rho     :     56.65s CPU     78.32s WALL (     170 calls)
     v_h          :      1.80s CPU      2.34s WALL (     170 calls)
     v_xc         :     65.94s CPU     91.57s WALL (     204 calls)
     newd         :    439.18s CPU    568.76s WALL (     170 calls)
     PAW_pot      :    325.69s CPU    445.45s WALL (     186 calls)
     mix_rho      :      7.89s CPU     11.23s WALL (     165 calls)
     energy_londo :      5.43s CPU      6.49s WALL (      17 calls)

     Called by c_bands:
     init_us_2    :    200.37s CPU    219.30s WALL (   15240 calls)
     cegterg      :  97180.22s CPU 125968.17s WALL (    6600 calls)

     Called by sum_band:
     sum_band:wei :      0.16s CPU      0.18s WALL (     165 calls)
     sum_band:loo :   6272.91s CPU   8187.59s WALL (     165 calls)
     sum_band:buf :     23.23s CPU     25.04s WALL (    6600 calls)
     sum_band:ini :     84.71s CPU     91.88s WALL (    6600 calls)
     sum_band:cal :   4854.14s CPU   6053.65s WALL (    7240 calls)
     sum_band:bec :     17.66s CPU     18.71s WALL (    7240 calls)
     addusdens    :    861.86s CPU   1028.47s WALL (     165 calls)
                                        0.00s GPU  (     165 calls)
     addusd:skk   :      3.02s CPU      3.39s WALL (    1155 calls)
                                        0.00s GPU  (    1155 calls)

     Called by *egterg:
     cdiaghg      :   6893.54s CPU   9365.59s WALL (   48909 calls)
     cegterg:over :  13788.33s CPU  19525.81s WALL (   43429 calls)
     cegterg:upda :   7502.54s CPU  10059.40s WALL (   43429 calls)
     cegterg:last :  18700.83s CPU  24156.33s WALL (   17822 calls)
     cdiaghg:chol :    127.17s CPU    196.90s WALL (   48909 calls)
     cdiaghg:inve :     86.69s CPU    184.13s WALL (   48909 calls)
     cdiaghg:para :   2953.77s CPU   4002.28s WALL (   97818 calls)
     h_psi        :  34474.34s CPU  43512.83s WALL (   50069 calls)
     s_psi        :  12251.01s CPU  13437.10s WALL (   50069 calls)
     g_psi        :     45.57s CPU     49.53s WALL (   43429 calls)

     Called by h_psi:
     h_psi:calbec :  13713.86s CPU  17352.43s WALL (   50069 calls)
     vloc_psi     :   8464.78s CPU  12558.13s WALL (   50069 calls)
     add_vuspsi   :  12235.33s CPU  13537.74s WALL (   50069 calls)

     General routines
     calbec       :  20922.66s CPU  26496.43s WALL (   60709 calls)
     fft          :     37.87s CPU     63.54s WALL (    4936 calls)
     ffts         :      1.29s CPU      2.34s WALL (     670 calls)
     fftw         :   8033.80s CPU  12671.28s WALL ( 7398986 calls)
     interpolate  :      4.05s CPU      6.25s WALL (     340 calls)

     Parallel routines

     PAW routines
     PAW_pot      :    325.69s CPU    445.45s WALL (     186 calls)
     PAW_symme    :      0.44s CPU      1.60s WALL (     351 calls)

     PWSCF        :   1d 7h53m CPU   1d17h 3m WALL


   This run was terminated on:  14:38:36  18Dec2024            

=------------------------------------------------------------------------------=
   JOB DONE.
=------------------------------------------------------------------------------=
