
     Program PWSCF v.7.3.1 starts on 13Jan2025 at  7: 0:18 

     This program is part of the open-source Quantum ESPRESSO suite
     for quantum simulation of materials; please cite
         "P. Giannozzi et al., J. Phys.:Condens. Matter 21 395502 (2009);
         "P. Giannozzi et al., J. Phys.:Condens. Matter 29 465901 (2017);
         "P. Giannozzi et al., J. Chem. Phys. 152 154105 (2020);
          URL http://www.quantum-espresso.org", 
     in publications or presentations arising from this work. More details at
     http://www.quantum-espresso.org/quote

     Parallel version (MPI), running on     6 processors

     MPI processes distributed on     1 nodes
     6535 MiB available memory on the printing compute node when the environment starts

     Reading input from relax.in
Warning: card  &CELL ignored
Warning: card    CELL_DOFREE     = 'IBRAV' ignored
Warning: card  / ignored

     Current dimensions of program PWSCF are:
     Max number of different atomic species (ntypx) = 10
     Max number of k-points (npk) =  40000
     Max angular momentum in pseudopotentials (lmaxx) =  4
     file Al.pbe-n-kjpaw_psl.1.0.0.UPF: wavefunction(s)  3S 3P renormalized
     file Fe.pbe-spn-kjpaw_psl.1.0.0.UPF: wavefunction(s)  3P 3D renormalized
     file H.pbe-kjpaw_psl.1.0.0.UPF: wavefunction(s)  1S renormalized
     file K.pbe-spn-kjpaw_psl.1.0.0.UPF: wavefunction(s)  3S renormalized
     file Mg.pbe-spnl-kjpaw_psl.1.0.0.UPF: wavefunction(s)  2P renormalized
     file O.pbe-n-kjpaw_psl.1.0.0.UPF: wavefunction(s)  2S 2P renormalized
     file Si.pbe-n-kjpaw_psl.1.0.0.UPF: wavefunction(s)  3S 3P renormalized

     R & G space division:  proc/nbgrp/npool/nimage =       6
     Subspace diagonalization in iterative solution of the eigenvalue problem:
     one sub-group per band group will be used
     custom distributed-memory algorithm (size of sub-group:  2*  2 procs)


     Parallelization info
     --------------------
     sticks:   dense  smooth     PW     G-vecs:    dense   smooth      PW
     Min        1105     554    150                97744    34578    4918
     Max        1106     555    151                97745    34580    4920
     Sum        6633    3329    905               586467   207475   29511

     Using Slab Decomposition



     bravais-lattice index     =          -12
     lattice parameter (alat)  =      10.0136  a.u.
     unit-cell volume          =    3303.4414 (a.u.)^3
     number of atoms/cell      =           44
     number of atomic types    =            7
     number of electrons       =       262.00
     number of Kohn-Sham states=          157
     kinetic-energy cutoff     =      60.0000  Ry
     charge density cutoff     =     480.0000  Ry
     scf convergence threshold =      1.0E-06
     mixing beta               =       0.7000
     number of iterations used =            8  plain     mixing
     energy convergence thresh.=      1.0E-04
     force convergence thresh. =      1.0E-03
     Exchange-correlation= SLA  PW   PBX  PBC
                           (   1   4   3   4   0   0   0)
     nstep                     =           50


     celldm(1)=  10.013640  celldm(2)=   1.735306  celldm(3)=   1.926511
     celldm(4)=   0.000000  celldm(5)=  -0.177565  celldm(6)=   0.000000

     crystal axes: (cart. coord. in units of alat)
               a(1) = (   1.000000   0.000000   0.000000 )  
               a(2) = (   0.000000   1.735306   0.000000 )  
               a(3) = (  -0.342081   0.000000   1.895896 )  

     reciprocal axes: (cart. coord. in units 2 pi/alat)
               b(1) = (  1.000000 -0.000000  0.180432 )  
               b(2) = (  0.000000  0.576267 -0.000000 )  
               b(3) = (  0.000000  0.000000  0.527455 )  


     PseudoPot. # 1 for Al read from file:
     ./../../../pseudos/Al.pbe-n-kjpaw_psl.1.0.0.UPF
     MD5 check sum: 502b6b27b9c6270cab5dd1084b96fa6d
     Pseudo is Projector augmented-wave + core cor, Zval =  3.0
     Generated using &quot;atomic&quot; code by A. Dal Corso  v.6.3
     Shape of augmentation charge: PSQ
     Using radial grid of 1135 points,  6 beta functions with: 
                l(1) =   0
                l(2) =   0
                l(3) =   1
                l(4) =   1
                l(5) =   2
                l(6) =   2
     Q(r) pseudized with 0 coefficients 


     PseudoPot. # 2 for Fe read from file:
     ./../../../pseudos/Fe.pbe-spn-kjpaw_psl.1.0.0.UPF
     MD5 check sum: fc81f059e5c5069939230b1155715ae8
     Pseudo is Projector augmented-wave + core cor, Zval = 16.0
     Generated using &quot;atomic&quot; code by A. Dal Corso  v.6.3
     Shape of augmentation charge: PSQ
     Using radial grid of 1191 points,  6 beta functions with: 
                l(1) =   0
                l(2) =   0
                l(3) =   1
                l(4) =   1
                l(5) =   2
                l(6) =   2
     Q(r) pseudized with 0 coefficients 


     PseudoPot. # 3 for H  read from file:
     ./../../../pseudos/H.pbe-kjpaw_psl.1.0.0.UPF
     MD5 check sum: d81a744832360e4a8af0b0b5b123bc2a
     Pseudo is Projector augmented-wave, Zval =  1.0
     Generated using &quot;atomic&quot; code by A. Dal Corso  v.6.3MaX
     Shape of augmentation charge: PSQ
     Using radial grid of  929 points,  2 beta functions with: 
                l(1) =   0
                l(2) =   0
     Q(r) pseudized with 0 coefficients 


     PseudoPot. # 4 for K  read from file:
     ./../../../pseudos/K.pbe-spn-kjpaw_psl.1.0.0.UPF
     MD5 check sum: 34cc42130a09071ebe376fd42eb21491
     Pseudo is Projector augmented-wave + core cor, Zval =  9.0
     Generated using &quot;atomic&quot; code by A. Dal Corso  v.6.2.2
     Shape of augmentation charge: PSQ
     Using radial grid of 1165 points,  6 beta functions with: 
                l(1) =   0
                l(2) =   0
                l(3) =   1
                l(4) =   1
                l(5) =   2
                l(6) =   2
     Q(r) pseudized with 0 coefficients 


     PseudoPot. # 5 for Mg read from file:
     ./../../../pseudos/Mg.pbe-spnl-kjpaw_psl.1.0.0.UPF
     MD5 check sum: fda14e0d92a6a9a5ebed782e5a4b3067
     Pseudo is Projector augmented-wave + core cor, Zval = 10.0
     Generated using &quot;atomic&quot; code by A. Dal Corso  v.6.3
     Shape of augmentation charge: PSQ
     Using radial grid of 1129 points,  4 beta functions with: 
                l(1) =   0
                l(2) =   0
                l(3) =   1
                l(4) =   1
     Q(r) pseudized with 0 coefficients 


     PseudoPot. # 6 for O  read from file:
     ./../../../pseudos/O.pbe-n-kjpaw_psl.1.0.0.UPF
     MD5 check sum: e99d9cef9b487d1ca56f5b95ecd0fd7a
     Pseudo is Projector augmented-wave + core cor, Zval =  6.0
     Generated using &quot;atomic&quot; code by A. Dal Corso  v.6.3
     Shape of augmentation charge: PSQ
     Using radial grid of 1095 points,  4 beta functions with: 
                l(1) =   0
                l(2) =   0
                l(3) =   1
                l(4) =   1
     Q(r) pseudized with 0 coefficients 


     PseudoPot. # 7 for Si read from file:
     ./../../../pseudos/Si.pbe-n-kjpaw_psl.1.0.0.UPF
     MD5 check sum: c39c59da582df4a0d9f10159256ea34e
     Pseudo is Projector augmented-wave + core cor, Zval =  4.0
     Generated using &quot;atomic&quot; code by A. Dal Corso  v.6.3
     Shape of augmentation charge: PSQ
     Using radial grid of 1141 points,  6 beta functions with: 
                l(1) =   0
                l(2) =   0
                l(3) =   1
                l(4) =   1
                l(5) =   2
                l(6) =   2
     Q(r) pseudized with 0 coefficients 


     atomic species   valence    mass     pseudopotential
     Al                3.00    26.98154     Al( 1.00)
     Fe               16.00    55.84500     Fe( 1.00)
     H                 1.00     1.00794     H ( 1.00)
     K                 9.00    39.09830     K ( 1.00)
     Mg               10.00    24.30500     Mg( 1.00)
     O                 6.00    15.99940     O ( 1.00)
     Si                4.00    28.08550     Si( 1.00)

     Starting magnetic structure 
     atomic species   magnetization
     Al              0.000
     Fe              0.300
     H               0.000
     K               0.000
     Mg              0.000
     O               0.000
     Si              0.000

      2 Sym. Ops. (no inversion) found


                                    s                        frac. trans.

      isym =  1     identity                                     

 cryst.   s( 1) = (     1          0          0      )
                  (     0          1          0      )
                  (     0          0          1      )

 cart.    s( 1) = (  1.0000000  0.0000000 -0.0000000 )
                  (  0.0000000  1.0000000  0.0000000 )
                  (  0.0000000  0.0000000  1.0000000 )


      isym =  2     180 deg rotation - cart. axis [0,1,0]        

 cryst.   s( 2) = (    -1          0          0      )
                  (     0          1          0      )
                  (     0          0         -1      )

 cart.    s( 2) = ( -1.0000000  0.0000000  0.0000000 )
                  (  0.0000000  1.0000000  0.0000000 )
                  (  0.0000000  0.0000000 -1.0000000 )


     point group C_2  (2)   
     there are  2 classes
     the character table:

       E     C2   
A      1.00  1.00
B      1.00 -1.00

     the symmetry operations in each class and the name of the first element:

     E        1
          identity                                               
     C2       2
          180 deg rotation - cart. axis [0,1,0]                  

   Cartesian axes

     site n.     atom                  positions (alat units)
         1        K      tau(   1) = (   0.0000000   0.8559224   0.0000000  )
         2        K      tau(   2) = (   0.5000000   0.0093568   0.0000000  )
         3        Mg     tau(   3) = (  -0.1710407   0.0067712   0.9479482  )
         4        Mg     tau(   4) = (  -0.1710407   0.5780843   0.9479482  )
         5        Mg     tau(   5) = (  -0.1710407   1.1543881   0.9479482  )
         6        Mg     tau(   6) = (   0.3289593   0.8562226   0.9479482  )
         7        Mg     tau(   7) = (   0.3289593   0.2986375   0.9479482  )
         8        Si     tau(   8) = (   0.0066674   0.2865251   0.4219393  )
         9        Si     tau(   9) = (   0.6512512   0.2865251   1.4739571  )
        10        Si     tau(  10) = (   0.6701371   1.4476688   1.4628623  )
        11        Si     tau(  11) = (  -0.0122184   1.4476688   0.4330341  )
        12        Si     tau(  12) = (   0.4872056   1.1568454   0.4292651  )
        13        Si     tau(  13) = (   0.1707131   1.1568454   1.4666313  )
        14        Al     tau(  14) = (   0.1506005   0.5746762   1.4713786  )
        15        Al     tau(  15) = (   0.5073182   0.5746762   0.4245178  )
        16        O      tau(  16) = (  -0.0043508   0.2833738   0.7297400  )
        17        O      tau(  17) = (   0.6622695   0.2833738   1.1661564  )
        18        O      tau(  18) = (   0.6658139   1.4451231   1.1576912  )
        19        O      tau(  19) = (  -0.0078952   1.4451231   0.7382052  )
        20        O      tau(  20) = (   0.4926234   1.1618863   0.7357690  )
        21        O      tau(  21) = (   0.1652953   1.1618863   1.1601274  )
        22        O      tau(  22) = (   0.1548298   0.5779784   1.1454267  )
        23        O      tau(  23) = (   0.5030889   0.5779784   0.7504697  )
        24        O      tau(  24) = (   0.2847398   0.3548857   0.3143567  )
        25        O      tau(  25) = (   0.3731789   0.3548857   1.5815397  )
        26        O      tau(  26) = (   0.9404978   1.7303189   0.3181314  )
        27        O      tau(  27) = (  -0.2825791   1.7303189   1.5777650  )
        28        O      tau(  28) = (   0.3988927   1.3439356   1.5754330  )
        29        O      tau(  29) = (   0.2590260   1.3439356   0.3204634  )
        30        O      tau(  30) = (   0.7582660   1.2710892   0.3185125  )
        31        O      tau(  31) = (  -0.1003473   1.2710892   1.5773839  )
        32        O      tau(  32) = (   0.4432368   0.8811364   0.3085875  )
        33        O      tau(  33) = (   0.2146819   0.8811364   1.5873090  )
        34        O      tau(  34) = (  -0.1423236   0.4782556   1.5925436  )
        35        O      tau(  35) = (   0.8002423   0.4782556   0.3033529  )
        36        O      tau(  36) = (  -0.0041068   0.8750247   0.7469263  )
        37        O      tau(  37) = (   0.6620255   0.8750247   1.1489701  )
        38        O      tau(  38) = (   0.4966158   1.7335917   0.7534577  )
        39        O      tau(  39) = (   0.1613029   1.7335917   1.1424387  )
        40        H      tau(  40) = (  -0.0032097   0.8603995   0.5673129  )
        41        H      tau(  41) = (   0.6611284   0.8603995   1.3285835  )
        42        H      tau(  42) = (   0.4926802   0.0219534   0.5746291  )
        43        H      tau(  43) = (   0.1652385   0.0219534   1.3212673  )
        44        Fe     tau(  44) = (   0.3289593   1.4480089   0.9479482  )

     --------------------------------------------
     DFT-D3 Dispersion Correction (3-body terms):
     --------------------------------------------
       Reference C6 values for interpolation: 

         atom   Coordination number   C6
         H          0.912             6.05
         H          0.000            15.18
         O          0.000            31.01
         O          0.993            25.63
         O          1.989            20.74
         Mg         0.000          1366.75
         Mg         0.963           902.54
         Mg         1.950           351.12
         Al         0.000          1081.08
         Al         0.965           875.51
         Al         1.931           513.50
         Al         2.915           307.19
         Si         0.000           635.71
         Si         0.951           540.53
         Si         1.944           466.25
         Si         2.941           443.01
         Si         3.868           299.55
         K          0.000          9967.00
         K          0.977           676.04
         Fe         0.000           982.67
         Fe         1.648           409.99
         Fe         9.138           219.01

       Values used:

         atom   Coordination number  R0_AB[au]  C6      C8
         K         13.612            4.007    676.04 129074.98
         K         13.810            4.007    676.04 129074.98
         Mg        11.220            3.292    351.12  31436.69
         Mg        12.209            3.292    351.12  31436.69
         Mg        11.161            3.292    351.12  31436.69
         Mg        11.738            3.292    351.12  31436.69
         Mg        11.902            3.292    351.12  31436.69
         Si         6.964            3.583    299.55  21425.58
         Si         6.964            3.583    299.55  21425.58
         Si         6.367            3.583    299.55  21425.58
         Si         6.367            3.583    299.55  21425.58
         Si         6.415            3.583    299.55  21425.58
         Si         6.415            3.583    299.55  21425.58
         Al         7.868            3.789    307.19  29441.29
         Al         7.868            3.789    307.19  29441.29
         O          3.926            2.345     20.74    418.58
         O          3.926            2.345     20.74    418.58
         O          3.689            2.345     20.74    418.58
         O          3.689            2.345     20.74    418.58
         O          3.708            2.345     20.74    418.58
         O          3.708            2.345     20.74    418.58
         O          3.991            2.345     20.74    418.58
         O          3.991            2.345     20.74    418.58
         O          3.192            2.345     20.74    418.58
         O          3.192            2.345     20.74    418.58
         O          3.153            2.345     20.74    418.58
         O          3.153            2.345     20.74    418.58
         O          3.045            2.345     20.74    418.58
         O          3.045            2.345     20.74    418.58
         O          3.058            2.345     20.74    418.58
         O          3.058            2.345     20.74    418.58
         O          3.190            2.345     20.74    418.58
         O          3.190            2.345     20.74    418.58
         O          3.263            2.345     20.74    418.58
         O          3.263            2.345     20.74    418.58
         O          4.000            2.345     20.74    418.58
         O          4.000            2.345     20.74    418.58
         O          3.846            2.345     20.74    418.58
         O          3.846            2.345     20.74    418.58
         H          1.322            2.062      6.07     73.32
         H          1.322            2.062      6.07     73.32
         H          1.280            2.062      6.07     73.38
         H          1.280            2.062      6.07     73.38
         Fe         7.740            3.252    219.01  20487.87

         Molecular C6 ( Ry / a.u.^6 ) =    165305.20


   Crystallographic axes

     site n.     atom                  positions (cryst. coord.)
         1        K      tau(   1) = (  0.0000000  0.4932400  0.0000000  )
         2        K      tau(   2) = (  0.5000000  0.0053920  0.0000000  )
         3        Mg     tau(   3) = (  0.0000000  0.0039020  0.5000000  )
         4        Mg     tau(   4) = (  0.0000000  0.3331310  0.5000000  )
         5        Mg     tau(   5) = (  0.0000000  0.6652360  0.5000000  )
         6        Mg     tau(   6) = (  0.5000000  0.4934130  0.5000000  )
         7        Mg     tau(   7) = (  0.5000000  0.1720950  0.5000000  )
         8        Si     tau(   8) = (  0.0827990  0.1651150  0.2225540  )
         9        Si     tau(   9) = (  0.9172010  0.1651150  0.7774460  )
        10        Si     tau(  10) = (  0.9340850  0.8342440  0.7715940  )
        11        Si     tau(  11) = (  0.0659150  0.8342440  0.2284060  )
        12        Si     tau(  12) = (  0.5646590  0.6666520  0.2264180  )
        13        Si     tau(  13) = (  0.4353410  0.6666520  0.7735820  )
        14        Al     tau(  14) = (  0.4160850  0.3311670  0.7760860  )
        15        Al     tau(  15) = (  0.5839150  0.3311670  0.2239140  )
        16        O      tau(  16) = (  0.1273180  0.1632990  0.3849050  )
        17        O      tau(  17) = (  0.8726820  0.1632990  0.6150950  )
        18        O      tau(  18) = (  0.8746990  0.8327770  0.6106300  )
        19        O      tau(  19) = (  0.1253010  0.8327770  0.3893700  )
        20        O      tau(  20) = (  0.6253800  0.6695570  0.3880850  )
        21        O      tau(  21) = (  0.3746200  0.6695570  0.6119150  )
        22        O      tau(  22) = (  0.3615020  0.3330700  0.6041610  )
        23        O      tau(  23) = (  0.6384980  0.3330700  0.3958390  )
        24        O      tau(  24) = (  0.3414600  0.2045090  0.1658090  )
        25        O      tau(  25) = (  0.6585400  0.2045090  0.8341910  )
        26        O      tau(  26) = (  0.9978990  0.9971260  0.1678000  )
        27        O      tau(  27) = (  0.0021010  0.9971260  0.8322000  )
        28        O      tau(  28) = (  0.6831520  0.7744660  0.8309700  )
        29        O      tau(  29) = (  0.3168480  0.7744660  0.1690300  )
        30        O      tau(  30) = (  0.8157360  0.7324870  0.1680010  )
        31        O      tau(  31) = (  0.1842640  0.7324870  0.8319990  )
        32        O      tau(  32) = (  0.4989160  0.5077700  0.1627660  )
        33        O      tau(  33) = (  0.5010840  0.5077700  0.8372340  )
        34        O      tau(  34) = (  0.1450230  0.2756030  0.8399950  )
        35        O      tau(  35) = (  0.8549770  0.2756030  0.1600050  )
        36        O      tau(  36) = (  0.1306630  0.5042480  0.3939700  )
        37        O      tau(  37) = (  0.8693370  0.5042480  0.6060300  )
        38        O      tau(  38) = (  0.6325640  0.9990120  0.3974150  )
        39        O      tau(  39) = (  0.3674360  0.9990120  0.6025850  )
        40        H      tau(  40) = (  0.0991520  0.4958200  0.2992320  )
        41        H      tau(  41) = (  0.9008480  0.4958200  0.7007680  )
        42        H      tau(  42) = (  0.5963620  0.0126510  0.3030910  )
        43        H      tau(  43) = (  0.4036380  0.0126510  0.6969090  )
        44        Fe     tau(  44) = (  0.5000000  0.8344400  0.5000000  )

     number of k points=    20  Gaussian smearing, width (Ry)=  0.0010
                       cart. coord. in units 2pi/alat
        k(    1) = (   0.0000000   0.0000000   0.0000000), wk =   0.0185185
        k(    2) = (   0.0000000   0.0000000   0.1758183), wk =   0.0370370
        k(    3) = (   0.0000000   0.1920891   0.0000000), wk =   0.0370370
        k(    4) = (   0.0000000   0.1920891   0.1758183), wk =   0.0740741
        k(    5) = (   0.1666667   0.0000000   0.0300721), wk =   0.0370370
        k(    6) = (   0.1666667   0.0000000   0.2058904), wk =   0.0370370
        k(    7) = (   0.1666667   0.0000000  -0.1457462), wk =   0.0370370
        k(    8) = (   0.1666667   0.1920891   0.0300721), wk =   0.0740741
        k(    9) = (   0.1666667   0.1920891   0.2058904), wk =   0.0740741
        k(   10) = (   0.1666667   0.1920891  -0.1457462), wk =   0.0740741
        k(   11) = (   0.3333333   0.0000000   0.0601442), wk =   0.0370370
        k(   12) = (   0.3333333   0.0000000   0.2359625), wk =   0.0370370
        k(   13) = (   0.3333333   0.0000000  -0.1156742), wk =   0.0370370
        k(   14) = (   0.3333333   0.1920891   0.0601442), wk =   0.0740741
        k(   15) = (   0.3333333   0.1920891   0.2359625), wk =   0.0740741
        k(   16) = (   0.3333333   0.1920891  -0.1156742), wk =   0.0740741
        k(   17) = (  -0.5000000   0.0000000  -0.0902162), wk =   0.0185185
        k(   18) = (  -0.5000000   0.0000000   0.0856021), wk =   0.0370370
        k(   19) = (  -0.5000000   0.1920891  -0.0902162), wk =   0.0370370
        k(   20) = (  -0.5000000   0.1920891   0.0856021), wk =   0.0740741

                       cryst. coord.
        k(    1) = (   0.0000000   0.0000000   0.0000000), wk =   0.0185185
        k(    2) = (   0.0000000   0.0000000   0.3333333), wk =   0.0370370
        k(    3) = (   0.0000000   0.3333333   0.0000000), wk =   0.0370370
        k(    4) = (   0.0000000   0.3333333   0.3333333), wk =   0.0740741
        k(    5) = (   0.1666667   0.0000000  -0.0000000), wk =   0.0370370
        k(    6) = (   0.1666667   0.0000000   0.3333333), wk =   0.0370370
        k(    7) = (   0.1666667   0.0000000  -0.3333333), wk =   0.0370370
        k(    8) = (   0.1666667   0.3333333  -0.0000000), wk =   0.0740741
        k(    9) = (   0.1666667   0.3333333   0.3333333), wk =   0.0740741
        k(   10) = (   0.1666667   0.3333333  -0.3333333), wk =   0.0740741
        k(   11) = (   0.3333333   0.0000000  -0.0000000), wk =   0.0370370
        k(   12) = (   0.3333333   0.0000000   0.3333333), wk =   0.0370370
        k(   13) = (   0.3333333   0.0000000  -0.3333333), wk =   0.0370370
        k(   14) = (   0.3333333   0.3333333  -0.0000000), wk =   0.0740741
        k(   15) = (   0.3333333   0.3333333   0.3333333), wk =   0.0740741
        k(   16) = (   0.3333333   0.3333333  -0.3333333), wk =   0.0740741
        k(   17) = (  -0.5000000   0.0000000   0.0000000), wk =   0.0185185
        k(   18) = (  -0.5000000   0.0000000   0.3333333), wk =   0.0370370
        k(   19) = (  -0.5000000   0.3333333   0.0000000), wk =   0.0370370
        k(   20) = (  -0.5000000   0.3333333   0.3333333), wk =   0.0740741

     Dense  grid:   586467 G-vectors     FFT dimensions: (  72, 125, 135)

     Smooth grid:   207475 G-vectors     FFT dimensions: (  50,  90,  96)

     Dynamical RAM for                 wfc:      10.35 MB

     Dynamical RAM for     wfc (w. buffer):     424.41 MB

     Dynamical RAM for           str. fact:      10.44 MB

     Dynamical RAM for           local pot:       0.00 MB

     Dynamical RAM for          nlocal pot:      28.88 MB

     Dynamical RAM for                qrad:      12.30 MB

     Dynamical RAM for          rho,v,vnew:      18.42 MB

     Dynamical RAM for               rhoin:       6.14 MB

     Dynamical RAM for            rho*nmix:      47.73 MB

     Dynamical RAM for           G-vectors:       5.86 MB

     Dynamical RAM for          h,s,v(r/c):       1.13 MB

     Dynamical RAM for          <psi|beta>:       1.05 MB

     Dynamical RAM for                 psi:      20.70 MB

     Dynamical RAM for                hpsi:      20.70 MB

     Dynamical RAM for                spsi:      20.70 MB

     Dynamical RAM for      wfcinit/wfcrot:      24.90 MB

     Dynamical RAM for           addusdens:     314.70 MB

     Dynamical RAM for          addusforce:     383.50 MB

     Estimated static dynamical RAM per process >     527.86 MB

     Estimated max dynamical RAM per process >     959.09 MB

     Estimated total dynamical RAM >       5.62 GB

     Check: negative core charge=   -0.000004
     Generating pointlists ...
     new r_m :   0.1345 (alat units)  1.3466 (a.u.) for type    1
     new r_m :   0.1584 (alat units)  1.5864 (a.u.) for type    2
     new r_m :   0.0743 (alat units)  0.7444 (a.u.) for type    3
     new r_m :   0.2122 (alat units)  2.1246 (a.u.) for type    4
     new r_m :   0.1572 (alat units)  1.5739 (a.u.) for type    5
     new r_m :   0.0743 (alat units)  0.7444 (a.u.) for type    6
     new r_m :   0.1255 (alat units)  1.2564 (a.u.) for type    7

     Initial potential from superposition of free atoms

     starting charge     261.9493, renormalised to     262.0000
     Starting wfcs are  183 randomized atomic wfcs
     Checking if some PAW data can be deallocated... 
       PAW data deallocated on    5 nodes for type:  1
       PAW data deallocated on    5 nodes for type:  2
       PAW data deallocated on    5 nodes for type:  3
       PAW data deallocated on    5 nodes for type:  4
       PAW data deallocated on    5 nodes for type:  5
       PAW data deallocated on    1 nodes for type:  6
       PAW data deallocated on    4 nodes for type:  7

     total cpu time spent up to now is      175.7 secs

     Self-consistent Calculation

     iteration #  1     ecut=    60.00 Ry     beta= 0.70
     Davidson diagonalization with overlap

---- Real-time Memory Report at c_bands before calling an iterative solver
           591 MiB given to the printing process from OS
             0 MiB allocation reported by mallinfo(arena+hblkhd)
          2702 MiB available memory on the node where the printing process lives
------------------
     ethr =  1.00E-02,  avg # of iterations =  5.9

     total cpu time spent up to now is      719.9 secs

     total energy              =   -2623.66445596 Ry
     estimated scf accuracy    <      12.47319689 Ry

     total magnetization       =     4.00 Bohr mag/cell
     absolute magnetization    =     4.04 Bohr mag/cell

     iteration #  2     ecut=    60.00 Ry     beta= 0.70
     Davidson diagonalization with overlap

---- Real-time Memory Report at c_bands before calling an iterative solver
           888 MiB given to the printing process from OS
             0 MiB allocation reported by mallinfo(arena+hblkhd)
          1992 MiB available memory on the node where the printing process lives
------------------
     ethr =  4.76E-03,  avg # of iterations =  5.1

     total cpu time spent up to now is     1503.4 secs

     total energy              =   -2629.14695713 Ry
     estimated scf accuracy    <      11.36780103 Ry

     total magnetization       =     4.00 Bohr mag/cell
     absolute magnetization    =     4.21 Bohr mag/cell

     iteration #  3     ecut=    60.00 Ry     beta= 0.70
     Davidson diagonalization with overlap

---- Real-time Memory Report at c_bands before calling an iterative solver
           890 MiB given to the printing process from OS
             0 MiB allocation reported by mallinfo(arena+hblkhd)
          2040 MiB available memory on the node where the printing process lives
------------------
     ethr =  4.34E-03,  avg # of iterations =  2.0

     negative rho (up, down):  0.000E+00 1.550E-04

     total cpu time spent up to now is     1905.0 secs

     total energy              =   -2630.04496881 Ry
     estimated scf accuracy    <       2.48310746 Ry

     total magnetization       =     5.00 Bohr mag/cell
     absolute magnetization    =     5.26 Bohr mag/cell

     iteration #  4     ecut=    60.00 Ry     beta= 0.70
     Davidson diagonalization with overlap

---- Real-time Memory Report at c_bands before calling an iterative solver
           893 MiB given to the printing process from OS
             0 MiB allocation reported by mallinfo(arena+hblkhd)
          1983 MiB available memory on the node where the printing process lives
------------------
     c_bands:  1 eigenvalues not converged
     ethr =  9.48E-04,  avg # of iterations =  5.2

     negative rho (up, down):  0.000E+00 2.205E-04

     total cpu time spent up to now is     2499.2 secs

     total energy              =   -2631.07564874 Ry
     estimated scf accuracy    <       0.39565151 Ry

     total magnetization       =     4.00 Bohr mag/cell
     absolute magnetization    =     4.06 Bohr mag/cell

     iteration #  5     ecut=    60.00 Ry     beta= 0.70
     Davidson diagonalization with overlap

---- Real-time Memory Report at c_bands before calling an iterative solver
           895 MiB given to the printing process from OS
             0 MiB allocation reported by mallinfo(arena+hblkhd)
          2185 MiB available memory on the node where the printing process lives
------------------
     c_bands:  1 eigenvalues not converged
     c_bands:  3 eigenvalues not converged
     c_bands:  1 eigenvalues not converged
     c_bands:  1 eigenvalues not converged
     c_bands:  1 eigenvalues not converged
     c_bands:  1 eigenvalues not converged
     ethr =  1.51E-04,  avg # of iterations = 15.2

     negative rho (up, down):  0.000E+00 3.554E-04

     total cpu time spent up to now is     3189.3 secs

     total energy              =   -2631.21464048 Ry
     estimated scf accuracy    <       0.07719138 Ry

     total magnetization       =     4.00 Bohr mag/cell
     absolute magnetization    =     4.07 Bohr mag/cell

     iteration #  6     ecut=    60.00 Ry     beta= 0.70
     Davidson diagonalization with overlap

---- Real-time Memory Report at c_bands before calling an iterative solver
           897 MiB given to the printing process from OS
             0 MiB allocation reported by mallinfo(arena+hblkhd)
          1936 MiB available memory on the node where the printing process lives
------------------
     c_bands:  1 eigenvalues not converged
     c_bands:  1 eigenvalues not converged
     c_bands:  3 eigenvalues not converged
     c_bands:  1 eigenvalues not converged
     c_bands:  1 eigenvalues not converged
     c_bands:  2 eigenvalues not converged
     c_bands:  1 eigenvalues not converged
     c_bands:  2 eigenvalues not converged
     c_bands:  1 eigenvalues not converged
     c_bands:  1 eigenvalues not converged
     c_bands:  1 eigenvalues not converged
     c_bands:  2 eigenvalues not converged
     ethr =  2.95E-05,  avg # of iterations = 16.1

     negative rho (up, down):  0.000E+00 3.257E-04

     total cpu time spent up to now is     3956.5 secs

     total energy              =   -2631.22829499 Ry
     estimated scf accuracy    <       0.05508468 Ry

     total magnetization       =     4.00 Bohr mag/cell
     absolute magnetization    =     4.08 Bohr mag/cell

     iteration #  7     ecut=    60.00 Ry     beta= 0.70
     Davidson diagonalization with overlap

---- Real-time Memory Report at c_bands before calling an iterative solver
           900 MiB given to the printing process from OS
             0 MiB allocation reported by mallinfo(arena+hblkhd)
          1926 MiB available memory on the node where the printing process lives
------------------
     c_bands:  1 eigenvalues not converged
     c_bands:  1 eigenvalues not converged
     ethr =  2.10E-05,  avg # of iterations =  4.8

     negative rho (up, down):  0.000E+00 3.048E-04

     total cpu time spent up to now is     4399.2 secs

     total energy              =   -2631.22613137 Ry
     estimated scf accuracy    <       0.02612978 Ry

     total magnetization       =     4.00 Bohr mag/cell
     absolute magnetization    =     4.07 Bohr mag/cell

     iteration #  8     ecut=    60.00 Ry     beta= 0.70
     Davidson diagonalization with overlap

---- Real-time Memory Report at c_bands before calling an iterative solver
           902 MiB given to the printing process from OS
             0 MiB allocation reported by mallinfo(arena+hblkhd)
          1973 MiB available memory on the node where the printing process lives
------------------
     c_bands:  1 eigenvalues not converged
     c_bands:  1 eigenvalues not converged
     c_bands:  1 eigenvalues not converged
     c_bands:  1 eigenvalues not converged
     c_bands:  1 eigenvalues not converged
     ethr =  9.97E-06,  avg # of iterations =  7.1

     negative rho (up, down):  0.000E+00 2.848E-04

     total cpu time spent up to now is     4894.1 secs

     total energy              =   -2631.22679524 Ry
     estimated scf accuracy    <       0.00821728 Ry

     total magnetization       =     4.00 Bohr mag/cell
     absolute magnetization    =     4.06 Bohr mag/cell

     iteration #  9     ecut=    60.00 Ry     beta= 0.70
     Davidson diagonalization with overlap

---- Real-time Memory Report at c_bands before calling an iterative solver
           904 MiB given to the printing process from OS
             0 MiB allocation reported by mallinfo(arena+hblkhd)
          2090 MiB available memory on the node where the printing process lives
------------------
     c_bands:  1 eigenvalues not converged
     c_bands:  1 eigenvalues not converged
     c_bands:  2 eigenvalues not converged
     c_bands:  1 eigenvalues not converged
     c_bands:  1 eigenvalues not converged
     c_bands:  1 eigenvalues not converged
     c_bands:  1 eigenvalues not converged
     c_bands:  1 eigenvalues not converged
     c_bands:  1 eigenvalues not converged
     c_bands:  1 eigenvalues not converged
     c_bands:  2 eigenvalues not converged
     ethr =  3.14E-06,  avg # of iterations = 13.6

     negative rho (up, down):  0.000E+00 2.762E-04

     total cpu time spent up to now is     5609.7 secs

     total energy              =   -2631.23001354 Ry
     estimated scf accuracy    <       0.00070146 Ry

     total magnetization       =     4.00 Bohr mag/cell
     absolute magnetization    =     4.06 Bohr mag/cell

     iteration # 10     ecut=    60.00 Ry     beta= 0.70
     Davidson diagonalization with overlap

---- Real-time Memory Report at c_bands before calling an iterative solver
           907 MiB given to the printing process from OS
             0 MiB allocation reported by mallinfo(arena+hblkhd)
          1902 MiB available memory on the node where the printing process lives
------------------
     c_bands:  1 eigenvalues not converged
     c_bands:  1 eigenvalues not converged
     c_bands:  2 eigenvalues not converged
     c_bands:  2 eigenvalues not converged
     ethr =  2.68E-07,  avg # of iterations =  9.7

     negative rho (up, down):  0.000E+00 2.719E-04

     total cpu time spent up to now is     6431.1 secs

     total energy              =   -2631.23058322 Ry
     estimated scf accuracy    <       0.00023082 Ry

     total magnetization       =     4.00 Bohr mag/cell
     absolute magnetization    =     4.05 Bohr mag/cell

     iteration # 11     ecut=    60.00 Ry     beta= 0.70
     Davidson diagonalization with overlap

---- Real-time Memory Report at c_bands before calling an iterative solver
           907 MiB given to the printing process from OS
             0 MiB allocation reported by mallinfo(arena+hblkhd)
          1944 MiB available memory on the node where the printing process lives
------------------
     c_bands:  1 eigenvalues not converged
     c_bands:  1 eigenvalues not converged
     ethr =  8.81E-08,  avg # of iterations =  6.4

     negative rho (up, down):  0.000E+00 2.675E-04

     total cpu time spent up to now is     7016.5 secs

     total energy              =   -2631.23068489 Ry
     estimated scf accuracy    <       0.00008750 Ry

     total magnetization       =     4.00 Bohr mag/cell
     absolute magnetization    =     4.05 Bohr mag/cell

     iteration # 12     ecut=    60.00 Ry     beta= 0.70
     Davidson diagonalization with overlap

---- Real-time Memory Report at c_bands before calling an iterative solver
           907 MiB given to the printing process from OS
             0 MiB allocation reported by mallinfo(arena+hblkhd)
          1934 MiB available memory on the node where the printing process lives
------------------
     ethr =  3.34E-08,  avg # of iterations =  3.9

     negative rho (up, down):  0.000E+00 2.672E-04

     total cpu time spent up to now is     7560.8 secs

     total energy              =   -2631.23068045 Ry
     estimated scf accuracy    <       0.00012285 Ry

     total magnetization       =     4.00 Bohr mag/cell
     absolute magnetization    =     4.05 Bohr mag/cell

     iteration # 13     ecut=    60.00 Ry     beta= 0.70
     Davidson diagonalization with overlap

---- Real-time Memory Report at c_bands before calling an iterative solver
           907 MiB given to the printing process from OS
             0 MiB allocation reported by mallinfo(arena+hblkhd)
          1720 MiB available memory on the node where the printing process lives
------------------
     ethr =  3.34E-08,  avg # of iterations =  2.0

     negative rho (up, down):  0.000E+00 2.672E-04

     total cpu time spent up to now is     7973.1 secs

     total energy              =   -2631.23066956 Ry
     estimated scf accuracy    <       0.00003735 Ry

     total magnetization       =     4.00 Bohr mag/cell
     absolute magnetization    =     4.05 Bohr mag/cell

     iteration # 14     ecut=    60.00 Ry     beta= 0.70
     Davidson diagonalization with overlap

---- Real-time Memory Report at c_bands before calling an iterative solver
           907 MiB given to the printing process from OS
             0 MiB allocation reported by mallinfo(arena+hblkhd)
          1970 MiB available memory on the node where the printing process lives
------------------
     ethr =  1.43E-08,  avg # of iterations =  6.5

     negative rho (up, down):  0.000E+00 2.684E-04

     total cpu time spent up to now is     8827.4 secs

     total energy              =   -2631.23069863 Ry
     estimated scf accuracy    <       0.00008863 Ry

     total magnetization       =     4.00 Bohr mag/cell
     absolute magnetization    =     4.05 Bohr mag/cell

     iteration # 15     ecut=    60.00 Ry     beta= 0.70
     Davidson diagonalization with overlap

---- Real-time Memory Report at c_bands before calling an iterative solver
           907 MiB given to the printing process from OS
             0 MiB allocation reported by mallinfo(arena+hblkhd)
          2058 MiB available memory on the node where the printing process lives
------------------
     ethr =  1.43E-08,  avg # of iterations =  4.4

     negative rho (up, down):  0.000E+00 2.698E-04

     total cpu time spent up to now is     9370.1 secs

     total energy              =   -2631.23071327 Ry
     estimated scf accuracy    <       0.00000646 Ry

     total magnetization       =     4.00 Bohr mag/cell
     absolute magnetization    =     4.05 Bohr mag/cell

     iteration # 16     ecut=    60.00 Ry     beta= 0.70
     Davidson diagonalization with overlap

---- Real-time Memory Report at c_bands before calling an iterative solver
           907 MiB given to the printing process from OS
             0 MiB allocation reported by mallinfo(arena+hblkhd)
          2081 MiB available memory on the node where the printing process lives
------------------
     ethr =  2.47E-09,  avg # of iterations =  6.0

     negative rho (up, down):  0.000E+00 2.706E-04

     total cpu time spent up to now is    10184.5 secs

     total energy              =   -2631.23072285 Ry
     estimated scf accuracy    <       0.00000917 Ry

     total magnetization       =     4.00 Bohr mag/cell
     absolute magnetization    =     4.05 Bohr mag/cell

     iteration # 17     ecut=    60.00 Ry     beta= 0.70
     Davidson diagonalization with overlap

---- Real-time Memory Report at c_bands before calling an iterative solver
           907 MiB given to the printing process from OS
             0 MiB allocation reported by mallinfo(arena+hblkhd)
          1915 MiB available memory on the node where the printing process lives
------------------
     ethr =  2.47E-09,  avg # of iterations =  2.5

     negative rho (up, down):  0.000E+00 2.706E-04

     total cpu time spent up to now is    10593.2 secs

     total energy              =   -2631.23072353 Ry
     estimated scf accuracy    <       0.00000298 Ry

     total magnetization       =     4.00 Bohr mag/cell
     absolute magnetization    =     4.05 Bohr mag/cell

     iteration # 18     ecut=    60.00 Ry     beta= 0.70
     Davidson diagonalization with overlap

---- Real-time Memory Report at c_bands before calling an iterative solver
           907 MiB given to the printing process from OS
             0 MiB allocation reported by mallinfo(arena+hblkhd)
          1941 MiB available memory on the node where the printing process lives
------------------
     ethr =  1.14E-09,  avg # of iterations =  4.0

     negative rho (up, down):  0.000E+00 2.705E-04

     Magnetic moment per site  (integrated on atomic sphere of radius R)
     atom   1 (R=0.212)  charge=  7.4974  magn=  0.0001
     atom   2 (R=0.212)  charge=  7.5011  magn=  0.0000
     atom   3 (R=0.157)  charge=  8.1037  magn=  0.0003
     atom   4 (R=0.157)  charge=  8.1055  magn= -0.0000
     atom   5 (R=0.157)  charge=  8.1021  magn=  0.0000
     atom   6 (R=0.157)  charge=  8.1048  magn=  0.0002
     atom   7 (R=0.157)  charge=  8.1062  magn=  0.0005
     atom   8 (R=0.125)  charge=  0.5446  magn=  0.0000
     atom   9 (R=0.125)  charge=  0.5446  magn=  0.0000
     atom  10 (R=0.125)  charge=  0.5380  magn=  0.0011
     atom  11 (R=0.125)  charge=  0.5380  magn=  0.0011
     atom  12 (R=0.125)  charge=  0.5365  magn=  0.0014
     atom  13 (R=0.125)  charge=  0.5365  magn=  0.0014
     atom  14 (R=0.134)  charge=  0.3371  magn= -0.0000
     atom  15 (R=0.134)  charge=  0.3371  magn= -0.0000
     atom  16 (R=0.074)  charge=  1.8934  magn=  0.0003
     atom  17 (R=0.074)  charge=  1.8934  magn=  0.0003
     atom  18 (R=0.074)  charge=  1.8932  magn=  0.0174
     atom  19 (R=0.074)  charge=  1.8932  magn=  0.0174
     atom  20 (R=0.074)  charge=  1.8907  magn=  0.0188
     atom  21 (R=0.074)  charge=  1.8907  magn=  0.0188
     atom  22 (R=0.074)  charge=  1.8899  magn=  0.0006
     atom  23 (R=0.074)  charge=  1.8899  magn=  0.0006
     atom  24 (R=0.074)  charge=  1.8951  magn=  0.0002
     atom  25 (R=0.074)  charge=  1.8951  magn=  0.0002
     atom  26 (R=0.074)  charge=  1.9013  magn=  0.0006
     atom  27 (R=0.074)  charge=  1.9013  magn=  0.0006
     atom  28 (R=0.074)  charge=  1.8990  magn= -0.0001
     atom  29 (R=0.074)  charge=  1.8990  magn= -0.0001
     atom  30 (R=0.074)  charge=  1.8985  magn=  0.0014
     atom  31 (R=0.074)  charge=  1.8985  magn=  0.0014
     atom  32 (R=0.074)  charge=  1.8962  magn=  0.0011
     atom  33 (R=0.074)  charge=  1.8962  magn=  0.0011
     atom  34 (R=0.074)  charge=  1.8943  magn=  0.0001
     atom  35 (R=0.074)  charge=  1.8943  magn=  0.0001
     atom  36 (R=0.074)  charge=  1.8952  magn=  0.0002
     atom  37 (R=0.074)  charge=  1.8952  magn=  0.0002
     atom  38 (R=0.074)  charge=  1.8937  magn=  0.0235
     atom  39 (R=0.074)  charge=  1.8937  magn=  0.0235
     atom  40 (R=0.074)  charge=  0.4001  magn= -0.0000
     atom  41 (R=0.074)  charge=  0.4001  magn= -0.0000
     atom  42 (R=0.074)  charge=  0.3983  magn=  0.0017
     atom  43 (R=0.074)  charge=  0.3983  magn=  0.0017
     atom  44 (R=0.158)  charge= 13.3242  magn=  3.3043

     total cpu time spent up to now is    11239.1 secs

     End of self-consistent calculation

 ------ SPIN UP ------------


          k = 0.0000 0.0000 0.0000 ( 25927 PWs)   bands (ev):

   -81.3600 -67.4851 -67.4157 -67.0416 -66.9811 -66.9427 -48.3227 -47.4430
   -46.5042 -34.2495 -34.2387 -34.2255 -34.1756 -34.1755 -34.1534 -33.7990
   -33.7948 -33.7908 -33.7534 -33.7270 -33.7228 -33.7142 -33.7051 -33.6593
   -23.0184 -23.0044 -15.0502 -14.9940 -14.1212 -14.0744 -13.5808 -13.5581
   -13.4286 -13.3176 -13.2719 -13.0853 -13.0473 -12.8235 -12.8096 -12.8026
   -12.7684 -12.6173 -12.5084 -12.4490 -12.2658 -12.2387 -12.1898 -12.0486
   -11.0233 -10.7788  -6.5912  -6.5675  -6.5119  -6.5049  -6.4805  -6.4773
    -4.2558  -4.1926  -2.3949  -2.2960  -1.9282  -1.3804  -1.1512  -1.1333
    -1.0548  -0.9985  -0.7818  -0.6510  -0.4767  -0.4067  -0.3433  -0.1508
    -0.0402   0.1043   0.1911   0.5097   0.5505   0.6287   0.6295   0.8470
     0.8763   1.0850   1.2865   1.3579   1.4181   1.4349   1.5484   1.7067
     1.7748   1.9030   2.0123   2.1155   2.1176   2.1927   2.2257   2.2448
     2.2985   2.4984   2.5342   2.5344   2.6791   2.6819   2.7188   2.8139
     2.8747   2.9236   2.9270   3.0230   3.2242   3.2297   3.3049   3.4354
     3.4649   3.5195   3.5554   3.5591   3.6154   3.6619   3.8288   3.8524
     3.8845   3.9672   3.9708   4.0457   4.1783   4.3177   4.4958   4.6497
     5.1031   5.1389   6.3237   6.8538   6.9469   9.1516  10.6728  11.2628
    11.6344  11.9862  12.1459  12.2628  12.6152  12.6233  13.0386  13.0897
    13.1656  13.3478  13.3592  13.5604  13.6852  13.6927  13.8168  13.8810
    13.9066  14.0986  14.2390  14.2905  14.3926

     occupation numbers 
     1.0000   1.0000   1.0000   1.0000   1.0000   1.0000   1.0000   1.0000
     1.0000   1.0000   1.0000   1.0000   1.0000   1.0000   1.0000   1.0000
     1.0000   1.0000   1.0000   1.0000   1.0000   1.0000   1.0000   1.0000
     1.0000   1.0000   1.0000   1.0000   1.0000   1.0000   1.0000   1.0000
     1.0000   1.0000   1.0000   1.0000   1.0000   1.0000   1.0000   1.0000
     1.0000   1.0000   1.0000   1.0000   1.0000   1.0000   1.0000   1.0000
     1.0000   1.0000   1.0000   1.0000   1.0000   1.0000   1.0000   1.0000
     1.0000   1.0000   1.0000   1.0000   1.0000   1.0000   1.0000   1.0000
     1.0000   1.0000   1.0000   1.0000   1.0000   1.0000   1.0000   1.0000
     1.0000   1.0000   1.0000   1.0000   1.0000   1.0000   1.0000   1.0000
     1.0000   1.0000   1.0000   1.0000   1.0000   1.0000   1.0000   1.0000
     1.0000   1.0000   1.0000   1.0000   1.0000   1.0000   1.0000   1.0000
     1.0000   1.0000   1.0000   1.0000   1.0000   1.0000   1.0000   1.0000
     1.0000   1.0000   1.0000   1.0000   1.0000   1.0000   1.0000   1.0000
     1.0000   1.0000   1.0000   1.0000   1.0000   1.0000   1.0000   1.0000
     1.0000   1.0000   1.0000   1.0000   1.0000   1.0000   1.0000   1.0000
     1.0000   1.0000   1.0000   1.0000   1.0000   0.0000   0.0000   0.0000
     0.0000   0.0000   0.0000   0.0000   0.0000   0.0000   0.0000   0.0000
     0.0000   0.0000   0.0000   0.0000   0.0000   0.0000   0.0000   0.0000
     0.0000   0.0000   0.0000   0.0000   0.0000

          k = 0.0000 0.0000 0.1758 ( 25971 PWs)   bands (ev):

   -81.3600 -67.4851 -67.4157 -67.0416 -66.9811 -66.9427 -48.3227 -47.4430
   -46.5043 -34.2495 -34.2387 -34.2255 -34.1756 -34.1755 -34.1535 -33.7990
   -33.7948 -33.7909 -33.7534 -33.7270 -33.7228 -33.7142 -33.7051 -33.6593
   -23.0184 -23.0044 -15.0369 -15.0083 -14.1100 -14.0863 -13.5819 -13.5570
   -13.4224 -13.3100 -13.2877 -13.0802 -13.0479 -12.8277 -12.8084 -12.8034
   -12.7622 -12.6213 -12.4998 -12.4573 -12.2686 -12.2347 -12.1838 -12.0552
   -11.0230 -10.7795  -6.5913  -6.5675  -6.5119  -6.5048  -6.4804  -6.4773
    -4.2484  -4.2006  -2.3722  -2.3230  -1.9028  -1.3601  -1.1799  -1.1062
    -1.0518  -1.0113  -0.8000  -0.6181  -0.4927  -0.3837  -0.3504  -0.2713
    -0.0280   0.1431   0.1608   0.4560   0.5419   0.5982   0.6221   0.8914
     0.9251   1.1404   1.2284   1.3410   1.4052   1.5085   1.6203   1.7138
     1.8226   1.9095   2.0906   2.1091   2.1336   2.1815   2.2453   2.2698
     2.3152   2.3802   2.5028   2.5169   2.6170   2.6730   2.6937   2.7818
     2.8260   2.8929   3.0206   3.0989   3.1236   3.2678   3.3062   3.4188
     3.4537   3.4771   3.5411   3.6256   3.6706   3.7420   3.7869   3.8203
     3.8546   3.9362   3.9650   4.0595   4.1806   4.3194   4.4946   4.6533
     5.0993   5.1402   6.3243   6.8560   6.9429   9.4633  10.1925  11.3697
    11.6632  11.8138  12.1877  12.2113  12.7315  12.8920  12.9887  13.1169
    13.2541  13.2988  13.3907  13.4963  13.5545  13.7262  13.8312  13.8459
    13.9523  14.0626  14.1820  14.3078  14.3240

     occupation numbers 
     1.0000   1.0000   1.0000   1.0000   1.0000   1.0000   1.0000   1.0000
     1.0000   1.0000   1.0000   1.0000   1.0000   1.0000   1.0000   1.0000
     1.0000   1.0000   1.0000   1.0000   1.0000   1.0000   1.0000   1.0000
     1.0000   1.0000   1.0000   1.0000   1.0000   1.0000   1.0000   1.0000
     1.0000   1.0000   1.0000   1.0000   1.0000   1.0000   1.0000   1.0000
     1.0000   1.0000   1.0000   1.0000   1.0000   1.0000   1.0000   1.0000
     1.0000   1.0000   1.0000   1.0000   1.0000   1.0000   1.0000   1.0000
     1.0000   1.0000   1.0000   1.0000   1.0000   1.0000   1.0000   1.0000
     1.0000   1.0000   1.0000   1.0000   1.0000   1.0000   1.0000   1.0000
     1.0000   1.0000   1.0000   1.0000   1.0000   1.0000   1.0000   1.0000
     1.0000   1.0000   1.0000   1.0000   1.0000   1.0000   1.0000   1.0000
     1.0000   1.0000   1.0000   1.0000   1.0000   1.0000   1.0000   1.0000
     1.0000   1.0000   1.0000   1.0000   1.0000   1.0000   1.0000   1.0000
     1.0000   1.0000   1.0000   1.0000   1.0000   1.0000   1.0000   1.0000
     1.0000   1.0000   1.0000   1.0000   1.0000   1.0000   1.0000   1.0000
     1.0000   1.0000   1.0000   1.0000   1.0000   1.0000   1.0000   1.0000
     1.0000   1.0000   1.0000   1.0000   1.0000   0.0000   0.0000   0.0000
     0.0000   0.0000   0.0000   0.0000   0.0000   0.0000   0.0000   0.0000
     0.0000   0.0000   0.0000   0.0000   0.0000   0.0000   0.0000   0.0000
     0.0000   0.0000   0.0000   0.0000   0.0000

          k = 0.0000 0.1921 0.0000 ( 25933 PWs)   bands (ev):

   -81.3600 -67.4851 -67.4157 -67.0416 -66.9811 -66.9427 -48.3227 -47.4430
   -46.5043 -34.2495 -34.2388 -34.2255 -34.1756 -34.1754 -34.1534 -33.7990
   -33.7948 -33.7908 -33.7534 -33.7270 -33.7228 -33.7142 -33.7051 -33.6593
   -23.0184 -23.0044 -15.0450 -14.9889 -14.1559 -14.1056 -13.5808 -13.5582
   -13.3975 -13.2462 -13.1684 -13.0980 -13.0438 -12.9169 -12.8934 -12.7865
   -12.7758 -12.6174 -12.4999 -12.4435 -12.2657 -12.2383 -12.1839 -12.0451
   -11.0220 -10.7783  -6.5869  -6.5721  -6.5113  -6.5023  -6.4826  -6.4782
    -4.2155  -4.1514  -2.5448  -2.4378  -1.8929  -1.3923  -1.0649  -1.0527
    -0.9770  -0.9605  -0.8201  -0.7416  -0.4627  -0.3121  -0.2850  -0.1231
    -0.1210   0.1121   0.1591   0.4839   0.5088   0.5941   0.6509   0.7827
     0.9064   1.1016   1.1857   1.3383   1.4172   1.4971   1.5906   1.6772
     1.8762   1.9476   1.9805   2.1230   2.1792   2.2298   2.2867   2.3139
     2.3589   2.4579   2.4737   2.5158   2.6060   2.6626   2.7500   2.8056
     2.9366   2.9442   2.9704   3.0205   3.1697   3.2706   3.3239   3.3911
     3.4476   3.4867   3.4951   3.5771   3.6007   3.6842   3.8083   3.8388
     3.9203   3.9416   3.9651   4.0425   4.1908   4.3026   4.3029   4.6322
     5.0981   5.1615   6.3258   6.8629   6.9149   9.5534  10.4940  10.8986
    11.5096  11.8628  12.2895  12.6235  12.6335  12.7973  12.9525  13.1100
    13.1973  13.3445  13.3921  13.5107  13.5323  13.6997  13.7372  13.8337
    13.8434  13.9048  14.3264  14.3977  14.5124

     occupation numbers 
     1.0000   1.0000   1.0000   1.0000   1.0000   1.0000   1.0000   1.0000
     1.0000   1.0000   1.0000   1.0000   1.0000   1.0000   1.0000   1.0000
     1.0000   1.0000   1.0000   1.0000   1.0000   1.0000   1.0000   1.0000
     1.0000   1.0000   1.0000   1.0000   1.0000   1.0000   1.0000   1.0000
     1.0000   1.0000   1.0000   1.0000   1.0000   1.0000   1.0000   1.0000
     1.0000   1.0000   1.0000   1.0000   1.0000   1.0000   1.0000   1.0000
     1.0000   1.0000   1.0000   1.0000   1.0000   1.0000   1.0000   1.0000
     1.0000   1.0000   1.0000   1.0000   1.0000   1.0000   1.0000   1.0000
     1.0000   1.0000   1.0000   1.0000   1.0000   1.0000   1.0000   1.0000
     1.0000   1.0000   1.0000   1.0000   1.0000   1.0000   1.0000   1.0000
     1.0000   1.0000   1.0000   1.0000   1.0000   1.0000   1.0000   1.0000
     1.0000   1.0000   1.0000   1.0000   1.0000   1.0000   1.0000   1.0000
     1.0000   1.0000   1.0000   1.0000   1.0000   1.0000   1.0000   1.0000
     1.0000   1.0000   1.0000   1.0000   1.0000   1.0000   1.0000   1.0000
     1.0000   1.0000   1.0000   1.0000   1.0000   1.0000   1.0000   1.0000
     1.0000   1.0000   1.0000   1.0000   1.0000   1.0000   1.0000   1.0000
     1.0000   1.0000   1.0000   1.0000   1.0000   0.0000   0.0000   0.0000
     0.0000   0.0000   0.0000   0.0000   0.0000   0.0000   0.0000   0.0000
     0.0000   0.0000   0.0000   0.0000   0.0000   0.0000   0.0000   0.0000
     0.0000   0.0000   0.0000   0.0000   0.0000

          k = 0.0000 0.1921 0.1758 ( 25924 PWs)   bands (ev):

   -81.3600 -67.4851 -67.4157 -67.0416 -66.9811 -66.9427 -48.3227 -47.4430
   -46.5043 -34.2495 -34.2388 -34.2255 -34.1756 -34.1754 -34.1535 -33.7990
   -33.7948 -33.7909 -33.7534 -33.7270 -33.7228 -33.7142 -33.7051 -33.6593
   -23.0184 -23.0044 -15.0316 -15.0032 -14.1438 -14.1186 -13.5819 -13.5570
   -13.3946 -13.2354 -13.1868 -13.0878 -13.0454 -12.9322 -12.8782 -12.7889
   -12.7724 -12.6213 -12.4921 -12.4516 -12.2683 -12.2346 -12.1774 -12.0516
   -11.0217 -10.7790  -6.5870  -6.5722  -6.5113  -6.5022  -6.4825  -6.4782
    -4.2056  -4.1619  -2.5202  -2.4651  -1.8718  -1.3766  -1.0733  -1.0461
    -0.9861  -0.9474  -0.8428  -0.7096  -0.4856  -0.3387  -0.2726  -0.2052
    -0.0876   0.0974   0.1432   0.4615   0.5026   0.5480   0.6441   0.8377
     0.9510   1.1128   1.1315   1.3923   1.4648   1.5357   1.6244   1.7503
     1.8849   1.9378   2.0051   2.0946   2.1261   2.2632   2.2893   2.3264
     2.3614   2.4026   2.4809   2.5117   2.5977   2.6564   2.6806   2.8298
     2.8525   2.9051   3.0229   3.0979   3.1765   3.1961   3.3173   3.3585
     3.4462   3.4674   3.5219   3.5919   3.6156   3.7586   3.7780   3.8465
     3.8913   3.9270   3.9431   4.0394   4.2021   4.3059   4.3220   4.6383
     5.0924   5.1627   6.3267   6.8652   6.9083   9.8226  10.4753  10.6863
    11.2014  11.8626  12.2812  12.6493  12.7501  12.9402  13.0896  13.1390
    13.2511  13.3400  13.4390  13.4970  13.6188  13.6364  13.6866  13.7885
    13.8496  14.0036  14.2811  14.3425  14.4520

     occupation numbers 
     1.0000   1.0000   1.0000   1.0000   1.0000   1.0000   1.0000   1.0000
     1.0000   1.0000   1.0000   1.0000   1.0000   1.0000   1.0000   1.0000
     1.0000   1.0000   1.0000   1.0000   1.0000   1.0000   1.0000   1.0000
     1.0000   1.0000   1.0000   1.0000   1.0000   1.0000   1.0000   1.0000
     1.0000   1.0000   1.0000   1.0000   1.0000   1.0000   1.0000   1.0000
     1.0000   1.0000   1.0000   1.0000   1.0000   1.0000   1.0000   1.0000
     1.0000   1.0000   1.0000   1.0000   1.0000   1.0000   1.0000   1.0000
     1.0000   1.0000   1.0000   1.0000   1.0000   1.0000   1.0000   1.0000
     1.0000   1.0000   1.0000   1.0000   1.0000   1.0000   1.0000   1.0000
     1.0000   1.0000   1.0000   1.0000   1.0000   1.0000   1.0000   1.0000
     1.0000   1.0000   1.0000   1.0000   1.0000   1.0000   1.0000   1.0000
     1.0000   1.0000   1.0000   1.0000   1.0000   1.0000   1.0000   1.0000
     1.0000   1.0000   1.0000   1.0000   1.0000   1.0000   1.0000   1.0000
     1.0000   1.0000   1.0000   1.0000   1.0000   1.0000   1.0000   1.0000
     1.0000   1.0000   1.0000   1.0000   1.0000   1.0000   1.0000   1.0000
     1.0000   1.0000   1.0000   1.0000   1.0000   1.0000   1.0000   1.0000
     1.0000   1.0000   1.0000   1.0000   1.0000   0.0000   0.0000   0.0000
     0.0000   0.0000   0.0000   0.0000   0.0000   0.0000   0.0000   0.0000
     0.0000   0.0000   0.0000   0.0000   0.0000   0.0000   0.0000   0.0000
     0.0000   0.0000   0.0000   0.0000   0.0000

          k = 0.1667 0.0000 0.0301 ( 25941 PWs)   bands (ev):

   -81.3600 -67.4851 -67.4157 -67.0416 -66.9811 -66.9427 -48.3227 -47.4430
   -46.5043 -34.2495 -34.2387 -34.2254 -34.1756 -34.1755 -34.1534 -33.7989
   -33.7949 -33.7908 -33.7534 -33.7272 -33.7226 -33.7135 -33.7054 -33.6597
   -23.0182 -23.0042 -14.9918 -14.9372 -14.1375 -14.0941 -13.7026 -13.6696
   -13.3875 -13.2567 -13.1874 -13.0815 -13.0387 -12.8501 -12.8112 -12.7880
   -12.7540 -12.6276 -12.5266 -12.4593 -12.3288 -12.2857 -12.1689 -12.0368
   -11.0200 -10.7835  -6.5910  -6.5717  -6.5105  -6.5030  -6.4808  -6.4741
    -4.0970  -4.0345  -2.3639  -2.2619  -1.9052  -1.4469  -1.4221  -1.2828
    -0.9207  -0.8133  -0.7662  -0.6494  -0.4652  -0.3995  -0.3214  -0.1979
    -0.0381   0.1450   0.1871   0.4576   0.5304   0.6129   0.6592   0.7258
     0.9830   1.1540   1.2571   1.3626   1.3915   1.4516   1.5125   1.6716
     1.7517   1.9326   1.9619   2.0345   2.0793   2.1598   2.2731   2.3227
     2.3869   2.4496   2.5201   2.5572   2.6337   2.6681   2.7187   2.7945
     2.8620   2.9451   2.9992   3.0345   3.1615   3.2444   3.2774   3.3727
     3.4143   3.4629   3.5680   3.5982   3.6385   3.6749   3.7983   3.8558
     3.8738   3.8987   3.9514   4.0161   4.1316   4.3318   4.4716   4.5608
     5.0661   5.1373   6.3311   6.8579   6.9468   9.4748  10.8489  11.3405
    11.7564  12.0217  12.1668  12.4280  12.5865  12.7526  12.9493  13.0601
    13.1937  13.3330  13.3396  13.5712  13.6235  13.6840  13.7700  13.8216
    13.8958  14.1615  14.2034  14.2861  14.4098

     occupation numbers 
     1.0000   1.0000   1.0000   1.0000   1.0000   1.0000   1.0000   1.0000
     1.0000   1.0000   1.0000   1.0000   1.0000   1.0000   1.0000   1.0000
     1.0000   1.0000   1.0000   1.0000   1.0000   1.0000   1.0000   1.0000
     1.0000   1.0000   1.0000   1.0000   1.0000   1.0000   1.0000   1.0000
     1.0000   1.0000   1.0000   1.0000   1.0000   1.0000   1.0000   1.0000
     1.0000   1.0000   1.0000   1.0000   1.0000   1.0000   1.0000   1.0000
     1.0000   1.0000   1.0000   1.0000   1.0000   1.0000   1.0000   1.0000
     1.0000   1.0000   1.0000   1.0000   1.0000   1.0000   1.0000   1.0000
     1.0000   1.0000   1.0000   1.0000   1.0000   1.0000   1.0000   1.0000
     1.0000   1.0000   1.0000   1.0000   1.0000   1.0000   1.0000   1.0000
     1.0000   1.0000   1.0000   1.0000   1.0000   1.0000   1.0000   1.0000
     1.0000   1.0000   1.0000   1.0000   1.0000   1.0000   1.0000   1.0000
     1.0000   1.0000   1.0000   1.0000   1.0000   1.0000   1.0000   1.0000
     1.0000   1.0000   1.0000   1.0000   1.0000   1.0000   1.0000   1.0000
     1.0000   1.0000   1.0000   1.0000   1.0000   1.0000   1.0000   1.0000
     1.0000   1.0000   1.0000   1.0000   1.0000   1.0000   1.0000   1.0000
     1.0000   1.0000   1.0000   1.0000   1.0000   0.0000   0.0000   0.0000
     0.0000   0.0000   0.0000   0.0000   0.0000   0.0000   0.0000   0.0000
     0.0000   0.0000   0.0000   0.0000   0.0000   0.0000   0.0000   0.0000
     0.0000   0.0000   0.0000   0.0000   0.0000

          k = 0.1667 0.0000 0.2059 ( 25961 PWs)   bands (ev):

   -81.3600 -67.4851 -67.4157 -67.0416 -66.9811 -66.9427 -48.3227 -47.4430
   -46.5043 -34.2495 -34.2388 -34.2255 -34.1756 -34.1755 -34.1535 -33.7989
   -33.7950 -33.7908 -33.7534 -33.7272 -33.7227 -33.7135 -33.7054 -33.6597
   -23.0182 -23.0042 -14.9750 -14.9551 -14.1274 -14.1048 -13.6981 -13.6743
   -13.3830 -13.2482 -13.2036 -13.0785 -13.0354 -12.8465 -12.8238 -12.7822
   -12.7480 -12.6323 -12.5208 -12.4657 -12.3245 -12.2903 -12.1590 -12.0451
   -11.0195 -10.7844  -6.5911  -6.5717  -6.5105  -6.5030  -6.4806  -6.4741
    -4.0955  -4.0364  -2.3438  -2.2869  -1.8777  -1.4669  -1.4082  -1.2654
    -0.9251  -0.8036  -0.7913  -0.6165  -0.4640  -0.3859  -0.3249  -0.3124
    -0.0171   0.1360   0.1993   0.3966   0.5000   0.5844   0.6522   0.7688
     1.0422   1.1794   1.2464   1.3175   1.4054   1.5143   1.5937   1.6605
     1.8105   1.8851   1.9732   2.0615   2.1602   2.1954   2.2648   2.3440
     2.3663   2.3964   2.4740   2.5455   2.5870   2.6085   2.6899   2.7689
     2.8621   2.9240   3.0094   3.0874   3.1838   3.2173   3.2628   3.3619
     3.4037   3.4777   3.5554   3.6080   3.6765   3.7321   3.7626   3.8396
     3.8753   3.8777   3.9253   4.0331   4.1394   4.3189   4.4739   4.5810
     5.0621   5.1367   6.3318   6.8585   6.9429   9.8405  10.3058  11.4350
    11.7761  11.8750  12.2166  12.3582  12.5486  12.8633  13.0753  13.1961
    13.2503  13.3770  13.4134  13.4388  13.6009  13.7126  13.7535  13.8398
    13.9031  13.9735  14.1166  14.3766  14.4001

     occupation numbers 
     1.0000   1.0000   1.0000   1.0000   1.0000   1.0000   1.0000   1.0000
     1.0000   1.0000   1.0000   1.0000   1.0000   1.0000   1.0000   1.0000
     1.0000   1.0000   1.0000   1.0000   1.0000   1.0000   1.0000   1.0000
     1.0000   1.0000   1.0000   1.0000   1.0000   1.0000   1.0000   1.0000
     1.0000   1.0000   1.0000   1.0000   1.0000   1.0000   1.0000   1.0000
     1.0000   1.0000   1.0000   1.0000   1.0000   1.0000   1.0000   1.0000
     1.0000   1.0000   1.0000   1.0000   1.0000   1.0000   1.0000   1.0000
     1.0000   1.0000   1.0000   1.0000   1.0000   1.0000   1.0000   1.0000
     1.0000   1.0000   1.0000   1.0000   1.0000   1.0000   1.0000   1.0000
     1.0000   1.0000   1.0000   1.0000   1.0000   1.0000   1.0000   1.0000
     1.0000   1.0000   1.0000   1.0000   1.0000   1.0000   1.0000   1.0000
     1.0000   1.0000   1.0000   1.0000   1.0000   1.0000   1.0000   1.0000
     1.0000   1.0000   1.0000   1.0000   1.0000   1.0000   1.0000   1.0000
     1.0000   1.0000   1.0000   1.0000   1.0000   1.0000   1.0000   1.0000
     1.0000   1.0000   1.0000   1.0000   1.0000   1.0000   1.0000   1.0000
     1.0000   1.0000   1.0000   1.0000   1.0000   1.0000   1.0000   1.0000
     1.0000   1.0000   1.0000   1.0000   1.0000   0.0000   0.0000   0.0000
     0.0000   0.0000   0.0000   0.0000   0.0000   0.0000   0.0000   0.0000
     0.0000   0.0000   0.0000   0.0000   0.0000   0.0000   0.0000   0.0000
     0.0000   0.0000   0.0000   0.0000   0.0000

          k = 0.1667 0.0000-0.1457 ( 25956 PWs)   bands (ev):

   -81.3600 -67.4851 -67.4157 -67.0416 -66.9811 -66.9427 -48.3227 -47.4430
   -46.5043 -34.2495 -34.2388 -34.2255 -34.1756 -34.1755 -34.1534 -33.7989
   -33.7949 -33.7908 -33.7534 -33.7272 -33.7226 -33.7135 -33.7054 -33.6597
   -23.0182 -23.0042 -14.9826 -14.9472 -14.1291 -14.1031 -13.6961 -13.6764
   -13.3849 -13.2434 -13.2063 -13.0811 -13.0345 -12.8433 -12.8238 -12.7819
   -12.7525 -12.6319 -12.5140 -12.4712 -12.3150 -12.3003 -12.1595 -12.0439
   -11.0194 -10.7843  -6.5912  -6.5717  -6.5105  -6.5030  -6.4806  -6.4741
    -4.0820  -4.0501  -2.3402  -2.2888  -1.8887  -1.4621  -1.4124  -1.2685
    -0.9170  -0.8142  -0.7839  -0.6150  -0.4846  -0.3851  -0.3443  -0.2431
    -0.0516   0.1556   0.1864   0.4238   0.5390   0.5995   0.6519   0.7709
     1.0012   1.1614   1.2112   1.3258   1.4202   1.5036   1.5719   1.6407
     1.8031   1.8797   1.9889   2.0430   2.1299   2.1902   2.2642   2.3093
     2.3718   2.4332   2.5121   2.5422   2.6011   2.6491   2.6931   2.8115
     2.8647   2.9069   2.9993   3.1163   3.1462   3.2293   3.2605   3.3947
     3.4078   3.4721   3.5616   3.6309   3.6648   3.6756   3.7902   3.8105
     3.8573   3.8741   3.9100   4.0504   4.1432   4.3197   4.4787   4.5725
     5.0650   5.1379   6.3315   6.8585   6.9441   9.6618  10.5360  11.4698
    11.8149  11.8786  12.2511  12.3259  12.5762  12.9254  12.9737  13.1030
    13.2109  13.3355  13.3862  13.4564  13.5789  13.6526  13.7269  13.8529
    13.9013  14.0764  14.2017  14.3633  14.3868

     occupation numbers 
     1.0000   1.0000   1.0000   1.0000   1.0000   1.0000   1.0000   1.0000
     1.0000   1.0000   1.0000   1.0000   1.0000   1.0000   1.0000   1.0000
     1.0000   1.0000   1.0000   1.0000   1.0000   1.0000   1.0000   1.0000
     1.0000   1.0000   1.0000   1.0000   1.0000   1.0000   1.0000   1.0000
     1.0000   1.0000   1.0000   1.0000   1.0000   1.0000   1.0000   1.0000
     1.0000   1.0000   1.0000   1.0000   1.0000   1.0000   1.0000   1.0000
     1.0000   1.0000   1.0000   1.0000   1.0000   1.0000   1.0000   1.0000
     1.0000   1.0000   1.0000   1.0000   1.0000   1.0000   1.0000   1.0000
     1.0000   1.0000   1.0000   1.0000   1.0000   1.0000   1.0000   1.0000
     1.0000   1.0000   1.0000   1.0000   1.0000   1.0000   1.0000   1.0000
     1.0000   1.0000   1.0000   1.0000   1.0000   1.0000   1.0000   1.0000
     1.0000   1.0000   1.0000   1.0000   1.0000   1.0000   1.0000   1.0000
     1.0000   1.0000   1.0000   1.0000   1.0000   1.0000   1.0000   1.0000
     1.0000   1.0000   1.0000   1.0000   1.0000   1.0000   1.0000   1.0000
     1.0000   1.0000   1.0000   1.0000   1.0000   1.0000   1.0000   1.0000
     1.0000   1.0000   1.0000   1.0000   1.0000   1.0000   1.0000   1.0000
     1.0000   1.0000   1.0000   1.0000   1.0000   0.0000   0.0000   0.0000
     0.0000   0.0000   0.0000   0.0000   0.0000   0.0000   0.0000   0.0000
     0.0000   0.0000   0.0000   0.0000   0.0000   0.0000   0.0000   0.0000
     0.0000   0.0000   0.0000   0.0000   0.0000

          k = 0.1667 0.1921 0.0301 ( 25937 PWs)   bands (ev):

   -81.3600 -67.4851 -67.4157 -67.0416 -66.9811 -66.9427 -48.3227 -47.4430
   -46.5043 -34.2495 -34.2388 -34.2254 -34.1756 -34.1754 -34.1534 -33.7989
   -33.7949 -33.7908 -33.7534 -33.7272 -33.7226 -33.7135 -33.7054 -33.6597
   -23.0182 -23.0042 -14.9869 -14.9322 -14.1680 -14.1211 -13.6883 -13.6593
   -13.3735 -13.2077 -13.1208 -13.0692 -13.0358 -12.9033 -12.8856 -12.7930
   -12.7711 -12.6266 -12.5206 -12.4501 -12.3247 -12.2856 -12.1658 -12.0349
   -11.0190 -10.7832  -6.5876  -6.5756  -6.5103  -6.5010  -6.4822  -6.4746
    -4.0599  -3.9966  -2.5255  -2.4184  -1.8572  -1.3808  -1.2889  -1.2413
    -0.9299  -0.8084  -0.7866  -0.6894  -0.4804  -0.2899  -0.2701  -0.1486
    -0.0776   0.1155   0.1559   0.4448   0.4823   0.6135   0.6462   0.6938
     0.9734   1.1102   1.2428   1.3487   1.4028   1.4869   1.5383   1.6333
     1.7784   1.9192   1.9480   2.0441   2.1512   2.2094   2.3098   2.3343
     2.3883   2.4528   2.5371   2.5653   2.6072   2.7035   2.7508   2.7966
     2.9002   2.9455   2.9984   3.0533   3.1309   3.2437   3.3232   3.3643
     3.4078   3.4684   3.5030   3.5794   3.6378   3.6599   3.7694   3.8080
     3.8497   3.8793   3.9365   4.0590   4.1374   4.2998   4.3451   4.5895
     5.0581   5.1596   6.3326   6.8693   6.9148   9.8274  10.6756  11.0554
    11.6053  11.9177  12.2718  12.6149  12.7097  12.7966  13.0303  13.0684
    13.2110  13.3284  13.3721  13.5026  13.5284  13.6407  13.7418  13.7925
    13.9634  14.0216  14.2703  14.4221  14.5679

     occupation numbers 
     1.0000   1.0000   1.0000   1.0000   1.0000   1.0000   1.0000   1.0000
     1.0000   1.0000   1.0000   1.0000   1.0000   1.0000   1.0000   1.0000
     1.0000   1.0000   1.0000   1.0000   1.0000   1.0000   1.0000   1.0000
     1.0000   1.0000   1.0000   1.0000   1.0000   1.0000   1.0000   1.0000
     1.0000   1.0000   1.0000   1.0000   1.0000   1.0000   1.0000   1.0000
     1.0000   1.0000   1.0000   1.0000   1.0000   1.0000   1.0000   1.0000
     1.0000   1.0000   1.0000   1.0000   1.0000   1.0000   1.0000   1.0000
     1.0000   1.0000   1.0000   1.0000   1.0000   1.0000   1.0000   1.0000
     1.0000   1.0000   1.0000   1.0000   1.0000   1.0000   1.0000   1.0000
     1.0000   1.0000   1.0000   1.0000   1.0000   1.0000   1.0000   1.0000
     1.0000   1.0000   1.0000   1.0000   1.0000   1.0000   1.0000   1.0000
     1.0000   1.0000   1.0000   1.0000   1.0000   1.0000   1.0000   1.0000
     1.0000   1.0000   1.0000   1.0000   1.0000   1.0000   1.0000   1.0000
     1.0000   1.0000   1.0000   1.0000   1.0000   1.0000   1.0000   1.0000
     1.0000   1.0000   1.0000   1.0000   1.0000   1.0000   1.0000   1.0000
     1.0000   1.0000   1.0000   1.0000   1.0000   1.0000   1.0000   1.0000
     1.0000   1.0000   1.0000   1.0000   1.0000   0.0000   0.0000   0.0000
     0.0000   0.0000   0.0000   0.0000   0.0000   0.0000   0.0000   0.0000
     0.0000   0.0000   0.0000   0.0000   0.0000   0.0000   0.0000   0.0000
     0.0000   0.0000   0.0000   0.0000   0.0000

          k = 0.1667 0.1921 0.2059 ( 25944 PWs)   bands (ev):

   -81.3600 -67.4851 -67.4157 -67.0416 -66.9811 -66.9427 -48.3227 -47.4430
   -46.5043 -34.2495 -34.2388 -34.2255 -34.1756 -34.1754 -34.1535 -33.7989
   -33.7949 -33.7908 -33.7534 -33.7272 -33.7226 -33.7135 -33.7054 -33.6597
   -23.0182 -23.0042 -14.9699 -14.9502 -14.1554 -14.1346 -13.6861 -13.6617
   -13.3705 -13.1974 -13.1386 -13.0661 -13.0293 -12.9196 -12.8712 -12.7925
   -12.7685 -12.6311 -12.5164 -12.4557 -12.3223 -12.2879 -12.1561 -12.0430
   -11.0185 -10.7840  -6.5876  -6.5756  -6.5102  -6.5010  -6.4821  -6.4746
    -4.0553  -4.0015  -2.4996  -2.4473  -1.8365  -1.3619  -1.3146  -1.2204
    -0.9339  -0.8297  -0.7722  -0.6558  -0.4917  -0.3614  -0.2449  -0.1921
    -0.0505   0.0743   0.1774   0.4185   0.4329   0.5938   0.6176   0.7471
     1.0091   1.1094   1.2360   1.3935   1.4174   1.5185   1.6155   1.6984
     1.8268   1.8387   1.9269   2.0390   2.1777   2.2403   2.2869   2.3046
     2.4262   2.4442   2.5200   2.5606   2.5844   2.6632   2.7187   2.8118
     2.8438   2.9028   3.0393   3.0953   3.1662   3.2084   3.2592   3.3309
     3.4062   3.4737   3.5443   3.5728   3.6488   3.7080   3.7343   3.7959
     3.8407   3.9094   3.9395   4.0324   4.1528   4.2960   4.3582   4.6035
     5.0527   5.1590   6.3334   6.8702   6.9093  10.1387  10.5834  10.8805
    11.2879  11.9089  12.2595  12.6197  12.7725  12.8610  13.1128  13.2102
    13.3125  13.3668  13.4228  13.4788  13.5698  13.6851  13.7278  13.7813
    13.8730  14.0179  14.1812  14.3432  14.5374

     occupation numbers 
     1.0000   1.0000   1.0000   1.0000   1.0000   1.0000   1.0000   1.0000
     1.0000   1.0000   1.0000   1.0000   1.0000   1.0000   1.0000   1.0000
     1.0000   1.0000   1.0000   1.0000   1.0000   1.0000   1.0000   1.0000
     1.0000   1.0000   1.0000   1.0000   1.0000   1.0000   1.0000   1.0000
     1.0000   1.0000   1.0000   1.0000   1.0000   1.0000   1.0000   1.0000
     1.0000   1.0000   1.0000   1.0000   1.0000   1.0000   1.0000   1.0000
     1.0000   1.0000   1.0000   1.0000   1.0000   1.0000   1.0000   1.0000
     1.0000   1.0000   1.0000   1.0000   1.0000   1.0000   1.0000   1.0000
     1.0000   1.0000   1.0000   1.0000   1.0000   1.0000   1.0000   1.0000
     1.0000   1.0000   1.0000   1.0000   1.0000   1.0000   1.0000   1.0000
     1.0000   1.0000   1.0000   1.0000   1.0000   1.0000   1.0000   1.0000
     1.0000   1.0000   1.0000   1.0000   1.0000   1.0000   1.0000   1.0000
     1.0000   1.0000   1.0000   1.0000   1.0000   1.0000   1.0000   1.0000
     1.0000   1.0000   1.0000   1.0000   1.0000   1.0000   1.0000   1.0000
     1.0000   1.0000   1.0000   1.0000   1.0000   1.0000   1.0000   1.0000
     1.0000   1.0000   1.0000   1.0000   1.0000   1.0000   1.0000   1.0000
     1.0000   1.0000   1.0000   1.0000   1.0000   0.0000   0.0000   0.0000
     0.0000   0.0000   0.0000   0.0000   0.0000   0.0000   0.0000   0.0000
     0.0000   0.0000   0.0000   0.0000   0.0000   0.0000   0.0000   0.0000
     0.0000   0.0000   0.0000   0.0000   0.0000

          k = 0.1667 0.1921-0.1457 ( 25923 PWs)   bands (ev):

   -81.3600 -67.4851 -67.4157 -67.0416 -66.9811 -66.9427 -48.3227 -47.4430
   -46.5043 -34.2495 -34.2388 -34.2254 -34.1756 -34.1754 -34.1534 -33.7989
   -33.7949 -33.7908 -33.7534 -33.7272 -33.7226 -33.7135 -33.7054 -33.6597
   -23.0182 -23.0042 -14.9775 -14.9423 -14.1587 -14.1311 -13.6827 -13.6653
   -13.3715 -13.1985 -13.1331 -13.0721 -13.0288 -12.9140 -12.8755 -12.7954
   -12.7675 -12.6304 -12.5091 -12.4614 -12.3141 -12.2967 -12.1565 -12.0419
   -11.0183 -10.7840  -6.5877  -6.5757  -6.5103  -6.5009  -6.4821  -6.4746
    -4.0434  -4.0136  -2.5006  -2.4457  -1.8444  -1.3701  -1.3099  -1.2211
    -0.9248  -0.8175  -0.7827  -0.6723  -0.4948  -0.3288  -0.2503  -0.1864
    -0.0684   0.0993   0.1471   0.4510   0.4766   0.5968   0.6386   0.7343
     0.9766   1.0910   1.2148   1.3754   1.4296   1.4922   1.5856   1.6709
     1.8084   1.8879   1.9345   2.0644   2.1505   2.2207   2.2783   2.3458
     2.4163   2.4462   2.5029   2.5649   2.5878   2.6864   2.7433   2.7849
     2.8834   2.9178   3.0160   3.1192   3.1700   3.2249   3.2739   3.3438
     3.4071   3.4555   3.5324   3.5865   3.6276   3.7226   3.7459   3.7908
     3.8365   3.8710   3.8998   4.0741   4.1409   4.2926   4.3589   4.5962
     5.0571   5.1608   6.3330   6.8691   6.9092  10.0022  10.7676  10.8296
    11.3835  11.9693  12.2955  12.6219  12.6973  12.8551  13.0639  13.1551
    13.2512  13.3366  13.4252  13.4727  13.5752  13.6636  13.7101  13.8780
    13.9138  13.9280  14.1281  14.3761  14.4915

     occupation numbers 
     1.0000   1.0000   1.0000   1.0000   1.0000   1.0000   1.0000   1.0000
     1.0000   1.0000   1.0000   1.0000   1.0000   1.0000   1.0000   1.0000
     1.0000   1.0000   1.0000   1.0000   1.0000   1.0000   1.0000   1.0000
     1.0000   1.0000   1.0000   1.0000   1.0000   1.0000   1.0000   1.0000
     1.0000   1.0000   1.0000   1.0000   1.0000   1.0000   1.0000   1.0000
     1.0000   1.0000   1.0000   1.0000   1.0000   1.0000   1.0000   1.0000
     1.0000   1.0000   1.0000   1.0000   1.0000   1.0000   1.0000   1.0000
     1.0000   1.0000   1.0000   1.0000   1.0000   1.0000   1.0000   1.0000
     1.0000   1.0000   1.0000   1.0000   1.0000   1.0000   1.0000   1.0000
     1.0000   1.0000   1.0000   1.0000   1.0000   1.0000   1.0000   1.0000
     1.0000   1.0000   1.0000   1.0000   1.0000   1.0000   1.0000   1.0000
     1.0000   1.0000   1.0000   1.0000   1.0000   1.0000   1.0000   1.0000
     1.0000   1.0000   1.0000   1.0000   1.0000   1.0000   1.0000   1.0000
     1.0000   1.0000   1.0000   1.0000   1.0000   1.0000   1.0000   1.0000
     1.0000   1.0000   1.0000   1.0000   1.0000   1.0000   1.0000   1.0000
     1.0000   1.0000   1.0000   1.0000   1.0000   1.0000   1.0000   1.0000
     1.0000   1.0000   1.0000   1.0000   1.0000   0.0000   0.0000   0.0000
     0.0000   0.0000   0.0000   0.0000   0.0000   0.0000   0.0000   0.0000
     0.0000   0.0000   0.0000   0.0000   0.0000   0.0000   0.0000   0.0000
     0.0000   0.0000   0.0000   0.0000   0.0000

          k = 0.3333 0.0000 0.0601 ( 25907 PWs)   bands (ev):

   -81.3600 -67.4851 -67.4157 -67.0415 -66.9811 -66.9428 -48.3227 -47.4429
   -46.5043 -34.2494 -34.2388 -34.2254 -34.1756 -34.1754 -34.1534 -33.7985
   -33.7954 -33.7907 -33.7534 -33.7274 -33.7226 -33.7122 -33.7060 -33.6604
   -23.0179 -23.0039 -14.8315 -14.7818 -14.2537 -14.2156 -13.8267 -13.7904
   -13.3315 -13.1442 -13.1150 -13.0454 -12.9819 -12.9095 -12.8295 -12.7889
   -12.7410 -12.6497 -12.5773 -12.5040 -12.4132 -12.3533 -12.1476 -12.0281
   -11.0142 -10.7936  -6.5906  -6.5806  -6.5074  -6.4994  -6.4814  -6.4675
    -3.6852  -3.6181  -2.5027  -2.3852  -1.8305  -1.6568  -1.4829  -1.2403
    -0.9899  -0.7284  -0.6981  -0.6437  -0.4786  -0.3450  -0.3020  -0.1856
    -0.0670   0.1303   0.2701   0.4340   0.5258   0.5793   0.6446   0.6801
     0.9529   1.1437   1.2564   1.2990   1.4256   1.4908   1.5816   1.6146
     1.6881   1.6974   1.8295   1.9503   2.0597   2.2524   2.2784   2.3553
     2.4077   2.4307   2.4997   2.5772   2.6870   2.7426   2.7837   2.8323
     2.8728   2.9431   3.0187   3.0333   3.1142   3.1819   3.2316   3.2683
     3.4093   3.4723   3.5114   3.5989   3.6111   3.6248   3.7109   3.7665
     3.7961   3.8096   4.0009   4.0586   4.0666   4.3467   4.4247   4.4606
     4.9937   5.1277   6.3426   6.8697   6.9463  10.2508  11.2634  11.4747
    11.9577  12.0719  12.2247  12.3222  12.7404  12.7617  12.8140  13.0077
    13.1952  13.2498  13.4512  13.5306  13.5830  13.6346  13.7732  13.9421
    13.9949  14.2167  14.2620  14.3602  14.4784

     occupation numbers 
     1.0000   1.0000   1.0000   1.0000   1.0000   1.0000   1.0000   1.0000
     1.0000   1.0000   1.0000   1.0000   1.0000   1.0000   1.0000   1.0000
     1.0000   1.0000   1.0000   1.0000   1.0000   1.0000   1.0000   1.0000
     1.0000   1.0000   1.0000   1.0000   1.0000   1.0000   1.0000   1.0000
     1.0000   1.0000   1.0000   1.0000   1.0000   1.0000   1.0000   1.0000
     1.0000   1.0000   1.0000   1.0000   1.0000   1.0000   1.0000   1.0000
     1.0000   1.0000   1.0000   1.0000   1.0000   1.0000   1.0000   1.0000
     1.0000   1.0000   1.0000   1.0000   1.0000   1.0000   1.0000   1.0000
     1.0000   1.0000   1.0000   1.0000   1.0000   1.0000   1.0000   1.0000
     1.0000   1.0000   1.0000   1.0000   1.0000   1.0000   1.0000   1.0000
     1.0000   1.0000   1.0000   1.0000   1.0000   1.0000   1.0000   1.0000
     1.0000   1.0000   1.0000   1.0000   1.0000   1.0000   1.0000   1.0000
     1.0000   1.0000   1.0000   1.0000   1.0000   1.0000   1.0000   1.0000
     1.0000   1.0000   1.0000   1.0000   1.0000   1.0000   1.0000   1.0000
     1.0000   1.0000   1.0000   1.0000   1.0000   1.0000   1.0000   1.0000
     1.0000   1.0000   1.0000   1.0000   1.0000   1.0000   1.0000   1.0000
     1.0000   1.0000   1.0000   1.0000   1.0000   0.0000   0.0000   0.0000
     0.0000   0.0000   0.0000   0.0000   0.0000   0.0000   0.0000   0.0000
     0.0000   0.0000   0.0000   0.0000   0.0000   0.0000   0.0000   0.0000
     0.0000   0.0000   0.0000   0.0000   0.0000

          k = 0.3333 0.0000 0.2360 ( 25948 PWs)   bands (ev):

   -81.3600 -67.4851 -67.4157 -67.0415 -66.9811 -66.9428 -48.3227 -47.4429
   -46.5043 -34.2494 -34.2388 -34.2254 -34.1757 -34.1755 -34.1534 -33.7985
   -33.7954 -33.7907 -33.7534 -33.7274 -33.7226 -33.7122 -33.7060 -33.6604
   -23.0179 -23.0039 -14.8126 -14.8017 -14.2513 -14.2181 -13.8199 -13.7977
   -13.3291 -13.1353 -13.1146 -13.0651 -12.9720 -12.9040 -12.8415 -12.7826
   -12.7386 -12.6541 -12.5704 -12.5124 -12.4001 -12.3643 -12.1374 -12.0372
   -11.0133 -10.7946  -6.5908  -6.5806  -6.5073  -6.4994  -6.4814  -6.4675
    -3.6871  -3.6161  -2.4769  -2.4149  -1.8069  -1.6877  -1.4631  -1.2254
    -0.9987  -0.7140  -0.7010  -0.6361  -0.4482  -0.4041  -0.3016  -0.1928
    -0.0605   0.0821   0.2848   0.4011   0.5294   0.5680   0.6406   0.6909
     1.0012   1.1620   1.2243   1.3064   1.3712   1.5091   1.6063   1.6541
     1.7199   1.7355   1.7834   1.9756   2.1278   2.2312   2.2596   2.3564
     2.3837   2.4411   2.4526   2.5440   2.6848   2.7526   2.7963   2.8274
     2.8942   2.9429   2.9620   3.0352   3.1062   3.1781   3.2238   3.2974
     3.4057   3.4752   3.5240   3.5820   3.6240   3.6574   3.7007   3.7549
     3.7719   3.8538   3.9458   4.0051   4.1360   4.3225   4.4357   4.4916
     4.9923   5.1253   6.3431   6.8703   6.9436  10.5695  10.8085  11.5437
    11.9744  12.0228  12.2267  12.3540  12.6420  12.7206  12.8395  12.9617
    13.2809  13.3719  13.4688  13.5106  13.5767  13.6711  13.8438  13.9428
    13.9927  14.0388  14.0554  14.4980  14.6118

     occupation numbers 
     1.0000   1.0000   1.0000   1.0000   1.0000   1.0000   1.0000   1.0000
     1.0000   1.0000   1.0000   1.0000   1.0000   1.0000   1.0000   1.0000
     1.0000   1.0000   1.0000   1.0000   1.0000   1.0000   1.0000   1.0000
     1.0000   1.0000   1.0000   1.0000   1.0000   1.0000   1.0000   1.0000
     1.0000   1.0000   1.0000   1.0000   1.0000   1.0000   1.0000   1.0000
[...]
     atom   18 type  6   force =     0.00095439    0.00000907   -0.00685299
     atom   19 type  6   force =    -0.00095439    0.00000907    0.00685299
     atom   20 type  6   force =     0.00068866   -0.00111988    0.00650796
     atom   21 type  6   force =    -0.00068866   -0.00111988   -0.00650796
     atom   22 type  6   force =     0.00003886    0.00014212   -0.00312403
     atom   23 type  6   force =    -0.00003886    0.00014212    0.00312403
     atom   24 type  6   force =     0.00470174   -0.00200128   -0.00578204
     atom   25 type  6   force =    -0.00470175   -0.00200128    0.00578201
     atom   26 type  6   force =    -0.00357243    0.00089784   -0.00716061
     atom   27 type  6   force =     0.00357244    0.00089784    0.00716059
     atom   28 type  6   force =    -0.00174988    0.00250195    0.00715158
     atom   29 type  6   force =     0.00174988    0.00250195   -0.00715158
     atom   30 type  6   force =     0.00094832   -0.00225280   -0.00760001
     atom   31 type  6   force =    -0.00094832   -0.00225280    0.00760001
     atom   32 type  6   force =    -0.00266722   -0.00354190   -0.00657214
     atom   33 type  6   force =     0.00266720   -0.00354190    0.00657215
     atom   34 type  6   force =     0.00095705    0.00435829    0.00647399
     atom   35 type  6   force =    -0.00095705    0.00435830   -0.00647399
     atom   36 type  6   force =     0.00008170    0.00091898    0.01126297
     atom   37 type  6   force =    -0.00008169    0.00091898   -0.01126297
     atom   38 type  6   force =     0.00168293    0.00032087    0.01073825
     atom   39 type  6   force =    -0.00168292    0.00032088   -0.01073823
     atom   40 type  3   force =     0.00000000    0.00000000    0.00000000
     atom   41 type  3   force =     0.00000000    0.00000000    0.00000000
     atom   42 type  3   force =     0.00000000    0.00000000    0.00000000
     atom   43 type  3   force =     0.00000000    0.00000000    0.00000000
     atom   44 type  2   force =    -0.00000000    0.00386513    0.00000000
     The Hubbard contrib.    to forces
     atom    1 type  4   force =     0.00000000    0.00000000    0.00000000
     atom    2 type  4   force =     0.00000000    0.00000000    0.00000000
     atom    3 type  5   force =     0.00000000    0.00000000    0.00000000
     atom    4 type  5   force =     0.00000000    0.00000000    0.00000000
     atom    5 type  5   force =     0.00000000    0.00000000    0.00000000
     atom    6 type  5   force =     0.00000000    0.00000000    0.00000000
     atom    7 type  5   force =     0.00000000    0.00000000    0.00000000
     atom    8 type  7   force =     0.00000000    0.00000000    0.00000000
     atom    9 type  7   force =     0.00000000    0.00000000    0.00000000
     atom   10 type  7   force =     0.00000000    0.00000000    0.00000000
     atom   11 type  7   force =     0.00000000    0.00000000    0.00000000
     atom   12 type  7   force =     0.00000000    0.00000000    0.00000000
     atom   13 type  7   force =     0.00000000    0.00000000    0.00000000
     atom   14 type  1   force =     0.00000000    0.00000000    0.00000000
     atom   15 type  1   force =     0.00000000    0.00000000    0.00000000
     atom   16 type  6   force =     0.00000000    0.00000000    0.00000000
     atom   17 type  6   force =     0.00000000    0.00000000    0.00000000
     atom   18 type  6   force =     0.00000000    0.00000000    0.00000000
     atom   19 type  6   force =     0.00000000    0.00000000    0.00000000
     atom   20 type  6   force =     0.00000000    0.00000000    0.00000000
     atom   21 type  6   force =     0.00000000    0.00000000    0.00000000
     atom   22 type  6   force =     0.00000000    0.00000000    0.00000000
     atom   23 type  6   force =     0.00000000    0.00000000    0.00000000
     atom   24 type  6   force =     0.00000000    0.00000000    0.00000000
     atom   25 type  6   force =     0.00000000    0.00000000    0.00000000
     atom   26 type  6   force =     0.00000000    0.00000000    0.00000000
     atom   27 type  6   force =     0.00000000    0.00000000    0.00000000
     atom   28 type  6   force =     0.00000000    0.00000000    0.00000000
     atom   29 type  6   force =     0.00000000    0.00000000    0.00000000
     atom   30 type  6   force =     0.00000000    0.00000000    0.00000000
     atom   31 type  6   force =     0.00000000    0.00000000    0.00000000
     atom   32 type  6   force =     0.00000000    0.00000000    0.00000000
     atom   33 type  6   force =     0.00000000    0.00000000    0.00000000
     atom   34 type  6   force =     0.00000000    0.00000000    0.00000000
     atom   35 type  6   force =     0.00000000    0.00000000    0.00000000
     atom   36 type  6   force =     0.00000000    0.00000000    0.00000000
     atom   37 type  6   force =     0.00000000    0.00000000    0.00000000
     atom   38 type  6   force =     0.00000000    0.00000000    0.00000000
     atom   39 type  6   force =     0.00000000    0.00000000    0.00000000
     atom   40 type  3   force =     0.00000000    0.00000000    0.00000000
     atom   41 type  3   force =     0.00000000    0.00000000    0.00000000
     atom   42 type  3   force =     0.00000000    0.00000000    0.00000000
     atom   43 type  3   force =     0.00000000    0.00000000    0.00000000
     atom   44 type  2   force =     0.00000000    0.00000000    0.00000000
     The SCF correction term to forces
     atom    1 type  4   force =     0.00000000    0.00000843   -0.00000000
     atom    2 type  4   force =     0.00000000    0.00000187   -0.00000000
     atom    3 type  5   force =     0.00000000   -0.00001148   -0.00000000
     atom    4 type  5   force =    -0.00000000    0.00000544   -0.00000000
     atom    5 type  5   force =    -0.00000000    0.00002114   -0.00000000
     atom    6 type  5   force =     0.00000000    0.00001092   -0.00000000
     atom    7 type  5   force =    -0.00000000   -0.00003883   -0.00000000
     atom    8 type  7   force =    -0.00000211   -0.00000152   -0.00000080
     atom    9 type  7   force =     0.00000211   -0.00000152    0.00000080
     atom   10 type  7   force =     0.00000190    0.00000278   -0.00000591
     atom   11 type  7   force =    -0.00000190    0.00000278    0.00000591
     atom   12 type  7   force =     0.00000409    0.00000065    0.00000502
     atom   13 type  7   force =    -0.00000409    0.00000065   -0.00000502
     atom   14 type  1   force =     0.00000007   -0.00000093    0.00000135
     atom   15 type  1   force =    -0.00000007   -0.00000093   -0.00000135
     atom   16 type  6   force =     0.00000004   -0.00000906   -0.00000103
     atom   17 type  6   force =    -0.00000004   -0.00000906    0.00000103
     atom   18 type  6   force =     0.00001231    0.00000249   -0.00000076
     atom   19 type  6   force =    -0.00001231    0.00000249    0.00000076
     atom   20 type  6   force =     0.00000501    0.00000064    0.00000402
     atom   21 type  6   force =    -0.00000501    0.00000064   -0.00000402
     atom   22 type  6   force =     0.00000588    0.00001999    0.00003343
     atom   23 type  6   force =    -0.00000588    0.00001999   -0.00003343
     atom   24 type  6   force =     0.00000946    0.00002355   -0.00001557
     atom   25 type  6   force =    -0.00000946    0.00002355    0.00001557
     atom   26 type  6   force =     0.00000634   -0.00000382    0.00000930
     atom   27 type  6   force =    -0.00000634   -0.00000382   -0.00000930
     atom   28 type  6   force =    -0.00002590    0.00002820   -0.00001096
     atom   29 type  6   force =     0.00002590    0.00002820    0.00001096
     atom   30 type  6   force =     0.00000774   -0.00000518    0.00000785
     atom   31 type  6   force =    -0.00000774   -0.00000518   -0.00000785
     atom   32 type  6   force =     0.00001801   -0.00000197    0.00000316
     atom   33 type  6   force =    -0.00001801   -0.00000197   -0.00000316
     atom   34 type  6   force =     0.00002268   -0.00003287    0.00000732
     atom   35 type  6   force =    -0.00002268   -0.00003287   -0.00000732
     atom   36 type  6   force =    -0.00000318    0.00000354   -0.00000871
     atom   37 type  6   force =     0.00000318    0.00000354    0.00000871
     atom   38 type  6   force =    -0.00000345   -0.00000367    0.00001148
     atom   39 type  6   force =     0.00000345   -0.00000367   -0.00001148
     atom   40 type  3   force =    -0.00000042    0.00000056    0.00000031
     atom   41 type  3   force =     0.00000042    0.00000056   -0.00000031
     atom   42 type  3   force =     0.00000017   -0.00000092    0.00000078
     atom   43 type  3   force =    -0.00000017   -0.00000092   -0.00000078
     atom   44 type  2   force =    -0.00000000    0.00000775   -0.00000000

     DFT-D3 dispersion contribution to forces:
     atom    1 type  4   force =    -0.00000000    0.00046373    0.00000000
     atom    2 type  4   force =     0.00000000   -0.00014747    0.00000000
     atom    3 type  5   force =     0.00000000    0.00025370   -0.00000000
     atom    4 type  5   force =     0.00000000    0.00072767   -0.00000000
     atom    5 type  5   force =    -0.00000000   -0.00110101   -0.00000000
     atom    6 type  5   force =     0.00000000   -0.00056934    0.00000000
     atom    7 type  5   force =     0.00000000   -0.00010512   -0.00000000
     atom    8 type  7   force =    -0.00000114    0.00000470   -0.00039499
     atom    9 type  7   force =     0.00000114    0.00000470    0.00039499
     atom   10 type  7   force =    -0.00006452    0.00004991    0.00018114
     atom   11 type  7   force =     0.00006452    0.00004991   -0.00018114
     atom   12 type  7   force =    -0.00016302    0.00020909   -0.00011562
     atom   13 type  7   force =     0.00016302    0.00020909    0.00011562
     atom   14 type  1   force =     0.00001037    0.00003628   -0.00102112
     atom   15 type  1   force =    -0.00001037    0.00003628    0.00102112
     atom   16 type  6   force =    -0.00003374    0.00008487    0.00040993
     atom   17 type  6   force =     0.00003374    0.00008487   -0.00040993
     atom   18 type  6   force =    -0.00012293    0.00000990   -0.00035929
     atom   19 type  6   force =     0.00012293    0.00000990    0.00035928
     atom   20 type  6   force =    -0.00005164   -0.00001240    0.00040305
     atom   21 type  6   force =     0.00005164   -0.00001240   -0.00040305
     atom   22 type  6   force =    -0.00001568   -0.00003109    0.00009227
     atom   23 type  6   force =     0.00001568   -0.00003109   -0.00009227
     atom   24 type  6   force =    -0.00018042    0.00103459    0.00009966
     atom   25 type  6   force =     0.00018042    0.00103459   -0.00009966
     atom   26 type  6   force =     0.00080530    0.00009463    0.00015443
     atom   27 type  6   force =    -0.00080530    0.00009463   -0.00015443
     atom   28 type  6   force =     0.00042731   -0.00061228   -0.00016564
     atom   29 type  6   force =    -0.00042731   -0.00061228    0.00016564
     atom   30 type  6   force =    -0.00025101    0.00035655    0.00018591
     atom   31 type  6   force =     0.00025101    0.00035655   -0.00018591
     atom   32 type  6   force =     0.00087920   -0.00044086    0.00035749
     atom   33 type  6   force =    -0.00087920   -0.00044086   -0.00035749
     atom   34 type  6   force =     0.00063435   -0.00050419   -0.00032236
     atom   35 type  6   force =    -0.00063435   -0.00050419    0.00032236
     atom   36 type  6   force =    -0.00004569   -0.00008331   -0.00052285
     atom   37 type  6   force =     0.00004569   -0.00008331    0.00052285
     atom   38 type  6   force =    -0.00000780   -0.00004892   -0.00050391
     atom   39 type  6   force =     0.00000780   -0.00004892    0.00050391
     atom   40 type  3   force =     0.00000463    0.00012002   -0.00031575
     atom   41 type  3   force =    -0.00000463    0.00012002    0.00031575
     atom   42 type  3   force =     0.00020059   -0.00047434   -0.00014704
     atom   43 type  3   force =    -0.00020059   -0.00047434    0.00014704
     atom   44 type  2   force =    -0.00000000    0.00089156    0.00000000

     Total force =     0.003324     Total SCF correction =     0.000127

     DFT-D3 dispersion Force =     0.004196
     Energy error            =      2.4E-05 Ry
     Gradient error          =      9.4E-04 Ry/Bohr

     bfgs converged in  18 scf cycles and  17 bfgs steps
     (criteria: energy <  1.0E-04 Ry, force <  1.0E-03 Ry/Bohr)

     End of BFGS Geometry Optimization

     Final energy             =   -2631.2398226796 Ry

     File ./temp/phl-fe1-fe5.bfgs deleted, as requested
Begin final coordinates

ATOMIC_POSITIONS (crystal)
K                0.0000000000        0.4931809375        0.0000000000
K                0.5000000000        0.0027245940        0.0000000000
Mg              -0.0000000000        0.0046650943        0.5000000000
Mg              -0.0000000000        0.3337396451        0.5000000000
Mg              -0.0000000000        0.6650581404        0.5000000000
Mg               0.5000000000        0.4929920995        0.5000000000
Mg               0.5000000000        0.1750790842        0.5000000000
Si               0.0834088206        0.1651793954        0.2217514034
Si               0.9165911654        0.1651793954        0.7782486266
Si               0.9399329991        0.8343597490        0.7730377189
Si               0.0600670009        0.8343597490        0.2269622811
Si               0.5605494505        0.6656642434        0.2251606935
Si               0.4394505495        0.6656642434        0.7748392915
Al               0.4152964364        0.3308461457        0.7765751813
Al               0.5847035636        0.3308461457        0.2234248187
O                0.1280541881        0.1638578268        0.3842727897
O                0.8719457819        0.1638578268        0.6157272393
O                0.8878152961        0.8333582236        0.6121409500
O                0.1121847039        0.8333582236        0.3878590500
O                0.6265444116        0.6653043022        0.3871608385
O                0.3734555884        0.6653043022        0.6128391615
O                0.3610266065        0.3337867592        0.6043624283
O                0.6389733935        0.3337867592        0.3956375717
O                0.3444732404        0.2012269968        0.1647735501
O                0.6555267596        0.2012269968        0.8352264199
O                0.9937171025        0.9978060793        0.1658629476
O                0.0062828975        0.9978060793        0.8341370374
O                0.6870253326        0.7744535525        0.8310719213
O                0.3129746674        0.7744535525        0.1689280787
O                0.8098129564        0.7324804492        0.1650041832
O                0.1901870436        0.7324804492        0.8349958168
O                0.4926241424        0.5069615877        0.1602012083
O                0.5073758276        0.5069615877        0.8397988067
O                0.1414628251        0.2780700249        0.8415517537
O                0.8585371899        0.2780700249        0.1584482463
O                0.1311049456        0.5043630937        0.3938762139
O                0.8688950694        0.5043630937        0.6061237861
O                0.6338736239        1.0042862288        0.3973061268
O                0.3661263761        1.0042862288        0.6026938432
H                0.0986972324        0.4932863072        0.2983535960
H                0.9013027976        0.4932863072        0.7016464040
H                0.5835671947        0.0130967974        0.3017838775
H                0.4164328053        0.0130967974        0.6982161225
Fe               0.5000000000        0.8357799325        0.5000000000
End final coordinates



     Writing all to output data dir ./temp/phl-fe1-fe5.save/ :
     XML data file, charge density, pseudopotentials, collected wavefunctions

     init_run     :    173.35s CPU    175.02s WALL (       1 calls)
     electrons    : 100536.99s CPU 101327.36s WALL (      18 calls)
     update_pot   :     49.88s CPU     50.11s WALL (      17 calls)
     forces       :   2201.76s CPU   2213.05s WALL (      18 calls)
     force_dftd3  :     76.51s CPU     76.66s WALL (      18 calls)

     Called by init_run:
     wfcinit      :    165.70s CPU    166.83s WALL (       1 calls)
     wfcinit:atom :      0.27s CPU      0.27s WALL (      40 calls)
     wfcinit:wfcr :    163.17s CPU    164.29s WALL (      40 calls)
     potinit      :      3.12s CPU      3.16s WALL (       1 calls)
     hinit0       :      0.94s CPU      0.97s WALL (       1 calls)

     Called by electrons:
     c_bands      :  92263.44s CPU  92834.34s WALL (     166 calls)
     sum_band     :   7252.04s CPU   7399.26s WALL (     166 calls)
     v_of_rho     :     63.86s CPU     66.25s WALL (     170 calls)
     v_h          :      2.07s CPU      2.18s WALL (     170 calls)
     v_xc         :     68.26s CPU     70.97s WALL (     188 calls)
     newd         :    586.45s CPU    663.48s WALL (     170 calls)
     PAW_pot      :    452.11s CPU    452.21s WALL (     187 calls)
     mix_rho      :      8.02s CPU      8.36s WALL (     166 calls)
     energy_dftd3 :     58.82s CPU     58.84s WALL (      18 calls)

     Called by c_bands:
     init_us_2    :    244.39s CPU    244.64s WALL (   14720 calls)
     cegterg      :  91783.31s CPU  92352.79s WALL (    6640 calls)

     Called by sum_band:
     sum_band:wei :      0.11s CPU      0.11s WALL (     166 calls)
     sum_band:loo :   6127.26s CPU   6186.69s WALL (     166 calls)
     sum_band:buf :     28.87s CPU     28.96s WALL (    6640 calls)
     sum_band:ini :    109.95s CPU    110.04s WALL (    6640 calls)
     sum_band:cal :   4921.72s CPU   4925.00s WALL (    7320 calls)
     sum_band:bec :     12.61s CPU     12.65s WALL (    7320 calls)
     addusdens    :   1112.37s CPU   1199.49s WALL (     166 calls)
                                        0.00s GPU  (     166 calls)
     addusd:skk   :      3.82s CPU      6.05s WALL (    1162 calls)
                                        0.00s GPU  (    1162 calls)

     Called by *egterg:
     cdiaghg      :   3385.56s CPU   3422.55s WALL (   47029 calls)
     cegterg:over :  12043.86s CPU  12047.62s WALL (   41629 calls)
     cegterg:upda :   7115.25s CPU   7149.33s WALL (   41629 calls)
     cegterg:last :  18478.98s CPU  18487.44s WALL (   17844 calls)
     cdiaghg:chol :     79.73s CPU     79.88s WALL (   47029 calls)
     cdiaghg:inve :     77.72s CPU     77.81s WALL (   47029 calls)
     cdiaghg:para :   1520.78s CPU   1536.84s WALL (   94058 calls)
     h_psi        :  34386.79s CPU  34754.94s WALL (   48309 calls)
     s_psi        :  13823.45s CPU  13825.21s WALL (   48309 calls)
     g_psi        :     66.69s CPU     66.86s WALL (   41629 calls)

     Called by h_psi:
     h_psi:calbec :  13599.03s CPU  13610.10s WALL (   48309 calls)
     vloc_psi     :   6896.00s CPU   7205.71s WALL (   48309 calls)
     add_vuspsi   :  13831.37s CPU  13833.42s WALL (   48309 calls)

     General routines
     calbec       :  20439.33s CPU  20454.97s WALL (   58509 calls)
     fft          :     31.40s CPU     34.53s WALL (    4529 calls)
     ffts         :      0.96s CPU      1.04s WALL (     672 calls)
     fftw         :   5851.17s CPU   6065.45s WALL ( 7432380 calls)
     interpolate  :      3.71s CPU      3.96s WALL (     340 calls)

     Parallel routines

     PAW routines
     PAW_pot      :    452.11s CPU    452.21s WALL (     187 calls)
     PAW_symme    :      0.13s CPU      0.14s WALL (     353 calls)

     PWSCF        :   1d 4h45m CPU   1d 4h59m WALL


   This run was terminated on:  11:59:37  14Jan2025            

=------------------------------------------------------------------------------=
   JOB DONE.
=------------------------------------------------------------------------------=
