
     Program PWSCF v.7.3.1 starts on 30Jan2025 at  8:16:48 

     This program is part of the open-source Quantum ESPRESSO suite
     for quantum simulation of materials; please cite
         "P. Giannozzi et al., J. Phys.:Condens. Matter 21 395502 (2009);
         "P. Giannozzi et al., J. Phys.:Condens. Matter 29 465901 (2017);
         "P. Giannozzi et al., J. Chem. Phys. 152 154105 (2020);
          URL http://www.quantum-espresso.org", 
     in publications or presentations arising from this work. More details at
     http://www.quantum-espresso.org/quote

     Parallel version (MPI), running on     6 processors

     MPI processes distributed on     1 nodes
     1837 MiB available memory on the printing compute node when the environment starts

     Reading input from vc_relax.in

     Current dimensions of program PWSCF are:
     Max number of different atomic species (ntypx) = 10
     Max number of k-points (npk) =  40000
     Max angular momentum in pseudopotentials (lmaxx) =  4
     file Al.pbe-n-kjpaw_psl.1.0.0.UPF: wavefunction(s)  3S 3P renormalized
     file Fe.pbe-spn-kjpaw_psl.1.0.0.UPF: wavefunction(s)  3P 3D renormalized
     file H.pbe-kjpaw_psl.1.0.0.UPF: wavefunction(s)  1S renormalized
     file K.pbe-spn-kjpaw_psl.1.0.0.UPF: wavefunction(s)  3S renormalized
     file Mg.pbe-spnl-kjpaw_psl.1.0.0.UPF: wavefunction(s)  2P renormalized
     file O.pbe-n-kjpaw_psl.1.0.0.UPF: wavefunction(s)  2S 2P renormalized
     file Si.pbe-n-kjpaw_psl.1.0.0.UPF: wavefunction(s)  3S 3P renormalized

     R & G space division:  proc/nbgrp/npool/nimage =       6
     Subspace diagonalization in iterative solution of the eigenvalue problem:
     one sub-group per band group will be used
     custom distributed-memory algorithm (size of sub-group:  2*  2 procs)


     Parallelization info
     --------------------
     sticks:   dense  smooth     PW     G-vecs:    dense   smooth      PW
     Min        1105     554    150                97744    34578    4918
     Max        1106     555    151                97745    34580    4920
     Sum        6633    3329    905               586467   207475   29511

     Using Slab Decomposition



     bravais-lattice index     =          -12
     lattice parameter (alat)  =      10.0136  a.u.
     unit-cell volume          =    3303.4414 (a.u.)^3
     number of atoms/cell      =           44
     number of atomic types    =            7
     number of electrons       =       262.00
     number of Kohn-Sham states=          157
     kinetic-energy cutoff     =      60.0000  Ry
     charge density cutoff     =     480.0000  Ry
     scf convergence threshold =      1.0E-06
     mixing beta               =       0.7000
     number of iterations used =            8  plain     mixing
     energy convergence thresh.=      1.0E-04
     force convergence thresh. =      1.0E-03
     press convergence thresh. =      5.0E-01
     Exchange-correlation= SLA  PW   PBX  PBC
                           (   1   4   3   4   0   0   0)
     nstep                     =           50


     celldm(1)=  10.013640  celldm(2)=   1.735306  celldm(3)=   1.926511
     celldm(4)=   0.000000  celldm(5)=  -0.177565  celldm(6)=   0.000000

     crystal axes: (cart. coord. in units of alat)
               a(1) = (   1.000000   0.000000   0.000000 )  
               a(2) = (   0.000000   1.735306   0.000000 )  
               a(3) = (  -0.342081   0.000000   1.895896 )  

     reciprocal axes: (cart. coord. in units 2 pi/alat)
               b(1) = (  1.000000 -0.000000  0.180432 )  
               b(2) = (  0.000000  0.576267 -0.000000 )  
               b(3) = (  0.000000  0.000000  0.527455 )  


     PseudoPot. # 1 for Al read from file:
     ./../../../pseudos/Al.pbe-n-kjpaw_psl.1.0.0.UPF
     MD5 check sum: 502b6b27b9c6270cab5dd1084b96fa6d
     Pseudo is Projector augmented-wave + core cor, Zval =  3.0
     Generated using &quot;atomic&quot; code by A. Dal Corso  v.6.3
     Shape of augmentation charge: PSQ
     Using radial grid of 1135 points,  6 beta functions with: 
                l(1) =   0
                l(2) =   0
                l(3) =   1
                l(4) =   1
                l(5) =   2
                l(6) =   2
     Q(r) pseudized with 0 coefficients 


     PseudoPot. # 2 for Fe read from file:
     ./../../../pseudos/Fe.pbe-spn-kjpaw_psl.1.0.0.UPF
     MD5 check sum: fc81f059e5c5069939230b1155715ae8
     Pseudo is Projector augmented-wave + core cor, Zval = 16.0
     Generated using &quot;atomic&quot; code by A. Dal Corso  v.6.3
     Shape of augmentation charge: PSQ
     Using radial grid of 1191 points,  6 beta functions with: 
                l(1) =   0
                l(2) =   0
                l(3) =   1
                l(4) =   1
                l(5) =   2
                l(6) =   2
     Q(r) pseudized with 0 coefficients 


     PseudoPot. # 3 for H  read from file:
     ./../../../pseudos/H.pbe-kjpaw_psl.1.0.0.UPF
     MD5 check sum: d81a744832360e4a8af0b0b5b123bc2a
     Pseudo is Projector augmented-wave, Zval =  1.0
     Generated using &quot;atomic&quot; code by A. Dal Corso  v.6.3MaX
     Shape of augmentation charge: PSQ
     Using radial grid of  929 points,  2 beta functions with: 
                l(1) =   0
                l(2) =   0
     Q(r) pseudized with 0 coefficients 


     PseudoPot. # 4 for K  read from file:
     ./../../../pseudos/K.pbe-spn-kjpaw_psl.1.0.0.UPF
     MD5 check sum: 34cc42130a09071ebe376fd42eb21491
     Pseudo is Projector augmented-wave + core cor, Zval =  9.0
     Generated using &quot;atomic&quot; code by A. Dal Corso  v.6.2.2
     Shape of augmentation charge: PSQ
     Using radial grid of 1165 points,  6 beta functions with: 
                l(1) =   0
                l(2) =   0
                l(3) =   1
                l(4) =   1
                l(5) =   2
                l(6) =   2
     Q(r) pseudized with 0 coefficients 


     PseudoPot. # 5 for Mg read from file:
     ./../../../pseudos/Mg.pbe-spnl-kjpaw_psl.1.0.0.UPF
     MD5 check sum: fda14e0d92a6a9a5ebed782e5a4b3067
     Pseudo is Projector augmented-wave + core cor, Zval = 10.0
     Generated using &quot;atomic&quot; code by A. Dal Corso  v.6.3
     Shape of augmentation charge: PSQ
     Using radial grid of 1129 points,  4 beta functions with: 
                l(1) =   0
                l(2) =   0
                l(3) =   1
                l(4) =   1
     Q(r) pseudized with 0 coefficients 


     PseudoPot. # 6 for O  read from file:
     ./../../../pseudos/O.pbe-n-kjpaw_psl.1.0.0.UPF
     MD5 check sum: e99d9cef9b487d1ca56f5b95ecd0fd7a
     Pseudo is Projector augmented-wave + core cor, Zval =  6.0
     Generated using &quot;atomic&quot; code by A. Dal Corso  v.6.3
     Shape of augmentation charge: PSQ
     Using radial grid of 1095 points,  4 beta functions with: 
                l(1) =   0
                l(2) =   0
                l(3) =   1
                l(4) =   1
     Q(r) pseudized with 0 coefficients 


     PseudoPot. # 7 for Si read from file:
     ./../../../pseudos/Si.pbe-n-kjpaw_psl.1.0.0.UPF
     MD5 check sum: c39c59da582df4a0d9f10159256ea34e
     Pseudo is Projector augmented-wave + core cor, Zval =  4.0
     Generated using &quot;atomic&quot; code by A. Dal Corso  v.6.3
     Shape of augmentation charge: PSQ
     Using radial grid of 1141 points,  6 beta functions with: 
                l(1) =   0
                l(2) =   0
                l(3) =   1
                l(4) =   1
                l(5) =   2
                l(6) =   2
     Q(r) pseudized with 0 coefficients 


     atomic species   valence    mass     pseudopotential
     Al                3.00    26.98154     Al( 1.00)
     Fe               16.00    55.84500     Fe( 1.00)
     H                 1.00     1.00794     H ( 1.00)
     K                 9.00    39.09830     K ( 1.00)
     Mg               10.00    24.30500     Mg( 1.00)
     O                 6.00    15.99940     O ( 1.00)
     Si                4.00    28.08550     Si( 1.00)

      2 Sym. Ops. (no inversion) found


                                    s                        frac. trans.

      isym =  1     identity                                     

 cryst.   s( 1) = (     1          0          0      )
                  (     0          1          0      )
                  (     0          0          1      )

 cart.    s( 1) = (  1.0000000  0.0000000 -0.0000000 )
                  (  0.0000000  1.0000000  0.0000000 )
                  (  0.0000000  0.0000000  1.0000000 )


      isym =  2     180 deg rotation - cart. axis [0,1,0]        

 cryst.   s( 2) = (    -1          0          0      )
                  (     0          1          0      )
                  (     0          0         -1      )

 cart.    s( 2) = ( -1.0000000  0.0000000  0.0000000 )
                  (  0.0000000  1.0000000  0.0000000 )
                  (  0.0000000  0.0000000 -1.0000000 )


     point group C_2  (2)   
     there are  2 classes
     the character table:

       E     C2   
A      1.00  1.00
B      1.00 -1.00

     the symmetry operations in each class and the name of the first element:

     E        1
          identity                                               
     C2       2
          180 deg rotation - cart. axis [0,1,0]                  

   Cartesian axes

     site n.     atom                  positions (alat units)
         1        K      tau(   1) = (   0.0000000   0.8549672   0.0000000  )
         2        K      tau(   2) = (   0.5000000   0.0079753   0.0000000  )
         3        Mg     tau(   3) = (  -0.1710407   0.0062586   0.9479482  )
         4        Mg     tau(   4) = (  -0.1710407   0.5811304   0.9479482  )
         5        Mg     tau(   5) = (  -0.1710407   1.1488414   0.9479482  )
         6        Mg     tau(   6) = (   0.3289593   1.4449656   0.9479482  )
         7        Mg     tau(   7) = (   0.3289593   0.3038048   0.9479482  )
         8        Si     tau(   8) = (   0.0050155   0.2867879   0.4235314  )
         9        Si     tau(   9) = (   0.6529032   0.2867879   1.4723651  )
        10        Si     tau(  10) = (   0.6726921   1.4471043   1.4612871  )
        11        Si     tau(  11) = (  -0.0147734   1.4471043   0.4346093  )
        12        Si     tau(  12) = (   0.4842607   1.1549196   0.4294248  )
        13        Si     tau(  13) = (   0.1736580   1.1549196   1.4664715  )
        14        Al     tau(  14) = (   0.1533730   0.5776961   1.4698014  )
        15        Al     tau(  15) = (   0.5045457   0.5776961   0.4260950  )
        16        O      tau(  16) = (  -0.0061521   0.2849874   0.7312828  )
        17        O      tau(  17) = (   0.6640707   0.2849874   1.1646137  )
        18        O      tau(  18) = (   0.6668691   1.4435430   1.1561256  )
        19        O      tau(  19) = (  -0.0089504   1.4435430   0.7397708  )
        20        O      tau(  20) = (   0.4933859   1.1571802   0.7367558  )
        21        O      tau(  21) = (   0.1645328   1.1571802   1.1591406  )
        22        O      tau(  22) = (   0.1590237   0.5860486   1.1422124  )
        23        O      tau(  23) = (   0.4988950   0.5860486   0.7536840  )
        24        O      tau(  24) = (   0.2843092   0.3529355   0.3147192  )
        25        O      tau(  25) = (   0.3736095   0.3529355   1.5811771  )
        26        O      tau(  26) = (   0.9365217   1.7305300   0.3194634  )
        27        O      tau(  27) = (  -0.2786030   1.7305300   1.5764330  )
        28        O      tau(  28) = (   0.4004849   1.3450905   1.5748484  )
        29        O      tau(  29) = (   0.2574338   1.3450905   0.3210480  )
        30        O      tau(  30) = (   0.7556523   1.2701972   0.3188568  )
        31        O      tau(  31) = (  -0.0977336   1.2701972   1.5770396  )
        32        O      tau(  32) = (   0.4363272   0.8815469   0.3032262  )
        33        O      tau(  33) = (   0.2215915   0.8815469   1.5926702  )
        34        O      tau(  34) = (  -0.1411699   0.4801512   1.5916654  )
        35        O      tau(  35) = (   0.7990886   0.4801512   0.3042310  )
        36        O      tau(  36) = (   0.0039788   0.8711194   0.7507476  )
        37        O      tau(  37) = (   0.6539399   0.8711194   1.1451488  )
        38        O      tau(  38) = (   0.4951545   1.7350449   0.7537022  )
        39        O      tau(  39) = (   0.1627642   1.7350449   1.1421942  )
        40        H      tau(  40) = (   0.0259918   0.8528920   0.5703152  )
        41        H      tau(  41) = (   0.6319269   0.8528920   1.3255812  )
        42        H      tau(  42) = (   0.4905572   0.0241982   0.5730244  )
        43        H      tau(  43) = (   0.1673615   0.0241982   1.3228721  )
        44        Fe     tau(  44) = (   0.3289593   0.8648374   0.9479482  )

     --------------------------------------------
     DFT-D3 Dispersion Correction (3-body terms):
     --------------------------------------------
       Reference C6 values for interpolation: 

         atom   Coordination number   C6
         H          0.912             6.05
         H          0.000            15.18
         O          0.000            31.01
         O          0.993            25.63
         O          1.989            20.74
         Mg         0.000          1366.75
         Mg         0.963           902.54
         Mg         1.950           351.12
         Al         0.000          1081.08
         Al         0.965           875.51
         Al         1.931           513.50
         Al         2.915           307.19
         Si         0.000           635.71
         Si         0.951           540.53
         Si         1.944           466.25
         Si         2.941           443.01
         Si         3.868           299.55
         K          0.000          9967.00
         K          0.977           676.04
         Fe         0.000           982.67
         Fe         1.648           409.99
         Fe         9.138           219.01

       Values used:

         atom   Coordination number  R0_AB[au]  C6      C8
         K         13.568            4.007    676.04 129074.98
         K         13.722            4.007    676.04 129074.98
         Mg        11.797            3.292    351.12  31436.69
         Mg        11.616            3.292    351.12  31436.69
         Mg        11.220            3.292    351.12  31436.69
         Mg        11.434            3.292    351.12  31436.69
         Mg        11.918            3.292    351.12  31436.69
         Si         6.938            3.583    299.55  21425.58
         Si         6.938            3.583    299.55  21425.58
         Si         6.528            3.583    299.55  21425.58
         Si         6.528            3.583    299.55  21425.58
         Si         6.461            3.583    299.55  21425.58
         Si         6.461            3.583    299.55  21425.58
         Al         7.642            3.789    307.19  29441.29
         Al         7.642            3.789    307.19  29441.29
         O          3.925            2.345     20.74    418.58
         O          3.925            2.345     20.74    418.58
         O          3.923            2.345     20.74    418.58
         O          3.923            2.345     20.74    418.58
         O          3.706            2.345     20.74    418.58
         O          3.706            2.345     20.74    418.58
         O          3.859            2.345     20.74    418.58
         O          3.859            2.345     20.74    418.58
         O          3.188            2.345     20.74    418.58
         O          3.188            2.345     20.74    418.58
         O          3.146            2.345     20.74    418.58
         O          3.146            2.345     20.74    418.58
         O          3.053            2.345     20.74    418.58
         O          3.053            2.345     20.74    418.58
         O          3.057            2.345     20.74    418.58
         O          3.057            2.345     20.74    418.58
         O          3.195            2.345     20.74    418.58
         O          3.195            2.345     20.74    418.58
         O          3.253            2.345     20.74    418.58
         O          3.253            2.345     20.74    418.58
         O          3.880            2.345     20.74    418.58
         O          3.880            2.345     20.74    418.58
         O          3.992            2.345     20.74    418.58
         O          3.992            2.345     20.74    418.58
         H          1.278            2.062      6.07     73.38
         H          1.278            2.062      6.07     73.38
         H          1.299            2.062      6.07     73.35
         H          1.299            2.062      6.07     73.35
         Fe         8.459            3.252    219.01  20487.87

         Molecular C6 ( Ry / a.u.^6 ) =    165305.74


   Crystallographic axes

     site n.     atom                  positions (cryst. coord.)
         1        K      tau(   1) = (  0.0000000  0.4926895  0.0000000  )
         2        K      tau(   2) = (  0.5000000  0.0045959  0.0000000  )
         3        Mg     tau(   3) = (  0.0000000  0.0036066  0.5000000  )
         4        Mg     tau(   4) = (  0.0000000  0.3348864  0.5000000  )
         5        Mg     tau(   5) = (  0.0000000  0.6620396  0.5000000  )
         6        Mg     tau(   6) = (  0.5000000  0.8326862  0.5000000  )
         7        Mg     tau(   7) = (  0.5000000  0.1750728  0.5000000  )
         8        Si     tau(   8) = (  0.0814343  0.1652665  0.2233937  )
         9        Si     tau(   9) = (  0.9185657  0.1652665  0.7766063  )
        10        Si     tau(  10) = (  0.9363558  0.8339188  0.7707632  )
        11        Si     tau(  11) = (  0.0636442  0.8339188  0.2292368  )
        12        Si     tau(  12) = (  0.5617429  0.6655422  0.2265023  )
        13        Si     tau(  13) = (  0.4382571  0.6655422  0.7734977  )
        14        Al     tau(  14) = (  0.4185729  0.3329073  0.7752541  )
        15        Al     tau(  15) = (  0.5814270  0.3329073  0.2247459  )
        16        O      tau(  16) = (  0.1257951  0.1642289  0.3857187  )
        17        O      tau(  17) = (  0.8742049  0.1642289  0.6142813  )
        18        O      tau(  18) = (  0.8754717  0.8318664  0.6098042  )
        19        O      tau(  19) = (  0.1245283  0.8318664  0.3901958  )
        20        O      tau(  20) = (  0.6263206  0.6668450  0.3886055  )
        21        O      tau(  21) = (  0.3736794  0.6668450  0.6113945  )
        22        O      tau(  22) = (  0.3651159  0.3377206  0.6024656  )
        23        O      tau(  23) = (  0.6348841  0.3377206  0.3975344  )
        24        O      tau(  24) = (  0.3410947  0.2033852  0.1660002  )
        25        O      tau(  25) = (  0.6589053  0.2033852  0.8339998  )
        26        O      tau(  26) = (  0.9941633  0.9972476  0.1685026  )
        27        O      tau(  27) = (  0.0058367  0.9972476  0.8314974  )
        28        O      tau(  28) = (  0.6846387  0.7751315  0.8306617  )
        29        O      tau(  29) = (  0.3153613  0.7751315  0.1693384  )
        30        O      tau(  30) = (  0.8131844  0.7319730  0.1681826  )
        31        O      tau(  31) = (  0.1868156  0.7319730  0.8318174  )
        32        O      tau(  32) = (  0.4910391  0.5080066  0.1599382  )
        33        O      tau(  33) = (  0.5089609  0.5080066  0.8400618  )
        34        O      tau(  34) = (  0.1460182  0.2766954  0.8395318  )
        35        O      tau(  35) = (  0.8539818  0.2766954  0.1604682  )
        36        O      tau(  36) = (  0.1394380  0.5019975  0.3959856  )
        37        O      tau(  37) = (  0.8605620  0.5019975  0.6040145  )
        38        O      tau(  38) = (  0.6311468  0.9998494  0.3975440  )
        39        O      tau(  39) = (  0.3688532  0.9998494  0.6024560  )
        40        H      tau(  40) = (  0.1288952  0.4914937  0.3008156  )
        41        H      tau(  41) = (  0.8711048  0.4914937  0.6991844  )
        42        H      tau(  42) = (  0.5939494  0.0139446  0.3022446  )
        43        H      tau(  43) = (  0.4060506  0.0139446  0.6977555  )
        44        Fe     tau(  44) = (  0.5000000  0.4983774  0.5000000  )

     number of k points=    20  Gaussian smearing, width (Ry)=  0.0010
                       cart. coord. in units 2pi/alat
        k(    1) = (   0.0000000   0.0000000   0.0000000), wk =   0.0370370
        k(    2) = (   0.0000000   0.0000000   0.1758183), wk =   0.0740741
        k(    3) = (   0.0000000   0.1920891   0.0000000), wk =   0.0740741
        k(    4) = (   0.0000000   0.1920891   0.1758183), wk =   0.1481481
        k(    5) = (   0.1666667   0.0000000   0.0300721), wk =   0.0740741
        k(    6) = (   0.1666667   0.0000000   0.2058904), wk =   0.0740741
        k(    7) = (   0.1666667   0.0000000  -0.1457462), wk =   0.0740741
        k(    8) = (   0.1666667   0.1920891   0.0300721), wk =   0.1481481
        k(    9) = (   0.1666667   0.1920891   0.2058904), wk =   0.1481481
        k(   10) = (   0.1666667   0.1920891  -0.1457462), wk =   0.1481481
        k(   11) = (   0.3333333   0.0000000   0.0601442), wk =   0.0740741
        k(   12) = (   0.3333333   0.0000000   0.2359625), wk =   0.0740741
        k(   13) = (   0.3333333   0.0000000  -0.1156742), wk =   0.0740741
        k(   14) = (   0.3333333   0.1920891   0.0601442), wk =   0.1481481
        k(   15) = (   0.3333333   0.1920891   0.2359625), wk =   0.1481481
        k(   16) = (   0.3333333   0.1920891  -0.1156742), wk =   0.1481481
        k(   17) = (  -0.5000000   0.0000000  -0.0902162), wk =   0.0370370
        k(   18) = (  -0.5000000   0.0000000   0.0856021), wk =   0.0740741
        k(   19) = (  -0.5000000   0.1920891  -0.0902162), wk =   0.0740741
        k(   20) = (  -0.5000000   0.1920891   0.0856021), wk =   0.1481481

                       cryst. coord.
        k(    1) = (   0.0000000   0.0000000   0.0000000), wk =   0.0370370
        k(    2) = (   0.0000000   0.0000000   0.3333333), wk =   0.0740741
        k(    3) = (   0.0000000   0.3333333   0.0000000), wk =   0.0740741
        k(    4) = (   0.0000000   0.3333333   0.3333333), wk =   0.1481481
        k(    5) = (   0.1666667   0.0000000  -0.0000000), wk =   0.0740741
        k(    6) = (   0.1666667   0.0000000   0.3333333), wk =   0.0740741
        k(    7) = (   0.1666667   0.0000000  -0.3333333), wk =   0.0740741
        k(    8) = (   0.1666667   0.3333333  -0.0000000), wk =   0.1481481
        k(    9) = (   0.1666667   0.3333333   0.3333333), wk =   0.1481481
        k(   10) = (   0.1666667   0.3333333  -0.3333333), wk =   0.1481481
        k(   11) = (   0.3333333   0.0000000  -0.0000000), wk =   0.0740741
        k(   12) = (   0.3333333   0.0000000   0.3333333), wk =   0.0740741
        k(   13) = (   0.3333333   0.0000000  -0.3333333), wk =   0.0740741
        k(   14) = (   0.3333333   0.3333333  -0.0000000), wk =   0.1481481
        k(   15) = (   0.3333333   0.3333333   0.3333333), wk =   0.1481481
        k(   16) = (   0.3333333   0.3333333  -0.3333333), wk =   0.1481481
        k(   17) = (  -0.5000000   0.0000000   0.0000000), wk =   0.0370370
        k(   18) = (  -0.5000000   0.0000000   0.3333333), wk =   0.0740741
        k(   19) = (  -0.5000000   0.3333333   0.0000000), wk =   0.0740741
        k(   20) = (  -0.5000000   0.3333333   0.3333333), wk =   0.1481481

     Dense  grid:   586467 G-vectors     FFT dimensions: (  72, 125, 135)

     Smooth grid:   207475 G-vectors     FFT dimensions: (  50,  90,  96)

     Dynamical RAM for                 wfc:      10.35 MB

     Dynamical RAM for     wfc (w. buffer):     217.38 MB

     Dynamical RAM for           str. fact:      10.44 MB

     Dynamical RAM for           local pot:       0.00 MB

     Dynamical RAM for          nlocal pot:      28.88 MB

     Dynamical RAM for                qrad:      24.61 MB

     Dynamical RAM for          rho,v,vnew:       9.21 MB

     Dynamical RAM for               rhoin:       3.07 MB

     Dynamical RAM for            rho*nmix:      23.86 MB

     Dynamical RAM for           G-vectors:       5.86 MB

     Dynamical RAM for          h,s,v(r/c):       1.13 MB

     Dynamical RAM for          <psi|beta>:       1.05 MB

     Dynamical RAM for                 psi:      20.70 MB

     Dynamical RAM for                hpsi:      20.70 MB

     Dynamical RAM for                spsi:      20.70 MB

     Dynamical RAM for      wfcinit/wfcrot:      24.90 MB

     Dynamical RAM for           addusdens:     313.21 MB

     Dynamical RAM for          addusforce:     382.66 MB

     Dynamical RAM for         addusstress:     299.79 MB

     Estimated static dynamical RAM per process >     319.28 MB

     Estimated max dynamical RAM per process >     725.80 MB

     Estimated total dynamical RAM >       4.25 GB

     Check: negative core charge=   -0.000004

     Initial potential from superposition of free atoms

     starting charge     261.9493, renormalised to     262.0000
     Starting wfcs are  183 randomized atomic wfcs
     Checking if some PAW data can be deallocated... 
       PAW data deallocated on    5 nodes for type:  1
       PAW data deallocated on    5 nodes for type:  2
       PAW data deallocated on    5 nodes for type:  3
       PAW data deallocated on    5 nodes for type:  4
       PAW data deallocated on    5 nodes for type:  5
       PAW data deallocated on    1 nodes for type:  6
       PAW data deallocated on    4 nodes for type:  7

     total cpu time spent up to now is      177.7 secs

     Self-consistent Calculation

     iteration #  1     ecut=    60.00 Ry     beta= 0.70
     Davidson diagonalization with overlap

---- Real-time Memory Report at c_bands before calling an iterative solver
           404 MiB given to the printing process from OS
             0 MiB allocation reported by mallinfo(arena+hblkhd)
          1228 MiB available memory on the node where the printing process lives
------------------
     ethr =  1.00E-02,  avg # of iterations =  6.0

     total cpu time spent up to now is      708.4 secs

     total energy              =   -2623.81977270 Ry
     estimated scf accuracy    <      12.21594633 Ry

     iteration #  2     ecut=    60.00 Ry     beta= 0.70
     Davidson diagonalization with overlap

---- Real-time Memory Report at c_bands before calling an iterative solver
           661 MiB given to the printing process from OS
             0 MiB allocation reported by mallinfo(arena+hblkhd)
          1715 MiB available memory on the node where the printing process lives
------------------
     ethr =  4.66E-03,  avg # of iterations =  5.0

     total cpu time spent up to now is     1528.5 secs

     total energy              =   -2629.23863865 Ry
     estimated scf accuracy    <      10.74538507 Ry

     iteration #  3     ecut=    60.00 Ry     beta= 0.70
     Davidson diagonalization with overlap

---- Real-time Memory Report at c_bands before calling an iterative solver
           663 MiB given to the printing process from OS
             0 MiB allocation reported by mallinfo(arena+hblkhd)
          1717 MiB available memory on the node where the printing process lives
------------------
     ethr =  4.10E-03,  avg # of iterations =  2.0

     total cpu time spent up to now is     1954.8 secs

     total energy              =   -2630.15827922 Ry
     estimated scf accuracy    <       1.57126959 Ry

     iteration #  4     ecut=    60.00 Ry     beta= 0.70
     Davidson diagonalization with overlap

---- Real-time Memory Report at c_bands before calling an iterative solver
           664 MiB given to the printing process from OS
             0 MiB allocation reported by mallinfo(arena+hblkhd)
          1733 MiB available memory on the node where the printing process lives
------------------
     ethr =  6.00E-04,  avg # of iterations =  5.8

     total cpu time spent up to now is     2683.1 secs

     total energy              =   -2631.10818396 Ry
     estimated scf accuracy    <       0.33725538 Ry

     iteration #  5     ecut=    60.00 Ry     beta= 0.70
     Davidson diagonalization with overlap

---- Real-time Memory Report at c_bands before calling an iterative solver
           665 MiB given to the printing process from OS
             0 MiB allocation reported by mallinfo(arena+hblkhd)
          1704 MiB available memory on the node where the printing process lives
------------------
     c_bands:  1 eigenvalues not converged
     c_bands:  1 eigenvalues not converged
     c_bands:  1 eigenvalues not converged
     c_bands:  1 eigenvalues not converged
     c_bands:  1 eigenvalues not converged
     ethr =  1.29E-04,  avg # of iterations = 14.9

     total cpu time spent up to now is     3346.0 secs

     total energy              =   -2631.18412359 Ry
     estimated scf accuracy    <       0.05420886 Ry

     iteration #  6     ecut=    60.00 Ry     beta= 0.70
     Davidson diagonalization with overlap

---- Real-time Memory Report at c_bands before calling an iterative solver
           666 MiB given to the printing process from OS
             0 MiB allocation reported by mallinfo(arena+hblkhd)
          1718 MiB available memory on the node where the printing process lives
------------------
     c_bands:  1 eigenvalues not converged
     c_bands:  2 eigenvalues not converged
     c_bands:  3 eigenvalues not converged
     c_bands:  1 eigenvalues not converged
     c_bands:  3 eigenvalues not converged
     c_bands:  1 eigenvalues not converged
     c_bands:  2 eigenvalues not converged
     c_bands:  4 eigenvalues not converged
     ethr =  2.07E-05,  avg # of iterations = 14.8

     total cpu time spent up to now is     4044.1 secs

     total energy              =   -2631.19534000 Ry
     estimated scf accuracy    <       0.01454859 Ry

     iteration #  7     ecut=    60.00 Ry     beta= 0.70
     Davidson diagonalization with overlap

---- Real-time Memory Report at c_bands before calling an iterative solver
           667 MiB given to the printing process from OS
             0 MiB allocation reported by mallinfo(arena+hblkhd)
          1723 MiB available memory on the node where the printing process lives
------------------
     c_bands:  1 eigenvalues not converged
     c_bands:  1 eigenvalues not converged
     c_bands:  1 eigenvalues not converged
     c_bands:  1 eigenvalues not converged
     c_bands:  2 eigenvalues not converged
     c_bands:  1 eigenvalues not converged
     c_bands:  1 eigenvalues not converged
     ethr =  5.55E-06,  avg # of iterations = 14.8

     total cpu time spent up to now is     4680.4 secs

     total energy              =   -2631.19745351 Ry
     estimated scf accuracy    <       0.00508315 Ry

     iteration #  8     ecut=    60.00 Ry     beta= 0.70
     Davidson diagonalization with overlap

---- Real-time Memory Report at c_bands before calling an iterative solver
           669 MiB given to the printing process from OS
             0 MiB allocation reported by mallinfo(arena+hblkhd)
          1705 MiB available memory on the node where the printing process lives
------------------
     c_bands:  1 eigenvalues not converged
     ethr =  1.94E-06,  avg # of iterations =  9.3

     total cpu time spent up to now is     5277.7 secs

     total energy              =   -2631.19849914 Ry
     estimated scf accuracy    <       0.00077401 Ry

     iteration #  9     ecut=    60.00 Ry     beta= 0.70
     Davidson diagonalization with overlap

---- Real-time Memory Report at c_bands before calling an iterative solver
           670 MiB given to the printing process from OS
             0 MiB allocation reported by mallinfo(arena+hblkhd)
          1721 MiB available memory on the node where the printing process lives
------------------
     ethr =  2.95E-07,  avg # of iterations =  7.0

     total cpu time spent up to now is     6130.3 secs

     total energy              =   -2631.19926951 Ry
     estimated scf accuracy    <       0.00014288 Ry

     iteration # 10     ecut=    60.00 Ry     beta= 0.70
     Davidson diagonalization with overlap

---- Real-time Memory Report at c_bands before calling an iterative solver
           671 MiB given to the printing process from OS
             0 MiB allocation reported by mallinfo(arena+hblkhd)
          1724 MiB available memory on the node where the printing process lives
------------------
     ethr =  5.45E-08,  avg # of iterations =  6.7

     total cpu time spent up to now is     6709.1 secs

     total energy              =   -2631.19927957 Ry
     estimated scf accuracy    <       0.00008227 Ry

     iteration # 11     ecut=    60.00 Ry     beta= 0.70
     Davidson diagonalization with overlap

---- Real-time Memory Report at c_bands before calling an iterative solver
           671 MiB given to the printing process from OS
             0 MiB allocation reported by mallinfo(arena+hblkhd)
          1709 MiB available memory on the node where the printing process lives
------------------
     ethr =  3.14E-08,  avg # of iterations =  2.8

     total cpu time spent up to now is     7213.2 secs

     total energy              =   -2631.19928903 Ry
     estimated scf accuracy    <       0.00001076 Ry

     iteration # 12     ecut=    60.00 Ry     beta= 0.70
     Davidson diagonalization with overlap

---- Real-time Memory Report at c_bands before calling an iterative solver
           671 MiB given to the printing process from OS
             0 MiB allocation reported by mallinfo(arena+hblkhd)
          1703 MiB available memory on the node where the printing process lives
------------------
     ethr =  4.11E-09,  avg # of iterations =  6.4

     total cpu time spent up to now is     8138.1 secs

     total energy              =   -2631.19930283 Ry
     estimated scf accuracy    <       0.00000657 Ry

     iteration # 13     ecut=    60.00 Ry     beta= 0.70
     Davidson diagonalization with overlap

---- Real-time Memory Report at c_bands before calling an iterative solver
           671 MiB given to the printing process from OS
             0 MiB allocation reported by mallinfo(arena+hblkhd)
          1717 MiB available memory on the node where the printing process lives
------------------
     ethr =  2.51E-09,  avg # of iterations =  2.0

     total cpu time spent up to now is     8560.6 secs

     total energy              =   -2631.19930186 Ry
     estimated scf accuracy    <       0.00000285 Ry

     iteration # 14     ecut=    60.00 Ry     beta= 0.70
     Davidson diagonalization with overlap

---- Real-time Memory Report at c_bands before calling an iterative solver
           671 MiB given to the printing process from OS
             0 MiB allocation reported by mallinfo(arena+hblkhd)
          1707 MiB available memory on the node where the printing process lives
------------------
     ethr =  1.09E-09,  avg # of iterations =  6.2

     total cpu time spent up to now is     9108.1 secs

     End of self-consistent calculation

          k = 0.0000 0.0000 0.0000 ( 25927 PWs)   bands (ev):

   -77.9805 -67.5625 -67.5558 -67.4191 -66.9743 -66.9717 -44.1456 -44.1162
   -44.0285 -34.3356 -34.3151 -34.3149 -34.3047 -34.3032 -34.2943 -34.1808
   -34.1793 -34.1536 -33.7504 -33.7482 -33.7322 -33.7260 -33.7071 -33.6888
   -23.0145 -22.9614 -15.0555 -15.0017 -14.1163 -14.0718 -13.5980 -13.5747
   -13.4136 -13.2782 -13.2116 -13.0875 -12.8728 -12.8487 -12.8221 -12.7740
   -12.7236 -12.6308 -12.5152 -12.4501 -12.2616 -12.2446 -12.2023 -12.0765
   -11.1941 -10.9496  -6.5818  -6.5292  -6.5088  -6.4996  -6.4467  -6.4377
    -4.2577  -4.2007  -2.3938  -2.2931  -1.7964  -1.3652  -1.1278  -1.1249
    -1.0705  -0.9714  -0.6466  -0.5102  -0.4529  -0.3290  -0.3237  -0.1261
     0.0427   0.1010   0.2211   0.4985   0.6133   0.6317   0.7111   0.9036
     0.9139   1.1437   1.2646   1.3250   1.4087   1.5215   1.5339   1.6708
     1.8365   1.8483   1.9890   2.0848   2.1316   2.2045   2.2419   2.3166
     2.4313   2.4383   2.5541   2.6897   2.7308   2.7588   2.8032   2.8635
     2.9163   3.0259   3.0390   3.0894   3.1722   3.1852   3.2870   3.3431
     3.4046   3.4430   3.4761   3.5734   3.5825   3.6872   3.7844   3.8349
     3.8778   3.9458   3.9622   3.9721   3.9800   4.2419   4.4193   4.5222
     8.1856   8.2589   8.3898   9.1255   9.6861   9.8220  10.6192  11.3182
    11.5883  11.9099  12.1501  12.2352  12.6250  12.6893  13.0212  13.0328
    13.1324  13.2725  13.3277  13.4873  13.6088  13.6465  13.7701  13.7906
    13.8189  14.0852  14.2015  14.2381  14.3348

     occupation numbers 
     1.0000   1.0000   1.0000   1.0000   1.0000   1.0000   1.0000   1.0000
     1.0000   1.0000   1.0000   1.0000   1.0000   1.0000   1.0000   1.0000
     1.0000   1.0000   1.0000   1.0000   1.0000   1.0000   1.0000   1.0000
     1.0000   1.0000   1.0000   1.0000   1.0000   1.0000   1.0000   1.0000
     1.0000   1.0000   1.0000   1.0000   1.0000   1.0000   1.0000   1.0000
     1.0000   1.0000   1.0000   1.0000   1.0000   1.0000   1.0000   1.0000
     1.0000   1.0000   1.0000   1.0000   1.0000   1.0000   1.0000   1.0000
     1.0000   1.0000   1.0000   1.0000   1.0000   1.0000   1.0000   1.0000
     1.0000   1.0000   1.0000   1.0000   1.0000   1.0000   1.0000   1.0000
     1.0000   1.0000   1.0000   1.0000   1.0000   1.0000   1.0000   1.0000
     1.0000   1.0000   1.0000   1.0000   1.0000   1.0000   1.0000   1.0000
     1.0000   1.0000   1.0000   1.0000   1.0000   1.0000   1.0000   1.0000
     1.0000   1.0000   1.0000   1.0000   1.0000   1.0000   1.0000   1.0000
     1.0000   1.0000   1.0000   1.0000   1.0000   1.0000   1.0000   1.0000
     1.0000   1.0000   1.0000   1.0000   1.0000   1.0000   1.0000   1.0000
     1.0000   1.0000   1.0000   1.0000   1.0000   1.0000   1.0000   1.0000
     1.0000   1.0000   1.0000   0.0000   0.0000   0.0000   0.0000   0.0000
     0.0000   0.0000   0.0000   0.0000   0.0000   0.0000   0.0000   0.0000
     0.0000   0.0000   0.0000   0.0000   0.0000   0.0000   0.0000   0.0000
     0.0000   0.0000   0.0000   0.0000   0.0000

          k = 0.0000 0.0000 0.1758 ( 25971 PWs)   bands (ev):

   -77.9806 -67.5625 -67.5558 -67.4191 -66.9743 -66.9717 -44.1456 -44.1162
   -44.0286 -34.3356 -34.3151 -34.3150 -34.3047 -34.3032 -34.2943 -34.1808
   -34.1793 -34.1537 -33.7505 -33.7482 -33.7322 -33.7260 -33.7071 -33.6888
   -23.0145 -22.9614 -15.0426 -15.0155 -14.1056 -14.0830 -13.5984 -13.5743
   -13.4033 -13.2983 -13.2028 -13.0834 -12.8737 -12.8441 -12.8299 -12.7753
   -12.7164 -12.6349 -12.5074 -12.4576 -12.2684 -12.2331 -12.2003 -12.0832
   -11.1938 -10.9503  -6.5819  -6.5293  -6.5088  -6.4995  -6.4466  -6.4377
    -4.2542  -4.2047  -2.3707  -2.3204  -1.7645  -1.3540  -1.1506  -1.0922
    -1.0657  -0.9957  -0.6188  -0.5200  -0.4947  -0.3429  -0.2962  -0.2177
     0.0581   0.1400   0.1810   0.4413   0.6058   0.6101   0.7317   0.9196
     0.9634   1.1985   1.2171   1.3220   1.4495   1.4832   1.5884   1.7017
     1.8513   1.8668   2.0782   2.1045   2.1492   2.1982   2.2607   2.3151
     2.3650   2.4430   2.5725   2.6728   2.6903   2.7026   2.7933   2.8121
     2.8505   3.0417   3.0624   3.1196   3.1279   3.1953   3.3214   3.3522
     3.3755   3.4430   3.4908   3.5814   3.6112   3.7347   3.7608   3.8113
     3.8570   3.9048   3.9385   3.9704   3.9803   4.2867   4.4150   4.5264
     8.1880   8.2584   8.3886   9.4317   9.6695   9.8351  10.1614  11.3585
    11.6562  11.8009  12.1264  12.2130  12.7391  12.8854  12.9840  13.0669
    13.2099  13.2624  13.3551  13.4448  13.4936  13.6825  13.7567  13.8002
    13.9103  14.0185  14.1276  14.2542  14.2707

     occupation numbers 
     1.0000   1.0000   1.0000   1.0000   1.0000   1.0000   1.0000   1.0000
     1.0000   1.0000   1.0000   1.0000   1.0000   1.0000   1.0000   1.0000
     1.0000   1.0000   1.0000   1.0000   1.0000   1.0000   1.0000   1.0000
     1.0000   1.0000   1.0000   1.0000   1.0000   1.0000   1.0000   1.0000
     1.0000   1.0000   1.0000   1.0000   1.0000   1.0000   1.0000   1.0000
     1.0000   1.0000   1.0000   1.0000   1.0000   1.0000   1.0000   1.0000
     1.0000   1.0000   1.0000   1.0000   1.0000   1.0000   1.0000   1.0000
     1.0000   1.0000   1.0000   1.0000   1.0000   1.0000   1.0000   1.0000
     1.0000   1.0000   1.0000   1.0000   1.0000   1.0000   1.0000   1.0000
     1.0000   1.0000   1.0000   1.0000   1.0000   1.0000   1.0000   1.0000
     1.0000   1.0000   1.0000   1.0000   1.0000   1.0000   1.0000   1.0000
     1.0000   1.0000   1.0000   1.0000   1.0000   1.0000   1.0000   1.0000
     1.0000   1.0000   1.0000   1.0000   1.0000   1.0000   1.0000   1.0000
     1.0000   1.0000   1.0000   1.0000   1.0000   1.0000   1.0000   1.0000
     1.0000   1.0000   1.0000   1.0000   1.0000   1.0000   1.0000   1.0000
     1.0000   1.0000   1.0000   1.0000   1.0000   1.0000   1.0000   1.0000
     1.0000   1.0000   1.0000   0.0000   0.0000   0.0000   0.0000   0.0000
     0.0000   0.0000   0.0000   0.0000   0.0000   0.0000   0.0000   0.0000
     0.0000   0.0000   0.0000   0.0000   0.0000   0.0000   0.0000   0.0000
     0.0000   0.0000   0.0000   0.0000   0.0000

          k = 0.0000 0.1921 0.0000 ( 25933 PWs)   bands (ev):

   -77.9805 -67.5625 -67.5558 -67.4191 -66.9743 -66.9717 -44.1456 -44.1162
   -44.0286 -34.3356 -34.3151 -34.3150 -34.3047 -34.3032 -34.2943 -34.1808
   -34.1793 -34.1537 -33.7504 -33.7482 -33.7322 -33.7260 -33.7071 -33.6888
   -23.0145 -22.9614 -15.0503 -14.9967 -14.1524 -14.1029 -13.5980 -13.5748
   -13.3249 -13.1965 -13.1696 -13.1037 -12.9416 -12.9084 -12.8512 -12.7719
   -12.7422 -12.6268 -12.5013 -12.4458 -12.2615 -12.2430 -12.1985 -12.0731
   -11.1926 -10.9492  -6.5802  -6.5310  -6.5086  -6.4986  -6.4473  -6.4383
    -4.2191  -4.1609  -2.5373  -2.4316  -1.7412  -1.4179  -1.0708  -1.0527
    -0.9527  -0.9010  -0.7147  -0.5901  -0.4528  -0.2850  -0.2442  -0.1159
    -0.0506   0.1654   0.2146   0.4818   0.5635   0.5885   0.7148   0.8949
     0.9400   1.1269   1.1700   1.3088   1.4129   1.5599   1.5804   1.7023
     1.8821   1.9012   1.9962   2.1143   2.1496   2.1936   2.2918   2.3789
     2.4128   2.4717   2.5628   2.6431   2.7018   2.7427   2.7638   2.8958
     2.9676   3.0125   3.0663   3.0949   3.1897   3.2093   3.2846   3.3306
     3.4025   3.4078   3.4530   3.5370   3.6055   3.6207   3.8198   3.8305
     3.8528   3.9261   3.9494   3.9916   3.9934   4.2141   4.2399   4.5113
     8.1858   8.2700   8.3894   9.5061   9.6403   9.8417  10.5028  10.8611
    11.4782  11.8807  12.3155  12.5682  12.6292  12.8330  12.9909  13.0406
    13.1259  13.2860  13.3407  13.4342  13.4839  13.5911  13.6209  13.7810
    13.7989  13.8530  14.2871  14.3490  14.4538

     occupation numbers 
     1.0000   1.0000   1.0000   1.0000   1.0000   1.0000   1.0000   1.0000
     1.0000   1.0000   1.0000   1.0000   1.0000   1.0000   1.0000   1.0000
     1.0000   1.0000   1.0000   1.0000   1.0000   1.0000   1.0000   1.0000
     1.0000   1.0000   1.0000   1.0000   1.0000   1.0000   1.0000   1.0000
     1.0000   1.0000   1.0000   1.0000   1.0000   1.0000   1.0000   1.0000
     1.0000   1.0000   1.0000   1.0000   1.0000   1.0000   1.0000   1.0000
     1.0000   1.0000   1.0000   1.0000   1.0000   1.0000   1.0000   1.0000
     1.0000   1.0000   1.0000   1.0000   1.0000   1.0000   1.0000   1.0000
     1.0000   1.0000   1.0000   1.0000   1.0000   1.0000   1.0000   1.0000
     1.0000   1.0000   1.0000   1.0000   1.0000   1.0000   1.0000   1.0000
     1.0000   1.0000   1.0000   1.0000   1.0000   1.0000   1.0000   1.0000
     1.0000   1.0000   1.0000   1.0000   1.0000   1.0000   1.0000   1.0000
     1.0000   1.0000   1.0000   1.0000   1.0000   1.0000   1.0000   1.0000
     1.0000   1.0000   1.0000   1.0000   1.0000   1.0000   1.0000   1.0000
     1.0000   1.0000   1.0000   1.0000   1.0000   1.0000   1.0000   1.0000
     1.0000   1.0000   1.0000   1.0000   1.0000   1.0000   1.0000   1.0000
     1.0000   1.0000   1.0000   0.0000   0.0000   0.0000   0.0000   0.0000
     0.0000   0.0000   0.0000   0.0000   0.0000   0.0000   0.0000   0.0000
     0.0000   0.0000   0.0000   0.0000   0.0000   0.0000   0.0000   0.0000
     0.0000   0.0000   0.0000   0.0000   0.0000

          k = 0.0000 0.1921 0.1758 ( 25924 PWs)   bands (ev):

   -77.9805 -67.5625 -67.5558 -67.4191 -66.9743 -66.9717 -44.1456 -44.1162
   -44.0286 -34.3356 -34.3151 -34.3150 -34.3047 -34.3032 -34.2943 -34.1808
   -34.1793 -34.1537 -33.7505 -33.7482 -33.7322 -33.7260 -33.7071 -33.6888
   -23.0145 -22.9614 -15.0374 -15.0105 -14.1405 -14.1156 -13.5985 -13.5743
   -13.3181 -13.1951 -13.1832 -13.0932 -12.9559 -12.8922 -12.8548 -12.7729
   -12.7391 -12.6309 -12.4940 -12.4531 -12.2677 -12.2327 -12.1955 -12.0797
   -11.1923 -10.9499  -6.5803  -6.5311  -6.5086  -6.4984  -6.4472  -6.4383
    -4.2127  -4.1678  -2.5129  -2.4585  -1.7138  -1.4069  -1.0649  -1.0531
    -0.9484  -0.9124  -0.6911  -0.6244  -0.4638  -0.2936  -0.2434  -0.1944
    -0.0058   0.1496   0.1828   0.4555   0.5523   0.5667   0.7483   0.8947
     0.9971   1.0805   1.1617   1.3532   1.4890   1.5626   1.6647   1.7108
     1.8515   1.9272   2.0331   2.0756   2.1267   2.2664   2.2860   2.3581
     2.4291   2.4579   2.5519   2.6421   2.6764   2.6905   2.8019   2.8281
     2.9216   2.9890   3.0907   3.1024   3.1570   3.2264   3.2734   3.3038
     3.4013   3.4338   3.4890   3.5184   3.6239   3.6791   3.7689   3.8106
     3.8588   3.9133   3.9366   3.9598   3.9951   4.2239   4.2880   4.5177
     8.1883   8.2698   8.3870   9.5823   9.7578   9.9072  10.4543  10.6974
    11.1839  11.8508  12.2859  12.6162  12.7373  12.9331  13.0543  13.1102
    13.2252  13.2601  13.3788  13.4315  13.5299  13.6140  13.6298  13.7396
    13.7923  13.9712  14.2101  14.2759  14.3608

     occupation numbers 
     1.0000   1.0000   1.0000   1.0000   1.0000   1.0000   1.0000   1.0000
     1.0000   1.0000   1.0000   1.0000   1.0000   1.0000   1.0000   1.0000
     1.0000   1.0000   1.0000   1.0000   1.0000   1.0000   1.0000   1.0000
     1.0000   1.0000   1.0000   1.0000   1.0000   1.0000   1.0000   1.0000
     1.0000   1.0000   1.0000   1.0000   1.0000   1.0000   1.0000   1.0000
     1.0000   1.0000   1.0000   1.0000   1.0000   1.0000   1.0000   1.0000
     1.0000   1.0000   1.0000   1.0000   1.0000   1.0000   1.0000   1.0000
     1.0000   1.0000   1.0000   1.0000   1.0000   1.0000   1.0000   1.0000
     1.0000   1.0000   1.0000   1.0000   1.0000   1.0000   1.0000   1.0000
     1.0000   1.0000   1.0000   1.0000   1.0000   1.0000   1.0000   1.0000
     1.0000   1.0000   1.0000   1.0000   1.0000   1.0000   1.0000   1.0000
     1.0000   1.0000   1.0000   1.0000   1.0000   1.0000   1.0000   1.0000
     1.0000   1.0000   1.0000   1.0000   1.0000   1.0000   1.0000   1.0000
     1.0000   1.0000   1.0000   1.0000   1.0000   1.0000   1.0000   1.0000
     1.0000   1.0000   1.0000   1.0000   1.0000   1.0000   1.0000   1.0000
     1.0000   1.0000   1.0000   1.0000   1.0000   1.0000   1.0000   1.0000
     1.0000   1.0000   1.0000   0.0000   0.0000   0.0000   0.0000   0.0000
     0.0000   0.0000   0.0000   0.0000   0.0000   0.0000   0.0000   0.0000
     0.0000   0.0000   0.0000   0.0000   0.0000   0.0000   0.0000   0.0000
     0.0000   0.0000   0.0000   0.0000   0.0000

          k = 0.1667 0.0000 0.0301 ( 25941 PWs)   bands (ev):

   -77.9806 -67.5624 -67.5559 -67.4191 -66.9742 -66.9718 -44.1456 -44.1162
   -44.0286 -34.3354 -34.3162 -34.3141 -34.3049 -34.3030 -34.2943 -34.1809
   -34.1793 -34.1537 -33.7524 -33.7457 -33.7326 -33.7253 -33.7080 -33.6887
   -23.0143 -22.9613 -14.9970 -14.9444 -14.1360 -14.0939 -13.7143 -13.6823
   -13.3428 -13.2044 -13.1630 -13.0691 -12.9003 -12.8413 -12.8212 -12.7879
   -12.7124 -12.6382 -12.5278 -12.4608 -12.3327 -12.2843 -12.1856 -12.0627
   -11.1906 -10.9539  -6.5821  -6.5330  -6.5077  -6.4982  -6.4466  -6.4339
    -4.1005  -4.0405  -2.3629  -2.2618  -1.7874  -1.4222  -1.3795  -1.3005
    -0.8641  -0.7773  -0.6537  -0.5682  -0.4665  -0.3072  -0.2882  -0.1273
     0.0211   0.1404   0.2066   0.4785   0.5464   0.6666   0.6801   0.7875
     1.0618   1.1831   1.2630   1.3175   1.3640   1.4289   1.5598   1.6353
     1.7139   1.9305   1.9621   2.0238   2.1020   2.2649   2.3273   2.3650
     2.4021   2.4833   2.5679   2.6561   2.7236   2.7413   2.7939   2.8904
     2.9415   2.9496   3.0636   3.1109   3.1301   3.2023   3.2661   3.3004
     3.3951   3.4474   3.4724   3.5924   3.6067   3.6626   3.7474   3.8039
     3.8451   3.9021   3.9447   3.9624   3.9941   4.1789   4.3642   4.4413
     8.1872   8.2603   8.3672   9.4503   9.6940   9.8003  10.8111  11.3715
    11.7102  11.9594  12.1620  12.3819  12.5852  12.7987  12.8949  13.0249
    13.1398  13.2637  13.3039  13.4925  13.5792  13.6294  13.7038  13.7762
    13.8808  14.1356  14.1591  14.2519  14.3532

     occupation numbers 
     1.0000   1.0000   1.0000   1.0000   1.0000   1.0000   1.0000   1.0000
     1.0000   1.0000   1.0000   1.0000   1.0000   1.0000   1.0000   1.0000
     1.0000   1.0000   1.0000   1.0000   1.0000   1.0000   1.0000   1.0000
     1.0000   1.0000   1.0000   1.0000   1.0000   1.0000   1.0000   1.0000
     1.0000   1.0000   1.0000   1.0000   1.0000   1.0000   1.0000   1.0000
     1.0000   1.0000   1.0000   1.0000   1.0000   1.0000   1.0000   1.0000
     1.0000   1.0000   1.0000   1.0000   1.0000   1.0000   1.0000   1.0000
     1.0000   1.0000   1.0000   1.0000   1.0000   1.0000   1.0000   1.0000
     1.0000   1.0000   1.0000   1.0000   1.0000   1.0000   1.0000   1.0000
     1.0000   1.0000   1.0000   1.0000   1.0000   1.0000   1.0000   1.0000
     1.0000   1.0000   1.0000   1.0000   1.0000   1.0000   1.0000   1.0000
     1.0000   1.0000   1.0000   1.0000   1.0000   1.0000   1.0000   1.0000
     1.0000   1.0000   1.0000   1.0000   1.0000   1.0000   1.0000   1.0000
     1.0000   1.0000   1.0000   1.0000   1.0000   1.0000   1.0000   1.0000
     1.0000   1.0000   1.0000   1.0000   1.0000   1.0000   1.0000   1.0000
     1.0000   1.0000   1.0000   1.0000   1.0000   1.0000   1.0000   1.0000
     1.0000   1.0000   1.0000   0.0000   0.0000   0.0000   0.0000   0.0000
     0.0000   0.0000   0.0000   0.0000   0.0000   0.0000   0.0000   0.0000
     0.0000   0.0000   0.0000   0.0000   0.0000   0.0000   0.0000   0.0000
     0.0000   0.0000   0.0000   0.0000   0.0000

          k = 0.1667 0.0000 0.2059 ( 25961 PWs)   bands (ev):

   -77.9806 -67.5624 -67.5559 -67.4191 -66.9742 -66.9718 -44.1456 -44.1162
   -44.0286 -34.3354 -34.3162 -34.3141 -34.3049 -34.3030 -34.2943 -34.1809
   -34.1793 -34.1537 -33.7525 -33.7457 -33.7326 -33.7253 -33.7080 -33.6887
   -23.0143 -22.9613 -14.9809 -14.9614 -14.1268 -14.1036 -13.7098 -13.6870
   -13.3332 -13.2256 -13.1526 -13.0639 -12.8987 -12.8402 -12.8292 -12.7874
   -12.7065 -12.6420 -12.5220 -12.4669 -12.3283 -12.2891 -12.1760 -12.0712
   -11.1901 -10.9547  -6.5821  -6.5330  -6.5076  -6.4982  -6.4465  -6.4339
    -4.1021  -4.0391  -2.3430  -2.2863  -1.7521  -1.4509  -1.3697  -1.2764
    -0.8640  -0.7750  -0.6421  -0.5863  -0.4679  -0.3226  -0.2662  -0.2354
     0.0574   0.1570   0.1870   0.4126   0.5316   0.6419   0.6761   0.8417
     1.1290   1.1531   1.2617   1.3172   1.3782   1.4741   1.5640   1.6606
     1.7519   1.9193   2.0050   2.0198   2.1969   2.2677   2.3121   2.3523
     2.4172   2.4728   2.5615   2.6140   2.6343   2.7410   2.7864   2.8050
     2.9023   2.9961   3.0710   3.1053   3.1557   3.2099   3.2458   3.3238
     3.3734   3.4459   3.4773   3.5993   3.6272   3.6905   3.7694   3.7949
     3.8327   3.8643   3.8944   3.9596   3.9821   4.2327   4.3660   4.4544
     8.1894   8.2592   8.3663   9.6797   9.7241   9.8821  10.3091  11.4015
    11.7602  11.8680  12.2035  12.2913  12.5301  12.8468  13.0193  13.1497
    13.2139  13.3383  13.3519  13.4379  13.5243  13.6308  13.7514  13.8098
    13.8773  13.9483  14.0848  14.3268  14.3382

     occupation numbers 
     1.0000   1.0000   1.0000   1.0000   1.0000   1.0000   1.0000   1.0000
     1.0000   1.0000   1.0000   1.0000   1.0000   1.0000   1.0000   1.0000
     1.0000   1.0000   1.0000   1.0000   1.0000   1.0000   1.0000   1.0000
     1.0000   1.0000   1.0000   1.0000   1.0000   1.0000   1.0000   1.0000
     1.0000   1.0000   1.0000   1.0000   1.0000   1.0000   1.0000   1.0000
     1.0000   1.0000   1.0000   1.0000   1.0000   1.0000   1.0000   1.0000
     1.0000   1.0000   1.0000   1.0000   1.0000   1.0000   1.0000   1.0000
     1.0000   1.0000   1.0000   1.0000   1.0000   1.0000   1.0000   1.0000
     1.0000   1.0000   1.0000   1.0000   1.0000   1.0000   1.0000   1.0000
     1.0000   1.0000   1.0000   1.0000   1.0000   1.0000   1.0000   1.0000
     1.0000   1.0000   1.0000   1.0000   1.0000   1.0000   1.0000   1.0000
     1.0000   1.0000   1.0000   1.0000   1.0000   1.0000   1.0000   1.0000
     1.0000   1.0000   1.0000   1.0000   1.0000   1.0000   1.0000   1.0000
     1.0000   1.0000   1.0000   1.0000   1.0000   1.0000   1.0000   1.0000
     1.0000   1.0000   1.0000   1.0000   1.0000   1.0000   1.0000   1.0000
     1.0000   1.0000   1.0000   1.0000   1.0000   1.0000   1.0000   1.0000
     1.0000   1.0000   1.0000   0.0000   0.0000   0.0000   0.0000   0.0000
     0.0000   0.0000   0.0000   0.0000   0.0000   0.0000   0.0000   0.0000
     0.0000   0.0000   0.0000   0.0000   0.0000   0.0000   0.0000   0.0000
     0.0000   0.0000   0.0000   0.0000   0.0000

          k = 0.1667 0.0000-0.1457 ( 25956 PWs)   bands (ev):

   -77.9806 -67.5624 -67.5559 -67.4191 -66.9742 -66.9718 -44.1456 -44.1162
   -44.0286 -34.3354 -34.3162 -34.3141 -34.3050 -34.3030 -34.2943 -34.1809
   -34.1793 -34.1537 -33.7525 -33.7457 -33.7326 -33.7254 -33.7080 -33.6887
   -23.0143 -22.9613 -14.9877 -14.9543 -14.1273 -14.1032 -13.7087 -13.6881
   -13.3359 -13.2175 -13.1598 -13.0638 -12.8987 -12.8449 -12.8221 -12.7864
   -12.7096 -12.6420 -12.5171 -12.4717 -12.3137 -12.3046 -12.1752 -12.0702
   -11.1899 -10.9547  -6.5822  -6.5331  -6.5076  -6.4981  -6.4465  -6.4339
    -4.0856  -4.0559  -2.3397  -2.2880  -1.7654  -1.4537  -1.3581  -1.2855
    -0.8473  -0.7971  -0.6169  -0.5687  -0.4935  -0.3153  -0.2978  -0.1968
     0.0226   0.1657   0.1895   0.4237   0.5624   0.6595   0.7051   0.8272
     1.0754   1.1415   1.2506   1.3150   1.4043   1.4962   1.5731   1.5999
     1.7703   1.9133   1.9772   2.0395   2.1065   2.2503   2.3338   2.3600
     2.4015   2.4929   2.5580   2.6226   2.6983   2.7404   2.7836   2.8515
     2.8953   2.9829   3.0863   3.1424   3.1532   3.2113   3.2487   3.3302
     3.3845   3.4446   3.5004   3.5666   3.5973   3.6835   3.7261   3.7728
     3.8338   3.8895   3.9148   3.9438   3.9862   4.2315   4.3648   4.4588
     8.1872   8.2591   8.3679   9.5971   9.6805   9.8519  10.5069  11.4795
    11.7900  11.8368  12.2376  12.2732  12.5635  12.8979  12.9450  13.0729
    13.1584  13.2563  13.3368  13.4354  13.5165  13.6418  13.6980  13.7957
    13.8796  14.0591  14.1782  14.2908  14.3453

     occupation numbers 
     1.0000   1.0000   1.0000   1.0000   1.0000   1.0000   1.0000   1.0000
     1.0000   1.0000   1.0000   1.0000   1.0000   1.0000   1.0000   1.0000
     1.0000   1.0000   1.0000   1.0000   1.0000   1.0000   1.0000   1.0000
     1.0000   1.0000   1.0000   1.0000   1.0000   1.0000   1.0000   1.0000
     1.0000   1.0000   1.0000   1.0000   1.0000   1.0000   1.0000   1.0000
     1.0000   1.0000   1.0000   1.0000   1.0000   1.0000   1.0000   1.0000
     1.0000   1.0000   1.0000   1.0000   1.0000   1.0000   1.0000   1.0000
     1.0000   1.0000   1.0000   1.0000   1.0000   1.0000   1.0000   1.0000
     1.0000   1.0000   1.0000   1.0000   1.0000   1.0000   1.0000   1.0000
     1.0000   1.0000   1.0000   1.0000   1.0000   1.0000   1.0000   1.0000
     1.0000   1.0000   1.0000   1.0000   1.0000   1.0000   1.0000   1.0000
     1.0000   1.0000   1.0000   1.0000   1.0000   1.0000   1.0000   1.0000
     1.0000   1.0000   1.0000   1.0000   1.0000   1.0000   1.0000   1.0000
     1.0000   1.0000   1.0000   1.0000   1.0000   1.0000   1.0000   1.0000
     1.0000   1.0000   1.0000   1.0000   1.0000   1.0000   1.0000   1.0000
     1.0000   1.0000   1.0000   1.0000   1.0000   1.0000   1.0000   1.0000
     1.0000   1.0000   1.0000   0.0000   0.0000   0.0000   0.0000   0.0000
     0.0000   0.0000   0.0000   0.0000   0.0000   0.0000   0.0000   0.0000
     0.0000   0.0000   0.0000   0.0000   0.0000   0.0000   0.0000   0.0000
     0.0000   0.0000   0.0000   0.0000   0.0000

          k = 0.1667 0.1921 0.0301 ( 25937 PWs)   bands (ev):

   -77.9805 -67.5624 -67.5559 -67.4191 -66.9742 -66.9718 -44.1456 -44.1162
   -44.0286 -34.3354 -34.3162 -34.3141 -34.3049 -34.3030 -34.2943 -34.1809
   -34.1792 -34.1537 -33.7525 -33.7457 -33.7326 -33.7253 -33.7080 -33.6887
   -23.0143 -22.9613 -14.9921 -14.9396 -14.1674 -14.1207 -13.7003 -13.6725
   -13.2848 -13.1717 -13.1168 -13.0637 -12.9267 -12.9109 -12.8530 -12.7904
   -12.7329 -12.6349 -12.5194 -12.4496 -12.3278 -12.2856 -12.1833 -12.0609
   -11.1894 -10.9536  -6.5811  -6.5345  -6.5076  -6.4973  -6.4468  -6.4343
    -4.0648  -4.0039  -2.5185  -2.4145  -1.7120  -1.3946  -1.2698  -1.2306
    -0.8586  -0.7792  -0.7234  -0.5466  -0.4682  -0.2602  -0.2344  -0.1007
    -0.0009   0.1339   0.1947   0.4597   0.5088   0.6372   0.6798   0.7652
     1.0697   1.0961   1.2610   1.3168   1.3535   1.4531   1.5754   1.6637
     1.7659   1.9010   1.9355   2.0733   2.1475   2.2501   2.3258   2.3706
     2.4623   2.5042   2.5517   2.6909   2.7362   2.7481   2.8184   2.8669
     2.9467   3.0044   3.0891   3.1034   3.1525   3.2068   3.2690   3.3209
     3.3619   3.4012   3.4386   3.5677   3.6012   3.6287   3.7497   3.7943
     3.8110   3.8709   3.9230   3.9799   4.0129   4.1566   4.2635   4.4409
     8.1872   8.2713   8.3658   9.6442   9.7724   9.8526  10.6621  11.0301
    11.5733  11.9187  12.2862  12.6091  12.6421  12.7969  13.0036  13.0682
    13.1294  13.2790  13.3167  13.4132  13.4724  13.5599  13.6607  13.7445
    13.9120  13.9959  14.2286  14.3807  14.5390

     occupation numbers 
     1.0000   1.0000   1.0000   1.0000   1.0000   1.0000   1.0000   1.0000
     1.0000   1.0000   1.0000   1.0000   1.0000   1.0000   1.0000   1.0000
     1.0000   1.0000   1.0000   1.0000   1.0000   1.0000   1.0000   1.0000
     1.0000   1.0000   1.0000   1.0000   1.0000   1.0000   1.0000   1.0000
     1.0000   1.0000   1.0000   1.0000   1.0000   1.0000   1.0000   1.0000
     1.0000   1.0000   1.0000   1.0000   1.0000   1.0000   1.0000   1.0000
     1.0000   1.0000   1.0000   1.0000   1.0000   1.0000   1.0000   1.0000
     1.0000   1.0000   1.0000   1.0000   1.0000   1.0000   1.0000   1.0000
     1.0000   1.0000   1.0000   1.0000   1.0000   1.0000   1.0000   1.0000
     1.0000   1.0000   1.0000   1.0000   1.0000   1.0000   1.0000   1.0000
     1.0000   1.0000   1.0000   1.0000   1.0000   1.0000   1.0000   1.0000
     1.0000   1.0000   1.0000   1.0000   1.0000   1.0000   1.0000   1.0000
     1.0000   1.0000   1.0000   1.0000   1.0000   1.0000   1.0000   1.0000
     1.0000   1.0000   1.0000   1.0000   1.0000   1.0000   1.0000   1.0000
     1.0000   1.0000   1.0000   1.0000   1.0000   1.0000   1.0000   1.0000
     1.0000   1.0000   1.0000   1.0000   1.0000   1.0000   1.0000   1.0000
     1.0000   1.0000   1.0000   0.0000   0.0000   0.0000   0.0000   0.0000
     0.0000   0.0000   0.0000   0.0000   0.0000   0.0000   0.0000   0.0000
     0.0000   0.0000   0.0000   0.0000   0.0000   0.0000   0.0000   0.0000
     0.0000   0.0000   0.0000   0.0000   0.0000

          k = 0.1667 0.1921 0.2059 ( 25944 PWs)   bands (ev):

   -77.9806 -67.5624 -67.5559 -67.4191 -66.9742 -66.9718 -44.1456 -44.1162
   -44.0286 -34.3354 -34.3162 -34.3141 -34.3049 -34.3030 -34.2943 -34.1809
   -34.1792 -34.1537 -33.7525 -33.7457 -33.7326 -33.7254 -33.7080 -33.6887
   -23.0143 -22.9613 -14.9760 -14.9566 -14.1553 -14.1336 -13.6983 -13.6746
   -13.2782 -13.1688 -13.1340 -13.0499 -12.9391 -12.9042 -12.8493 -12.7907
   -12.7307 -12.6396 -12.5152 -12.4544 -12.3256 -12.2880 -12.1739 -12.0691
   -11.1889 -10.9544  -6.5811  -6.5346  -6.5076  -6.4973  -6.4467  -6.4343
    -4.0632  -4.0057  -2.4932  -2.4428  -1.6845  -1.3835  -1.2919  -1.2101
    -0.8634  -0.7734  -0.7188  -0.5523  -0.4709  -0.3131  -0.2128  -0.1601
     0.0358   0.1116   0.1932   0.4162   0.4935   0.6216   0.6700   0.8045
     1.0538   1.1122   1.2478   1.3533   1.4052   1.5066   1.5949   1.7104
     1.8128   1.8572   1.9235   2.0638   2.1761   2.2776   2.3372   2.3799
     2.4378   2.5127   2.5421   2.6548   2.6858   2.7332   2.8123   2.8527
     2.8939   3.0138   3.0472   3.1294   3.1598   3.1922   3.2640   3.2746
     3.3629   3.4174   3.5218   3.5680   3.6011   3.6581   3.7166   3.7991
     3.8070   3.8504   3.8994   3.9470   4.0139   4.2001   4.2840   4.4528
     8.1894   8.2704   8.3642   9.6280   9.8065  10.1180  10.5931  10.8573
    11.2809  11.8845  12.2545  12.5990  12.7222  12.8442  13.0525  13.1883
    13.2400  13.3075  13.3758  13.4007  13.5236  13.6068  13.6794  13.7590
    13.8578  14.0004  14.1401  14.2629  14.5013

     occupation numbers 
     1.0000   1.0000   1.0000   1.0000   1.0000   1.0000   1.0000   1.0000
     1.0000   1.0000   1.0000   1.0000   1.0000   1.0000   1.0000   1.0000
     1.0000   1.0000   1.0000   1.0000   1.0000   1.0000   1.0000   1.0000
     1.0000   1.0000   1.0000   1.0000   1.0000   1.0000   1.0000   1.0000
     1.0000   1.0000   1.0000   1.0000   1.0000   1.0000   1.0000   1.0000
     1.0000   1.0000   1.0000   1.0000   1.0000   1.0000   1.0000   1.0000
     1.0000   1.0000   1.0000   1.0000   1.0000   1.0000   1.0000   1.0000
     1.0000   1.0000   1.0000   1.0000   1.0000   1.0000   1.0000   1.0000
     1.0000   1.0000   1.0000   1.0000   1.0000   1.0000   1.0000   1.0000
     1.0000   1.0000   1.0000   1.0000   1.0000   1.0000   1.0000   1.0000
     1.0000   1.0000   1.0000   1.0000   1.0000   1.0000   1.0000   1.0000
     1.0000   1.0000   1.0000   1.0000   1.0000   1.0000   1.0000   1.0000
     1.0000   1.0000   1.0000   1.0000   1.0000   1.0000   1.0000   1.0000
     1.0000   1.0000   1.0000   1.0000   1.0000   1.0000   1.0000   1.0000
     1.0000   1.0000   1.0000   1.0000   1.0000   1.0000   1.0000   1.0000
     1.0000   1.0000   1.0000   1.0000   1.0000   1.0000   1.0000   1.0000
     1.0000   1.0000   1.0000   0.0000   0.0000   0.0000   0.0000   0.0000
     0.0000   0.0000   0.0000   0.0000   0.0000   0.0000   0.0000   0.0000
     0.0000   0.0000   0.0000   0.0000   0.0000   0.0000   0.0000   0.0000
     0.0000   0.0000   0.0000   0.0000   0.0000

          k = 0.1667 0.1921-0.1457 ( 25923 PWs)   bands (ev):

   -77.9805 -67.5624 -67.5559 -67.4191 -66.9742 -66.9718 -44.1456 -44.1162
   -44.0286 -34.3353 -34.3162 -34.3141 -34.3049 -34.3030 -34.2943 -34.1809
   -34.1792 -34.1537 -33.7525 -33.7457 -33.7326 -33.7253 -33.7080 -33.6887
   -23.0143 -22.9613 -14.9827 -14.9496 -14.1574 -14.1314 -13.6956 -13.6773
   -13.2798 -13.1698 -13.1276 -13.0558 -12.9388 -12.8999 -12.8547 -12.7897
   -12.7310 -12.6386 -12.5091 -12.4598 -12.3130 -12.3020 -12.1730 -12.0684
   -11.1887 -10.9544  -6.5812  -6.5346  -6.5076  -6.4972  -6.4467  -6.4343
    -4.0479  -4.0214  -2.4946  -2.4407  -1.6945  -1.3877  -1.2934  -1.2074
    -0.8427  -0.7971  -0.6866  -0.5517  -0.5040  -0.2814  -0.2279  -0.1443
     0.0022   0.1299   0.1732   0.4457   0.5178   0.6182   0.7102   0.8014
     1.0498   1.0676   1.2377   1.3331   1.4202   1.4970   1.6019   1.6908
     1.7758   1.8718   1.9217   2.0898   2.1661   2.2373   2.3211   2.3744
     2.4595   2.4852   2.5609   2.6727   2.7185   2.7639   2.7941   2.8446
     2.9030   3.0263   3.0658   3.1296   3.1770   3.1881   3.2607   3.3148
     3.3934   3.4282   3.4624   3.5581   3.6212   3.6450   3.6916   3.7699
     3.8143   3.8616   3.9067   3.9517   3.9858   4.2124   4.2744   4.4501
     8.1872   8.2706   8.3667   9.6057   9.7713  10.0658  10.7369  10.8392
    11.3458  11.9559  12.3017  12.5766  12.6641  12.8296  13.0143  13.1351
    13.2050  13.2674  13.3528  13.4324  13.5235  13.5849  13.6226  13.8555
    13.8852  13.9338  14.1006  14.3156  14.4647

     occupation numbers 
     1.0000   1.0000   1.0000   1.0000   1.0000   1.0000   1.0000   1.0000
     1.0000   1.0000   1.0000   1.0000   1.0000   1.0000   1.0000   1.0000
     1.0000   1.0000   1.0000   1.0000   1.0000   1.0000   1.0000   1.0000
     1.0000   1.0000   1.0000   1.0000   1.0000   1.0000   1.0000   1.0000
     1.0000   1.0000   1.0000   1.0000   1.0000   1.0000   1.0000   1.0000
     1.0000   1.0000   1.0000   1.0000   1.0000   1.0000   1.0000   1.0000
     1.0000   1.0000   1.0000   1.0000   1.0000   1.0000   1.0000   1.0000
     1.0000   1.0000   1.0000   1.0000   1.0000   1.0000   1.0000   1.0000
     1.0000   1.0000   1.0000   1.0000   1.0000   1.0000   1.0000   1.0000
     1.0000   1.0000   1.0000   1.0000   1.0000   1.0000   1.0000   1.0000
     1.0000   1.0000   1.0000   1.0000   1.0000   1.0000   1.0000   1.0000
     1.0000   1.0000   1.0000   1.0000   1.0000   1.0000   1.0000   1.0000
     1.0000   1.0000   1.0000   1.0000   1.0000   1.0000   1.0000   1.0000
     1.0000   1.0000   1.0000   1.0000   1.0000   1.0000   1.0000   1.0000
     1.0000   1.0000   1.0000   1.0000   1.0000   1.0000   1.0000   1.0000
     1.0000   1.0000   1.0000   1.0000   1.0000   1.0000   1.0000   1.0000
     1.0000   1.0000   1.0000   0.0000   0.0000   0.0000   0.0000   0.0000
     0.0000   0.0000   0.0000   0.0000   0.0000   0.0000   0.0000   0.0000
     0.0000   0.0000   0.0000   0.0000   0.0000   0.0000   0.0000   0.0000
     0.0000   0.0000   0.0000   0.0000   0.0000

          k = 0.3333 0.0000 0.0601 ( 25907 PWs)   bands (ev):

   -77.9805 -67.5623 -67.5559 -67.4191 -66.9739 -66.9722 -44.1456 -44.1162
   -44.0286 -34.3347 -34.3175 -34.3133 -34.3048 -34.3031 -34.2944 -34.1809
   -34.1791 -34.1537 -33.7543 -33.7426 -33.7336 -33.7236 -33.7102 -33.6885
   -23.0140 -22.9610 -14.8358 -14.7869 -14.2617 -14.2234 -13.8317 -13.7957
   -13.2321 -13.0987 -13.0503 -13.0254 -12.9579 -12.8777 -12.8263 -12.8135
   -12.7160 -12.6472 -12.5636 -12.5012 -12.4210 -12.3539 -12.1687 -12.0530
   -11.1847 -10.9628  -6.5833  -6.5404  -6.5050  -6.4957  -6.4463  -6.4262
    -3.6899  -3.6194  -2.5031  -2.3923  -1.7724  -1.6199  -1.3903  -1.2133
    -0.8024  -0.7730  -0.6831  -0.6495  -0.3729  -0.2602  -0.1883  -0.1186
    -0.0898   0.1379   0.2742   0.4469   0.5274   0.6554   0.6836   0.7319
     1.0036   1.1413   1.2031   1.2546   1.4301   1.4759   1.5382   1.6030
     1.6489   1.6919   1.8307   1.9796   2.0971   2.3119   2.3655   2.3929
     2.4592   2.5604   2.6839   2.7083   2.7385   2.7858   2.8147   2.8845
     2.9263   2.9630   3.0213   3.0982   3.1462   3.1943   3.2223   3.2770
     3.3733   3.3894   3.4476   3.5459   3.5968   3.6386   3.6630   3.7373
     3.7714   3.8171   3.8944   3.9637   4.0373   4.0661   4.2646   4.3996
     8.1895   8.2638   8.3205   9.7087   9.7757  10.2278  11.2171  11.4878
    11.9171  12.0216  12.2144  12.2548  12.6730  12.7119  12.7383  13.0002
    13.1260  13.2143  13.4232  13.5172  13.5542  13.5917  13.7526  13.9344
    13.9563  14.1757  14.2345  14.3307  14.4296

     occupation numbers 
     1.0000   1.0000   1.0000   1.0000   1.0000   1.0000   1.0000   1.0000
     1.0000   1.0000   1.0000   1.0000   1.0000   1.0000   1.0000   1.0000
     1.0000   1.0000   1.0000   1.0000   1.0000   1.0000   1.0000   1.0000
     1.0000   1.0000   1.0000   1.0000   1.0000   1.0000   1.0000   1.0000
     1.0000   1.0000   1.0000   1.0000   1.0000   1.0000   1.0000   1.0000
     1.0000   1.0000   1.0000   1.0000   1.0000   1.0000   1.0000   1.0000
     1.0000   1.0000   1.0000   1.0000   1.0000   1.0000   1.0000   1.0000
     1.0000   1.0000   1.0000   1.0000   1.0000   1.0000   1.0000   1.0000
     1.0000   1.0000   1.0000   1.0000   1.0000   1.0000   1.0000   1.0000
     1.0000   1.0000   1.0000   1.0000   1.0000   1.0000   1.0000   1.0000
     1.0000   1.0000   1.0000   1.0000   1.0000   1.0000   1.0000   1.0000
     1.0000   1.0000   1.0000   1.0000   1.0000   1.0000   1.0000   1.0000
     1.0000   1.0000   1.0000   1.0000   1.0000   1.0000   1.0000   1.0000
     1.0000   1.0000   1.0000   1.0000   1.0000   1.0000   1.0000   1.0000
     1.0000   1.0000   1.0000   1.0000   1.0000   1.0000   1.0000   1.0000
     1.0000   1.0000   1.0000   1.0000   1.0000   1.0000   1.0000   1.0000
     1.0000   1.0000   1.0000   0.0000   0.0000   0.0000   0.0000   0.0000
     0.0000   0.0000   0.0000   0.0000   0.0000   0.0000   0.0000   0.0000
     0.0000   0.0000   0.0000   0.0000   0.0000   0.0000   0.0000   0.0000
     0.0000   0.0000   0.0000   0.0000   0.0000

          k = 0.3333 0.0000 0.2360 ( 25948 PWs)   bands (ev):

   -77.9806 -67.5624 -67.5559 -67.4191 -66.9739 -66.9722 -44.1456 -44.1162
   -44.0286 -34.3347 -34.3175 -34.3133 -34.3048 -34.3031 -34.2944 -34.1810
   -34.1792 -34.1537 -33.7543 -33.7427 -33.7336 -33.7237 -33.7102 -33.6885
   -23.0140 -22.9610 -14.8178 -14.8058 -14.2594 -14.2258 -13.8248 -13.8031
   -13.2243 -13.1123 -13.0485 -13.0203 -12.9560 -12.8714 -12.8414 -12.8068
   -12.7159 -12.6478 -12.5585 -12.5087 -12.4061 -12.3666 -12.1586 -12.0621
   -11.1838 -10.9638  -6.5834  -6.5405  -6.5049  -6.4957  -6.4462  -6.4262
    -3.6915  -3.6179  -2.4771  -2.4216  -1.7440  -1.6569  -1.3652  -1.2001
    -0.7980  -0.7784  -0.6920  -0.6311  -0.3445  -0.2534  -0.2395  -0.1941
    -0.0417   0.0953   0.2840   0.4121   0.5355   0.6310   0.6733   0.7831
     1.0322   1.1513   1.1911   1.2732   1.3562   1.5217   1.5812   1.6104
     1.6704   1.7290   1.7808   2.0546   2.1295   2.2476   2.3770   2.4189
     2.4439   2.4823   2.6654   2.6961   2.7771   2.7895   2.8390   2.8492
     2.8959   2.9301   2.9976   3.0928   3.1246   3.2082   3.2697   3.3315
     3.3696   3.3996   3.4754   3.5280   3.5878   3.6388   3.6802   3.6929
     3.7794   3.8124   3.8678   3.9136   4.0109   4.1436   4.2686   4.4224
     8.1893   8.2618   8.3211   9.7026   9.7591  10.5752  10.7861  11.5188
    11.9292  11.9793  12.1934  12.3227  12.6015  12.6607  12.7552  12.8912
    13.2628  13.3133  13.4317  13.4759  13.5780  13.6115  13.8383  13.9529
    13.9640  14.0149  14.0588  14.4341  14.5728

     occupation numbers 
     1.0000   1.0000   1.0000   1.0000   1.0000   1.0000   1.0000   1.0000
     1.0000   1.0000   1.0000   1.0000   1.0000   1.0000   1.0000   1.0000
     1.0000   1.0000   1.0000   1.0000   1.0000   1.0000   1.0000   1.0000
     1.0000   1.0000   1.0000   1.0000   1.0000   1.0000   1.0000   1.0000
     1.0000   1.0000   1.0000   1.0000   1.0000   1.0000   1.0000   1.0000
     1.0000   1.0000   1.0000   1.0000   1.0000   1.0000   1.0000   1.0000
     1.0000   1.0000   1.0000   1.0000   1.0000   1.0000   1.0000   1.0000
     1.0000   1.0000   1.0000   1.0000   1.0000   1.0000   1.0000   1.0000
     1.0000   1.0000   1.0000   1.0000   1.0000   1.0000   1.0000   1.0000
     1.0000   1.0000   1.0000   1.0000   1.0000   1.0000   1.0000   1.0000
     1.0000   1.0000   1.0000   1.0000   1.0000   1.0000   1.0000   1.0000
     1.0000   1.0000   1.0000   1.0000   1.0000   1.0000   1.0000   1.0000
     1.0000   1.0000   1.0000   1.0000   1.0000   1.0000   1.0000   1.0000
     1.0000   1.0000   1.0000   1.0000   1.0000   1.0000   1.0000   1.0000
     1.0000   1.0000   1.0000   1.0000   1.0000   1.0000   1.0000   1.0000
     1.0000   1.0000   1.0000   1.0000   1.0000   1.0000   1.0000   1.0000
     1.0000   1.0000   1.0000   0.0000   0.0000   0.0000   0.0000   0.0000
     0.0000   0.0000   0.0000   0.0000   0.0000   0.0000   0.0000   0.0000
     0.0000   0.0000   0.0000   0.0000   0.0000   0.0000   0.0000   0.0000
     0.0000   0.0000   0.0000   0.0000   0.0000

          k = 0.3333 0.0000-0.1157 ( 25913 PWs)   bands (ev):

   -77.9805 -67.5623 -67.5559 -67.4191 -66.9739 -66.9722 -44.1456 -44.1162
   -44.0286 -34.3347 -34.3175 -34.3133 -34.3048 -34.3031 -34.2944 -34.1809
   -34.1792 -34.1537 -33.7543 -33.7427 -33.7336 -33.7236 -33.7102 -33.6885
   -23.0140 -22.9610 -14.8302 -14.7929 -14.2531 -14.2324 -13.8260 -13.8018
   -13.2284 -13.0995 -13.0608 -13.0176 -12.9562 -12.8826 -12.8282 -12.8064
   -12.7159 -12.6492 -12.5544 -12.5143 -12.4019 -12.3701 -12.1594 -12.0607
   -11.1837 -10.9638  -6.5835  -6.5405  -6.5049  -6.4957  -6.4462  -6.4261
    -3.6579  -3.6524  -2.4920  -2.4056  -1.7567  -1.6390  -1.3816  -1.2092
    -0.7840  -0.7649  -0.6909  -0.6296  -0.3809  -0.2550  -0.2052  -0.1686
    -0.0960   0.1083   0.3109   0.4082   0.5542   0.6375   0.7144   0.7443
     1.0349   1.1043   1.2119   1.3221   1.3521   1.4953   1.5394   1.6292
     1.6516   1.6704   1.8469   2.0028   2.0831   2.2793   2.3632   2.3689
     2.4535   2.5606   2.6768   2.7370   2.7440   2.7893   2.8135   2.8756
     2.9338   2.9439   2.9757   3.1031   3.1679   3.2087   3.2851   3.3010
     3.3633   3.3901   3.5153   3.5620   3.6025   3.6125   3.6450   3.6701
     3.7493   3.8129   3.8579   3.8932   4.0445   4.1262   4.2733   4.4244
     8.1872   8.2620   8.3220   9.7012   9.7751  10.2922  11.1040  11.6104
    11.8724  12.0421  12.2076  12.3584  12.5848  12.6505  12.8278  12.8788
    13.1285  13.2630  13.3673  13.5106  13.5571  13.6278  13.6598  13.8766
    14.0228  14.1172  14.2101  14.3845  14.4937

     occupation numbers 
     1.0000   1.0000   1.0000   1.0000   1.0000   1.0000   1.0000   1.0000
     1.0000   1.0000   1.0000   1.0000   1.0000   1.0000   1.0000   1.0000
     1.0000   1.0000   1.0000   1.0000   1.0000   1.0000   1.0000   1.0000
     1.0000   1.0000   1.0000   1.0000   1.0000   1.0000   1.0000   1.0000
     1.0000   1.0000   1.0000   1.0000   1.0000   1.0000   1.0000   1.0000
     1.0000   1.0000   1.0000   1.0000   1.0000   1.0000   1.0000   1.0000
     1.0000   1.0000   1.0000   1.0000   1.0000   1.0000   1.0000   1.0000
     1.0000   1.0000   1.0000   1.0000   1.0000   1.0000   1.0000   1.0000
     1.0000   1.0000   1.0000   1.0000   1.0000   1.0000   1.0000   1.0000
     1.0000   1.0000   1.0000   1.0000   1.0000   1.0000   1.0000   1.0000
     1.0000   1.0000   1.0000   1.0000   1.0000   1.0000   1.0000   1.0000
     1.0000   1.0000   1.0000   1.0000   1.0000   1.0000   1.0000   1.0000
     1.0000   1.0000   1.0000   1.0000   1.0000   1.0000   1.0000   1.0000
     1.0000   1.0000   1.0000   1.0000   1.0000   1.0000   1.0000   1.0000
     1.0000   1.0000   1.0000   1.0000   1.0000   1.0000   1.0000   1.0000
     1.0000   1.0000   1.0000   1.0000   1.0000   1.0000   1.0000   1.0000
     1.0000   1.0000   1.0000   0.0000   0.0000   0.0000   0.0000   0.0000
     0.0000   0.0000   0.0000   0.0000   0.0000   0.0000   0.0000   0.0000
     0.0000   0.0000   0.0000   0.0000   0.0000   0.0000   0.0000   0.0000
     0.0000   0.0000   0.0000   0.0000   0.0000

          k = 0.3333 0.1921 0.0601 ( 25923 PWs)   bands (ev):

   -77.9805 -67.5623 -67.5559 -67.4191 -66.9739 -66.9722 -44.1456 -44.1162
   -44.0286 -34.3348 -34.3175 -34.3133 -34.3048 -34.3031 -34.2944 -34.1810
   -34.1791 -34.1537 -33.7543 -33.7427 -33.7336 -33.7236 -33.7102 -33.6885
   -23.0140 -22.9610 -14.8320 -14.7831 -14.2738 -14.2335 -13.8280 -13.7946
   -13.1987 -13.1120 -13.0340 -12.9973 -12.9516 -12.8959 -12.8583 -12.8387
   -12.7183 -12.6470 -12.5598 -12.4847 -12.4194 -12.3610 -12.1676 -12.0526
   -11.1841 -10.9628  -6.5832  -6.5418  -6.5051  -6.4951  -6.4458  -6.4263
    -3.6678  -3.5976  -2.6033  -2.5032  -1.6904  -1.5129  -1.3550  -1.2252
    -0.8319  -0.7799  -0.6793  -0.6100  -0.3708  -0.2326  -0.1850  -0.1070
    -0.0407   0.1067   0.2646   0.4367   0.5215   0.6182   0.6687   0.6816
     0.9790   1.0508   1.2673   1.3236   1.3860   1.4997   1.5516   1.5897
     1.6573   1.7044   1.8163   1.9439   2.1142   2.2712   2.3621   2.4148
     2.4739   2.5903   2.6285   2.6743   2.7244   2.8266   2.8721   2.9085
     2.9401   2.9825   3.0842   3.1014   3.1594   3.1987   3.2168   3.3023
     3.3608   3.4100   3.4521   3.5091   3.5699   3.5898   3.6301   3.6797
     3.7842   3.8591   3.9028   3.9757   4.0141   4.1110   4.2004   4.3747
     8.1894   8.2738   8.3188   9.6754   9.7974  10.4734  11.0780  11.4004
    11.8138  11.9209  12.1174  12.4631  12.5447  12.7108  12.8245  13.0587
    13.1703  13.2373  13.4133  13.4214  13.5431  13.6153  13.7591  13.8874
    14.0752  14.2332  14.2717  14.3517  14.4440

     occupation numbers 
     1.0000   1.0000   1.0000   1.0000   1.0000   1.0000   1.0000   1.0000
     1.0000   1.0000   1.0000   1.0000   1.0000   1.0000   1.0000   1.0000
     1.0000   1.0000   1.0000   1.0000   1.0000   1.0000   1.0000   1.0000
     1.0000   1.0000   1.0000   1.0000   1.0000   1.0000   1.0000   1.0000
     1.0000   1.0000   1.0000   1.0000   1.0000   1.0000   1.0000   1.0000
     1.0000   1.0000   1.0000   1.0000   1.0000   1.0000   1.0000   1.0000
     1.0000   1.0000   1.0000   1.0000   1.0000   1.0000   1.0000   1.0000
     1.0000   1.0000   1.0000   1.0000   1.0000   1.0000   1.0000   1.0000
     1.0000   1.0000   1.0000   1.0000   1.0000   1.0000   1.0000   1.0000
     1.0000   1.0000   1.0000   1.0000   1.0000   1.0000   1.0000   1.0000
     1.0000   1.0000   1.0000   1.0000   1.0000   1.0000   1.0000   1.0000
     1.0000   1.0000   1.0000   1.0000   1.0000   1.0000   1.0000   1.0000
     1.0000   1.0000   1.0000   1.0000   1.0000   1.0000   1.0000   1.0000
     1.0000   1.0000   1.0000   1.0000   1.0000   1.0000   1.0000   1.0000
     1.0000   1.0000   1.0000   1.0000   1.0000   1.0000   1.0000   1.0000
     1.0000   1.0000   1.0000   1.0000   1.0000   1.0000   1.0000   1.0000
     1.0000   1.0000   1.0000   0.0000   0.0000   0.0000   0.0000   0.0000
     0.0000   0.0000   0.0000   0.0000   0.0000   0.0000   0.0000   0.0000
     0.0000   0.0000   0.0000   0.0000   0.0000   0.0000   0.0000   0.0000
     0.0000   0.0000   0.0000   0.0000   0.0000

          k = 0.3333 0.1921 0.2360 ( 25909 PWs)   bands (ev):

   -77.9805 -67.5623 -67.5559 -67.4191 -66.9739 -66.9722 -44.1456 -44.1162
   -44.0286 -34.3348 -34.3175 -34.3133 -34.3048 -34.3031 -34.2944 -34.1809
   -34.1791 -34.1537 -33.7543 -33.7426 -33.7336 -33.7236 -33.7102 -33.6885
   -23.0140 -22.9610 -14.8143 -14.8017 -14.2693 -14.2382 -13.8217 -13.8014
   -13.1925 -13.1102 -13.0481 -12.9900 -12.9504 -12.8993 -12.8602 -12.8330
   -12.7171 -12.6499 -12.5539 -12.4945 -12.4075 -12.3699 -12.1576 -12.0615
   -11.1833 -10.9638  -6.5833  -6.5419  -6.5050  -6.4951  -6.4457  -6.4263
    -3.6668  -3.5985  -2.5690  -2.5411  -1.6706  -1.5399  -1.3374  -1.2068
    -0.8225  -0.7998  -0.6484  -0.6203  -0.3447  -0.2830  -0.1982  -0.1250
    -0.0270   0.0681   0.2963   0.3909   0.5127   0.5963   0.6619   0.7188
     0.9703   1.0749   1.2861   1.3197   1.3972   1.4752   1.5801   1.6377
     1.6840   1.7182   1.8052   1.9613   2.1627   2.2128   2.3820   2.4093
     2.4451   2.5537   2.6063   2.6992   2.7409   2.8021   2.8474   2.8735
     2.9269   2.9978   3.0508   3.0899   3.1483   3.1913   3.2425   3.3214
     3.3920   3.4311   3.4851   3.5295   3.5686   3.5939   3.6284   3.6690
     3.7766   3.8111   3.8921   3.9280   4.0301   4.1456   4.2082   4.3975
     8.1891   8.2720   8.3195   9.6682   9.7856  10.7601  11.0198  11.2500
    11.5885  11.8897  12.0854  12.5012  12.6178  12.7131  12.8098  12.9897
    13.1544  13.3381  13.4122  13.4729  13.6267  13.6721  13.8249  13.9049
    14.0195  14.1293  14.1610  14.3214  14.4138

     occupation numbers 
     1.0000   1.0000   1.0000   1.0000   1.0000   1.0000   1.0000   1.0000
     1.0000   1.0000   1.0000   1.0000   1.0000   1.0000   1.0000   1.0000
     1.0000   1.0000   1.0000   1.0000   1.0000   1.0000   1.0000   1.0000
     1.0000   1.0000   1.0000   1.0000   1.0000   1.0000   1.0000   1.0000
     1.0000   1.0000   1.0000   1.0000   1.0000   1.0000   1.0000   1.0000
     1.0000   1.0000   1.0000   1.0000   1.0000   1.0000   1.0000   1.0000
     1.0000   1.0000   1.0000   1.0000   1.0000   1.0000   1.0000   1.0000
     1.0000   1.0000   1.0000   1.0000   1.0000   1.0000   1.0000   1.0000
     1.0000   1.0000   1.0000   1.0000   1.0000   1.0000   1.0000   1.0000
     1.0000   1.0000   1.0000   1.0000   1.0000   1.0000   1.0000   1.0000
[...]
     atom   11 type  7   force =     0.00004999    0.00286562    0.01341058
     atom   12 type  7   force =    -0.00149402   -0.01158969    0.00925180
     atom   13 type  7   force =     0.00149399   -0.01158967   -0.00925188
     atom   14 type  1   force =    -0.00033845   -0.00164496   -0.00877156
     atom   15 type  1   force =     0.00033843   -0.00164496    0.00877153
     atom   16 type  6   force =    -0.00011486    0.00019523    0.00650060
     atom   17 type  6   force =     0.00011483    0.00019523   -0.00650060
     atom   18 type  6   force =    -0.00012332   -0.00001027   -0.00704214
     atom   19 type  6   force =     0.00012332   -0.00001027    0.00704214
     atom   20 type  6   force =     0.00098075    0.00094649    0.00639506
     atom   21 type  6   force =    -0.00098075    0.00094649   -0.00639506
     atom   22 type  6   force =    -0.00091311   -0.00131244   -0.00257927
     atom   23 type  6   force =     0.00091310   -0.00131246    0.00257928
     atom   24 type  6   force =     0.00470409   -0.00186363   -0.00581031
     atom   25 type  6   force =    -0.00470409   -0.00186363    0.00581030
     atom   26 type  6   force =    -0.00358265    0.00078717   -0.00711731
     atom   27 type  6   force =     0.00358266    0.00078717    0.00711729
     atom   28 type  6   force =    -0.00175999    0.00252131    0.00729109
     atom   29 type  6   force =     0.00175999    0.00252131   -0.00729106
     atom   30 type  6   force =     0.00096912   -0.00222298   -0.00750586
     atom   31 type  6   force =    -0.00096912   -0.00222297    0.00750584
     atom   32 type  6   force =    -0.00265520   -0.00342555   -0.00680393
     atom   33 type  6   force =     0.00265519   -0.00342555    0.00680393
     atom   34 type  6   force =     0.00105415    0.00417450    0.00641826
     atom   35 type  6   force =    -0.00105415    0.00417450   -0.00641824
     atom   36 type  6   force =    -0.00328309    0.00076060    0.01058517
     atom   37 type  6   force =     0.00328307    0.00076061   -0.01058520
     atom   38 type  6   force =    -0.00015200   -0.00124317    0.01114512
     atom   39 type  6   force =     0.00015200   -0.00124317   -0.01114512
     atom   40 type  3   force =     0.00000000    0.00000000    0.00000000
     atom   41 type  3   force =     0.00000000    0.00000000    0.00000000
     atom   42 type  3   force =     0.00000000    0.00000000    0.00000000
     atom   43 type  3   force =     0.00000000    0.00000000    0.00000000
     atom   44 type  2   force =     0.00000000   -0.00257196   -0.00000000
     The Hubbard contrib.    to forces
     atom    1 type  4   force =     0.00000000    0.00000000    0.00000000
     atom    2 type  4   force =     0.00000000    0.00000000    0.00000000
     atom    3 type  5   force =     0.00000000    0.00000000    0.00000000
     atom    4 type  5   force =     0.00000000    0.00000000    0.00000000
     atom    5 type  5   force =     0.00000000    0.00000000    0.00000000
     atom    6 type  5   force =     0.00000000    0.00000000    0.00000000
     atom    7 type  5   force =     0.00000000    0.00000000    0.00000000
     atom    8 type  7   force =     0.00000000    0.00000000    0.00000000
     atom    9 type  7   force =     0.00000000    0.00000000    0.00000000
     atom   10 type  7   force =     0.00000000    0.00000000    0.00000000
     atom   11 type  7   force =     0.00000000    0.00000000    0.00000000
     atom   12 type  7   force =     0.00000000    0.00000000    0.00000000
     atom   13 type  7   force =     0.00000000    0.00000000    0.00000000
     atom   14 type  1   force =     0.00000000    0.00000000    0.00000000
     atom   15 type  1   force =     0.00000000    0.00000000    0.00000000
     atom   16 type  6   force =     0.00000000    0.00000000    0.00000000
     atom   17 type  6   force =     0.00000000    0.00000000    0.00000000
     atom   18 type  6   force =     0.00000000    0.00000000    0.00000000
     atom   19 type  6   force =     0.00000000    0.00000000    0.00000000
     atom   20 type  6   force =     0.00000000    0.00000000    0.00000000
     atom   21 type  6   force =     0.00000000    0.00000000    0.00000000
     atom   22 type  6   force =     0.00000000    0.00000000    0.00000000
     atom   23 type  6   force =     0.00000000    0.00000000    0.00000000
     atom   24 type  6   force =     0.00000000    0.00000000    0.00000000
     atom   25 type  6   force =     0.00000000    0.00000000    0.00000000
     atom   26 type  6   force =     0.00000000    0.00000000    0.00000000
     atom   27 type  6   force =     0.00000000    0.00000000    0.00000000
     atom   28 type  6   force =     0.00000000    0.00000000    0.00000000
     atom   29 type  6   force =     0.00000000    0.00000000    0.00000000
     atom   30 type  6   force =     0.00000000    0.00000000    0.00000000
     atom   31 type  6   force =     0.00000000    0.00000000    0.00000000
     atom   32 type  6   force =     0.00000000    0.00000000    0.00000000
     atom   33 type  6   force =     0.00000000    0.00000000    0.00000000
     atom   34 type  6   force =     0.00000000    0.00000000    0.00000000
     atom   35 type  6   force =     0.00000000    0.00000000    0.00000000
     atom   36 type  6   force =     0.00000000    0.00000000    0.00000000
     atom   37 type  6   force =     0.00000000    0.00000000    0.00000000
     atom   38 type  6   force =     0.00000000    0.00000000    0.00000000
     atom   39 type  6   force =     0.00000000    0.00000000    0.00000000
     atom   40 type  3   force =     0.00000000    0.00000000    0.00000000
     atom   41 type  3   force =     0.00000000    0.00000000    0.00000000
     atom   42 type  3   force =     0.00000000    0.00000000    0.00000000
     atom   43 type  3   force =     0.00000000    0.00000000    0.00000000
     atom   44 type  2   force =     0.00000000    0.00000000    0.00000000
     The SCF correction term to forces
     atom    1 type  4   force =     0.00000000    0.00000231   -0.00000000
     atom    2 type  4   force =     0.00000000   -0.00000741   -0.00000000
     atom    3 type  5   force =     0.00000000   -0.00003303   -0.00000000
     atom    4 type  5   force =     0.00000000    0.00000262    0.00000000
     atom    5 type  5   force =     0.00000000    0.00002705    0.00000000
     atom    6 type  5   force =     0.00000000    0.00003299    0.00000000
     atom    7 type  5   force =     0.00000000   -0.00006711    0.00000000
     atom    8 type  7   force =     0.00000386   -0.00000262   -0.00003213
     atom    9 type  7   force =    -0.00000386   -0.00000262    0.00003213
     atom   10 type  7   force =     0.00000066    0.00000345    0.00002055
     atom   11 type  7   force =    -0.00000066    0.00000345   -0.00002055
     atom   12 type  7   force =    -0.00000014    0.00000576   -0.00001699
     atom   13 type  7   force =     0.00000014    0.00000576    0.00001699
     atom   14 type  1   force =    -0.00000035   -0.00000346    0.00001875
     atom   15 type  1   force =     0.00000035   -0.00000346   -0.00001875
     atom   16 type  6   force =     0.00000496   -0.00003280   -0.00003318
     atom   17 type  6   force =    -0.00000496   -0.00003280    0.00003318
     atom   18 type  6   force =    -0.00000162    0.00001509    0.00002762
     atom   19 type  6   force =     0.00000162    0.00001509   -0.00002762
     atom   20 type  6   force =     0.00000233    0.00002637   -0.00002477
     atom   21 type  6   force =    -0.00000233    0.00002637    0.00002477
     atom   22 type  6   force =    -0.00000388   -0.00000247   -0.00000470
     atom   23 type  6   force =     0.00000388   -0.00000247    0.00000470
     atom   24 type  6   force =    -0.00002910   -0.00003350   -0.00004795
     atom   25 type  6   force =     0.00002910   -0.00003350    0.00004795
     atom   26 type  6   force =     0.00000894   -0.00001814   -0.00001855
     atom   27 type  6   force =    -0.00000894   -0.00001814    0.00001855
     atom   28 type  6   force =     0.00000811    0.00001452    0.00002202
     atom   29 type  6   force =    -0.00000811    0.00001452   -0.00002202
     atom   30 type  6   force =     0.00000518    0.00002156   -0.00002245
     atom   31 type  6   force =    -0.00000518    0.00002156    0.00002245
     atom   32 type  6   force =    -0.00000592    0.00003376   -0.00003811
     atom   33 type  6   force =     0.00000592    0.00003376    0.00003811
     atom   34 type  6   force =    -0.00003310   -0.00002160    0.00005162
     atom   35 type  6   force =     0.00003310   -0.00002160   -0.00005162
     atom   36 type  6   force =    -0.00001196    0.00001660   -0.00002285
     atom   37 type  6   force =     0.00001196    0.00001660    0.00002285
     atom   38 type  6   force =    -0.00000463   -0.00002394   -0.00000212
     atom   39 type  6   force =     0.00000463   -0.00002394    0.00000212
     atom   40 type  3   force =    -0.00000045    0.00000207   -0.00000720
     atom   41 type  3   force =     0.00000045    0.00000207    0.00000720
     atom   42 type  3   force =    -0.00000056   -0.00000425    0.00000517
     atom   43 type  3   force =     0.00000056   -0.00000425   -0.00000517
     atom   44 type  2   force =    -0.00000000    0.00006598    0.00000000

     DFT-D3 dispersion contribution to forces:
     atom    1 type  4   force =    -0.00000000    0.00092439   -0.00000000
     atom    2 type  4   force =    -0.00000000   -0.00076519    0.00000000
     atom    3 type  5   force =     0.00000000    0.00028676    0.00000000
     atom    4 type  5   force =    -0.00000000    0.00094690    0.00000000
     atom    5 type  5   force =    -0.00000000   -0.00153377    0.00000000
     atom    6 type  5   force =    -0.00000000    0.00084469    0.00000000
     atom    7 type  5   force =    -0.00000000   -0.00002563    0.00000000
     atom    8 type  7   force =     0.00001328   -0.00015728   -0.00029315
     atom    9 type  7   force =    -0.00001328   -0.00015728    0.00029315
     atom   10 type  7   force =     0.00004678    0.00007004    0.00018149
     atom   11 type  7   force =    -0.00004678    0.00007004   -0.00018149
     atom   12 type  7   force =     0.00002256    0.00003274    0.00003051
     atom   13 type  7   force =    -0.00002256    0.00003274   -0.00003051
     atom   14 type  1   force =    -0.00006315    0.00014969   -0.00116275
     atom   15 type  1   force =     0.00006315    0.00014969    0.00116275
     atom   16 type  6   force =     0.00001497    0.00004797    0.00047775
     atom   17 type  6   force =    -0.00001497    0.00004797   -0.00047775
     atom   18 type  6   force =    -0.00001259    0.00003497   -0.00039580
     atom   19 type  6   force =     0.00001259    0.00003497    0.00039580
     atom   20 type  6   force =    -0.00003801   -0.00003176    0.00042410
     atom   21 type  6   force =     0.00003801   -0.00003176   -0.00042410
     atom   22 type  6   force =    -0.00004826   -0.00011536    0.00013545
     atom   23 type  6   force =     0.00004826   -0.00011536   -0.00013545
     atom   24 type  6   force =    -0.00019305    0.00099868    0.00028915
     atom   25 type  6   force =     0.00019305    0.00099868   -0.00028914
     atom   26 type  6   force =     0.00084472    0.00007154    0.00021355
     atom   27 type  6   force =    -0.00084472    0.00007154   -0.00021355
     atom   28 type  6   force =     0.00036432   -0.00056560   -0.00003284
     atom   29 type  6   force =    -0.00036432   -0.00056560    0.00003284
     atom   30 type  6   force =    -0.00023352    0.00039427   -0.00001641
     atom   31 type  6   force =     0.00023352    0.00039427    0.00001641
     atom   32 type  6   force =     0.00096439   -0.00043168    0.00043136
     atom   33 type  6   force =    -0.00096439   -0.00043168   -0.00043136
     atom   34 type  6   force =     0.00064453   -0.00051631   -0.00044062
     atom   35 type  6   force =    -0.00064453   -0.00051631    0.00044062
     atom   36 type  6   force =    -0.00012873   -0.00001031   -0.00052961
     atom   37 type  6   force =     0.00012873   -0.00001031    0.00052961
     atom   38 type  6   force =     0.00002879    0.00003733   -0.00050018
     atom   39 type  6   force =    -0.00002879    0.00003733    0.00050018
     atom   40 type  3   force =    -0.00031343    0.00015152   -0.00023536
     atom   41 type  3   force =     0.00031343    0.00015152    0.00023536
     atom   42 type  3   force =     0.00001382   -0.00039339   -0.00024248
     atom   43 type  3   force =    -0.00001382   -0.00039339    0.00024248
     atom   44 type  2   force =     0.00000000   -0.00021222    0.00000000

     Total force =     0.002277     Total SCF correction =     0.000236

     DFT-D3 dispersion Force =     0.004597
     SCF correction compared to forces is large: reduce conv_thr to get better values


     Computing stress (Cartesian axis) and pressure

          total   stress  (Ry/bohr**3)                   (kbar)     P=       -0.12
  -0.00000008   0.00000000   0.00000120           -0.01        0.00        0.18
   0.00000000   0.00000149   0.00000000            0.00        0.22        0.00
   0.00000120   0.00000000  -0.00000378            0.18        0.00       -0.56

     kinetic stress (kbar)  20349.10      0.00     16.09
                                0.00  20351.03      0.00
                               16.09      0.00  20062.24

     local   stress (kbar) -42495.31      0.00     91.71
                                0.00 -42149.09     -0.00
                               91.71     -0.00  21138.60

     nonloc. stress (kbar)   3830.85      0.00      0.25
                                0.00   3832.15      0.00
                                0.25      0.00   3813.75

     hartree stress (kbar)  23857.62      0.00    -39.76
                                0.00  23700.10      0.00
                              -39.76      0.00  -7253.79

     exc-cor stress (kbar)  -2848.20     -0.00     -0.09
                               -0.00  -2848.51      0.00
                               -0.09      0.00  -2845.29

     corecor stress (kbar)  -1878.21      0.00     -0.09
                                0.00  -1878.30     -0.00
                               -0.09     -0.00  -1879.82

     ewald   stress (kbar)   -800.85     -0.00    -68.07
                               -0.00   -991.90      0.00
                              -68.07      0.00 -33025.16

     hubbard stress (kbar)      0.00      0.00      0.00
                                0.00      0.00      0.00
                                0.00      0.00      0.00

     DFT-D   stress (kbar)    -15.01     -0.00      0.15
                               -0.00    -15.27      0.00
                                0.15      0.00    -11.10

     XDM     stress (kbar)      0.00      0.00      0.00
                                0.00      0.00      0.00
                                0.00      0.00      0.00

     dft-nl  stress (kbar)      0.00      0.00      0.00
                                0.00      0.00      0.00
                                0.00      0.00      0.00

     TS-vdW  stress (kbar)      0.00      0.00      0.00
                                0.00      0.00      0.00
                                0.00      0.00      0.00

     MDB     stress (kbar)      0.00      0.00      0.00
                                0.00      0.00      0.00
                                0.00      0.00      0.00

     3D-RISM stress (kbar)      0.00      0.00      0.00
                                0.00      0.00      0.00
                                0.00      0.00      0.00


     Writing all to output data dir ./temp/phl-fe1-fe4-nspin.save/ :
     XML data file, charge density, pseudopotentials, collected wavefunctions

     init_run     :    333.36s CPU    345.82s WALL (       2 calls)
     electrons    : 109271.69s CPU 110035.00s WALL (      18 calls)
     update_pot   :     18.17s CPU     18.63s WALL (      16 calls)
     forces       :   2447.37s CPU   2463.47s WALL (      18 calls)
     force_dftd3  :     45.73s CPU     45.86s WALL (      18 calls)
     stress       :   3842.19s CPU   3903.62s WALL (      18 calls)
     stres_dftd3  :     45.83s CPU     45.98s WALL (      18 calls)

     Called by init_run:
     wfcinit      :    320.07s CPU    331.07s WALL (       2 calls)
     wfcinit:atom :      0.57s CPU      0.59s WALL (      40 calls)
     wfcinit:wfcr :    316.06s CPU    326.86s WALL (      40 calls)
     potinit      :      2.32s CPU      2.41s WALL (       2 calls)
     hinit0       :      1.19s CPU      1.25s WALL (       2 calls)

     Called by electrons:
     c_bands      : 100820.42s CPU 101364.95s WALL (     155 calls)
     sum_band     :   7638.97s CPU   7775.60s WALL (     155 calls)
     v_of_rho     :     49.58s CPU     51.33s WALL (     160 calls)
     v_h          :      5.17s CPU      5.40s WALL (     160 calls)
     v_xc         :     54.25s CPU     56.25s WALL (     196 calls)
     newd         :    707.35s CPU    796.68s WALL (     160 calls)
     PAW_pot      :    110.37s CPU    110.55s WALL (     176 calls)
     mix_rho      :      9.59s CPU      9.88s WALL (     155 calls)
     energy_dftd3 :     35.69s CPU     35.72s WALL (      18 calls)

     Called by c_bands:
     init_us_2    :    291.33s CPU    294.44s WALL (    7280 calls)
     cegterg      : 100533.17s CPU 101072.60s WALL (    3121 calls)

     Called by sum_band:
     sum_band:wei :      0.03s CPU      0.03s WALL (     155 calls)
     sum_band:loo :   6454.63s CPU   6499.56s WALL (     155 calls)
     sum_band:buf :     38.04s CPU     38.91s WALL (    3100 calls)
     sum_band:ini :    128.36s CPU    129.84s WALL (    3100 calls)
     sum_band:cal :   5141.36s CPU   5152.59s WALL (    3420 calls)
     sum_band:bec :      6.18s CPU      6.20s WALL (    3420 calls)
     addusdens    :   1173.55s CPU   1264.57s WALL (     155 calls)
                                        0.00s GPU  (     155 calls)
     addusd:skk   :      7.58s CPU     10.06s WALL (    1085 calls)
                                        0.00s GPU  (    1085 calls)

     Called by *egterg:
     cdiaghg      :   1213.36s CPU   1228.03s WALL (   23623 calls)
     cegterg:over :  13477.08s CPU  13515.59s WALL (   21103 calls)
     cegterg:upda :   7907.98s CPU   7941.69s WALL (   21103 calls)
     cegterg:last :  21817.72s CPU  21878.44s WALL (    9432 calls)
     cdiaghg:chol :     27.92s CPU     28.04s WALL (   23623 calls)
     cdiaghg:inve :     22.97s CPU     23.05s WALL (   23623 calls)
     cdiaghg:para :    455.44s CPU    461.39s WALL (   47246 calls)
     h_psi        :  38266.17s CPU  38565.20s WALL (   24264 calls)
     s_psi        :  15709.09s CPU  15746.68s WALL (   24264 calls)
     g_psi        :     31.22s CPU     31.36s WALL (   21103 calls)

     Called by h_psi:
     h_psi:calbec :  15640.27s CPU  15680.73s WALL (   24264 calls)
     vloc_psi     :   6687.75s CPU   6884.68s WALL (   24264 calls)
     add_vuspsi   :  15851.70s CPU  15888.06s WALL (   24264 calls)

     General routines
     calbec       :  23470.07s CPU  23528.19s WALL (   29484 calls)
     fft          :     46.77s CPU     49.62s WALL (    2523 calls)
     ffts         :      1.23s CPU      1.30s WALL (     315 calls)
     fftw         :   4012.74s CPU   4105.61s WALL ( 3745504 calls)
     interpolate  :      4.61s CPU      4.82s WALL (     160 calls)

     Parallel routines

     PAW routines
     PAW_pot      :    110.37s CPU    110.55s WALL (     176 calls)
     PAW_symme    :      0.08s CPU      0.10s WALL (     331 calls)

     PWSCF        :   1d 8h21m CPU   1d 8h36m WALL


   This run was terminated on:  16:52:48  31Jan2025            

=------------------------------------------------------------------------------=
   JOB DONE.
=------------------------------------------------------------------------------=
