
     Program PWSCF v.7.3.1 starts on 28Jan2025 at 13:48:49 

     This program is part of the open-source Quantum ESPRESSO suite
     for quantum simulation of materials; please cite
         "P. Giannozzi et al., J. Phys.:Condens. Matter 21 395502 (2009);
         "P. Giannozzi et al., J. Phys.:Condens. Matter 29 465901 (2017);
         "P. Giannozzi et al., J. Chem. Phys. 152 154105 (2020);
          URL http://www.quantum-espresso.org", 
     in publications or presentations arising from this work. More details at
     http://www.quantum-espresso.org/quote

     Parallel version (MPI), running on     6 processors

     MPI processes distributed on     1 nodes
     5858 MiB available memory on the printing compute node when the environment starts

     Reading input from relax.in
Warning: card  &CELL ignored
Warning: card    CELL_DOFREE     = 'IBRAV' ignored
Warning: card  / ignored

     Current dimensions of program PWSCF are:
     Max number of different atomic species (ntypx) = 10
     Max number of k-points (npk) =  40000
     Max angular momentum in pseudopotentials (lmaxx) =  4
     file Al.pbe-n-kjpaw_psl.1.0.0.UPF: wavefunction(s)  3S 3P renormalized
     file Fe.pbe-spn-kjpaw_psl.1.0.0.UPF: wavefunction(s)  3P 3D renormalized
     file H.pbe-kjpaw_psl.1.0.0.UPF: wavefunction(s)  1S renormalized
     file K.pbe-spn-kjpaw_psl.1.0.0.UPF: wavefunction(s)  3S renormalized
     file Mg.pbe-spnl-kjpaw_psl.1.0.0.UPF: wavefunction(s)  2P renormalized
     file O.pbe-n-kjpaw_psl.1.0.0.UPF: wavefunction(s)  2S 2P renormalized
     file Si.pbe-n-kjpaw_psl.1.0.0.UPF: wavefunction(s)  3S 3P renormalized

     R & G space division:  proc/nbgrp/npool/nimage =       6
     Subspace diagonalization in iterative solution of the eigenvalue problem:
     one sub-group per band group will be used
     custom distributed-memory algorithm (size of sub-group:  2*  2 procs)


     Parallelization info
     --------------------
     sticks:   dense  smooth     PW     G-vecs:    dense   smooth      PW
     Min        1105     554    150                97744    34578    4918
     Max        1106     555    151                97745    34580    4920
     Sum        6633    3329    905               586467   207475   29511

     Using Slab Decomposition



     bravais-lattice index     =          -12
     lattice parameter (alat)  =      10.0136  a.u.
     unit-cell volume          =    3303.4414 (a.u.)^3
     number of atoms/cell      =           44
     number of atomic types    =            7
     number of electrons       =       262.00
     number of Kohn-Sham states=          157
     kinetic-energy cutoff     =      60.0000  Ry
     charge density cutoff     =     480.0000  Ry
     scf convergence threshold =      1.0E-06
     mixing beta               =       0.7000
     number of iterations used =            8  plain     mixing
     energy convergence thresh.=      1.0E-04
     force convergence thresh. =      1.0E-03
     Exchange-correlation= SLA  PW   PBX  PBC
                           (   1   4   3   4   0   0   0)
     nstep                     =           50


     celldm(1)=  10.013640  celldm(2)=   1.735306  celldm(3)=   1.926511
     celldm(4)=   0.000000  celldm(5)=  -0.177565  celldm(6)=   0.000000

     crystal axes: (cart. coord. in units of alat)
               a(1) = (   1.000000   0.000000   0.000000 )  
               a(2) = (   0.000000   1.735306   0.000000 )  
               a(3) = (  -0.342081   0.000000   1.895896 )  

     reciprocal axes: (cart. coord. in units 2 pi/alat)
               b(1) = (  1.000000 -0.000000  0.180432 )  
               b(2) = (  0.000000  0.576267 -0.000000 )  
               b(3) = (  0.000000  0.000000  0.527455 )  


     PseudoPot. # 1 for Al read from file:
     ./../../../pseudos/Al.pbe-n-kjpaw_psl.1.0.0.UPF
     MD5 check sum: 502b6b27b9c6270cab5dd1084b96fa6d
     Pseudo is Projector augmented-wave + core cor, Zval =  3.0
     Generated using &quot;atomic&quot; code by A. Dal Corso  v.6.3
     Shape of augmentation charge: PSQ
     Using radial grid of 1135 points,  6 beta functions with: 
                l(1) =   0
                l(2) =   0
                l(3) =   1
                l(4) =   1
                l(5) =   2
                l(6) =   2
     Q(r) pseudized with 0 coefficients 


     PseudoPot. # 2 for Fe read from file:
     ./../../../pseudos/Fe.pbe-spn-kjpaw_psl.1.0.0.UPF
     MD5 check sum: fc81f059e5c5069939230b1155715ae8
     Pseudo is Projector augmented-wave + core cor, Zval = 16.0
     Generated using &quot;atomic&quot; code by A. Dal Corso  v.6.3
     Shape of augmentation charge: PSQ
     Using radial grid of 1191 points,  6 beta functions with: 
                l(1) =   0
                l(2) =   0
                l(3) =   1
                l(4) =   1
                l(5) =   2
                l(6) =   2
     Q(r) pseudized with 0 coefficients 


     PseudoPot. # 3 for H  read from file:
     ./../../../pseudos/H.pbe-kjpaw_psl.1.0.0.UPF
     MD5 check sum: d81a744832360e4a8af0b0b5b123bc2a
     Pseudo is Projector augmented-wave, Zval =  1.0
     Generated using &quot;atomic&quot; code by A. Dal Corso  v.6.3MaX
     Shape of augmentation charge: PSQ
     Using radial grid of  929 points,  2 beta functions with: 
                l(1) =   0
                l(2) =   0
     Q(r) pseudized with 0 coefficients 


     PseudoPot. # 4 for K  read from file:
     ./../../../pseudos/K.pbe-spn-kjpaw_psl.1.0.0.UPF
     MD5 check sum: 34cc42130a09071ebe376fd42eb21491
     Pseudo is Projector augmented-wave + core cor, Zval =  9.0
     Generated using &quot;atomic&quot; code by A. Dal Corso  v.6.2.2
     Shape of augmentation charge: PSQ
     Using radial grid of 1165 points,  6 beta functions with: 
                l(1) =   0
                l(2) =   0
                l(3) =   1
                l(4) =   1
                l(5) =   2
                l(6) =   2
     Q(r) pseudized with 0 coefficients 


     PseudoPot. # 5 for Mg read from file:
     ./../../../pseudos/Mg.pbe-spnl-kjpaw_psl.1.0.0.UPF
     MD5 check sum: fda14e0d92a6a9a5ebed782e5a4b3067
     Pseudo is Projector augmented-wave + core cor, Zval = 10.0
     Generated using &quot;atomic&quot; code by A. Dal Corso  v.6.3
     Shape of augmentation charge: PSQ
     Using radial grid of 1129 points,  4 beta functions with: 
                l(1) =   0
                l(2) =   0
                l(3) =   1
                l(4) =   1
     Q(r) pseudized with 0 coefficients 


     PseudoPot. # 6 for O  read from file:
     ./../../../pseudos/O.pbe-n-kjpaw_psl.1.0.0.UPF
     MD5 check sum: e99d9cef9b487d1ca56f5b95ecd0fd7a
     Pseudo is Projector augmented-wave + core cor, Zval =  6.0
     Generated using &quot;atomic&quot; code by A. Dal Corso  v.6.3
     Shape of augmentation charge: PSQ
     Using radial grid of 1095 points,  4 beta functions with: 
                l(1) =   0
                l(2) =   0
                l(3) =   1
                l(4) =   1
     Q(r) pseudized with 0 coefficients 


     PseudoPot. # 7 for Si read from file:
     ./../../../pseudos/Si.pbe-n-kjpaw_psl.1.0.0.UPF
     MD5 check sum: c39c59da582df4a0d9f10159256ea34e
     Pseudo is Projector augmented-wave + core cor, Zval =  4.0
     Generated using &quot;atomic&quot; code by A. Dal Corso  v.6.3
     Shape of augmentation charge: PSQ
     Using radial grid of 1141 points,  6 beta functions with: 
                l(1) =   0
                l(2) =   0
                l(3) =   1
                l(4) =   1
                l(5) =   2
                l(6) =   2
     Q(r) pseudized with 0 coefficients 


     atomic species   valence    mass     pseudopotential
     Al                3.00    26.98154     Al( 1.00)
     Fe               16.00    55.84500     Fe( 1.00)
     H                 1.00     1.00794     H ( 1.00)
     K                 9.00    39.09830     K ( 1.00)
     Mg               10.00    24.30500     Mg( 1.00)
     O                 6.00    15.99940     O ( 1.00)
     Si                4.00    28.08550     Si( 1.00)

      2 Sym. Ops. (no inversion) found


                                    s                        frac. trans.

      isym =  1     identity                                     

 cryst.   s( 1) = (     1          0          0      )
                  (     0          1          0      )
                  (     0          0          1      )

 cart.    s( 1) = (  1.0000000  0.0000000 -0.0000000 )
                  (  0.0000000  1.0000000  0.0000000 )
                  (  0.0000000  0.0000000  1.0000000 )


      isym =  2     180 deg rotation - cart. axis [0,1,0]        

 cryst.   s( 2) = (    -1          0          0      )
                  (     0          1          0      )
                  (     0          0         -1      )

 cart.    s( 2) = ( -1.0000000  0.0000000  0.0000000 )
                  (  0.0000000  1.0000000  0.0000000 )
                  (  0.0000000  0.0000000 -1.0000000 )


     point group C_2  (2)   
     there are  2 classes
     the character table:

       E     C2   
A      1.00  1.00
B      1.00 -1.00

     the symmetry operations in each class and the name of the first element:

     E        1
          identity                                               
     C2       2
          180 deg rotation - cart. axis [0,1,0]                  

   Cartesian axes

     site n.     atom                  positions (alat units)
         1        K      tau(   1) = (   0.0000000   0.8559224   0.0000000  )
         2        K      tau(   2) = (   0.5000000   0.0093568   0.0000000  )
         3        Mg     tau(   3) = (  -0.1710407   0.0067712   0.9479482  )
         4        Mg     tau(   4) = (  -0.1710407   0.5780843   0.9479482  )
         5        Mg     tau(   5) = (  -0.1710407   1.1543881   0.9479482  )
         6        Mg     tau(   6) = (   0.3289593   1.4480089   0.9479482  )
         7        Mg     tau(   7) = (   0.3289593   0.2986375   0.9479482  )
         8        Si     tau(   8) = (   0.0066674   0.2865251   0.4219393  )
         9        Si     tau(   9) = (   0.6512512   0.2865251   1.4739571  )
        10        Si     tau(  10) = (   0.6701371   1.4476688   1.4628623  )
        11        Si     tau(  11) = (  -0.0122184   1.4476688   0.4330341  )
        12        Si     tau(  12) = (   0.4872056   1.1568454   0.4292651  )
        13        Si     tau(  13) = (   0.1707131   1.1568454   1.4666313  )
        14        Al     tau(  14) = (   0.1506005   0.5746762   1.4713786  )
        15        Al     tau(  15) = (   0.5073182   0.5746762   0.4245178  )
        16        O      tau(  16) = (  -0.0043508   0.2833738   0.7297400  )
        17        O      tau(  17) = (   0.6622695   0.2833738   1.1661564  )
        18        O      tau(  18) = (   0.6658139   1.4451231   1.1576912  )
        19        O      tau(  19) = (  -0.0078952   1.4451231   0.7382052  )
        20        O      tau(  20) = (   0.4926234   1.1618863   0.7357690  )
        21        O      tau(  21) = (   0.1652953   1.1618863   1.1601274  )
        22        O      tau(  22) = (   0.1548298   0.5779784   1.1454267  )
        23        O      tau(  23) = (   0.5030889   0.5779784   0.7504697  )
        24        O      tau(  24) = (   0.2847398   0.3548857   0.3143567  )
        25        O      tau(  25) = (   0.3731789   0.3548857   1.5815397  )
        26        O      tau(  26) = (   0.9404978   1.7303189   0.3181314  )
        27        O      tau(  27) = (  -0.2825791   1.7303189   1.5777650  )
        28        O      tau(  28) = (   0.3988927   1.3439356   1.5754330  )
        29        O      tau(  29) = (   0.2590260   1.3439356   0.3204634  )
        30        O      tau(  30) = (   0.7582660   1.2710892   0.3185125  )
        31        O      tau(  31) = (  -0.1003473   1.2710892   1.5773839  )
        32        O      tau(  32) = (   0.4432368   0.8811364   0.3085875  )
        33        O      tau(  33) = (   0.2146819   0.8811364   1.5873090  )
        34        O      tau(  34) = (  -0.1423236   0.4782556   1.5925436  )
        35        O      tau(  35) = (   0.8002423   0.4782556   0.3033529  )
        36        O      tau(  36) = (  -0.0041068   0.8750247   0.7469263  )
        37        O      tau(  37) = (   0.6620255   0.8750247   1.1489701  )
        38        O      tau(  38) = (   0.4966158   1.7335917   0.7534577  )
        39        O      tau(  39) = (   0.1613029   1.7335917   1.1424387  )
        40        H      tau(  40) = (  -0.0032097   0.8603995   0.5673129  )
        41        H      tau(  41) = (   0.6611284   0.8603995   1.3285835  )
        42        H      tau(  42) = (   0.4926802   0.0219534   0.5746291  )
        43        H      tau(  43) = (   0.1652385   0.0219534   1.3212673  )
        44        Fe     tau(  44) = (   0.3289593   0.8562226   0.9479482  )

     --------------------------------------------
     DFT-D3 Dispersion Correction (3-body terms):
     --------------------------------------------
       Reference C6 values for interpolation: 

         atom   Coordination number   C6
         H          0.912             6.05
         H          0.000            15.18
         O          0.000            31.01
         O          0.993            25.63
         O          1.989            20.74
         Mg         0.000          1366.75
         Mg         0.963           902.54
         Mg         1.950           351.12
         Al         0.000          1081.08
         Al         0.965           875.51
         Al         1.931           513.50
         Al         2.915           307.19
         Si         0.000           635.71
         Si         0.951           540.53
         Si         1.944           466.25
         Si         2.941           443.01
         Si         3.868           299.55
         K          0.000          9967.00
         K          0.977           676.04
         Fe         0.000           982.67
         Fe         1.648           409.99
         Fe         9.138           219.01

       Values used:

         atom   Coordination number  R0_AB[au]  C6      C8
         K         13.591            4.007    676.04 129074.98
         K         13.829            4.007    676.04 129074.98
         Mg        11.856            3.292    351.12  31436.69
         Mg        11.610            3.292    351.12  31436.69
         Mg        11.152            3.292    351.12  31436.69
         Mg        11.428            3.292    351.12  31436.69
         Mg        11.977            3.292    351.12  31436.69
         Si         6.964            3.583    299.55  21425.58
         Si         6.964            3.583    299.55  21425.58
         Si         6.542            3.583    299.55  21425.58
         Si         6.542            3.583    299.55  21425.58
         Si         6.428            3.583    299.55  21425.58
         Si         6.428            3.583    299.55  21425.58
         Al         7.632            3.789    307.19  29441.29
         Al         7.632            3.789    307.19  29441.29
         O          3.926            2.345     20.74    418.58
         O          3.926            2.345     20.74    418.58
         O          3.926            2.345     20.74    418.58
         O          3.926            2.345     20.74    418.58
         O          3.612            2.345     20.74    418.58
         O          3.612            2.345     20.74    418.58
         O          3.839            2.345     20.74    418.58
         O          3.839            2.345     20.74    418.58
         O          3.191            2.345     20.74    418.58
         O          3.191            2.345     20.74    418.58
         O          3.154            2.345     20.74    418.58
         O          3.154            2.345     20.74    418.58
         O          3.055            2.345     20.74    418.58
         O          3.055            2.345     20.74    418.58
         O          3.059            2.345     20.74    418.58
         O          3.059            2.345     20.74    418.58
         O          3.181            2.345     20.74    418.58
         O          3.181            2.345     20.74    418.58
         O          3.263            2.345     20.74    418.58
         O          3.263            2.345     20.74    418.58
         O          3.812            2.345     20.74    418.58
         O          3.812            2.345     20.74    418.58
         O          4.003            2.345     20.74    418.58
         O          4.003            2.345     20.74    418.58
         H          1.299            2.062      6.07     73.35
         H          1.299            2.062      6.07     73.35
         H          1.300            2.062      6.07     73.35
         H          1.300            2.062      6.07     73.35
         Fe         7.971            3.252    219.01  20487.87

         Molecular C6 ( Ry / a.u.^6 ) =    165305.20


   Crystallographic axes

     site n.     atom                  positions (cryst. coord.)
         1        K      tau(   1) = (  0.0000000  0.4932400  0.0000000  )
         2        K      tau(   2) = (  0.5000000  0.0053920  0.0000000  )
         3        Mg     tau(   3) = (  0.0000000  0.0039020  0.5000000  )
         4        Mg     tau(   4) = (  0.0000000  0.3331310  0.5000000  )
         5        Mg     tau(   5) = (  0.0000000  0.6652360  0.5000000  )
         6        Mg     tau(   6) = (  0.5000000  0.8344400  0.5000000  )
         7        Mg     tau(   7) = (  0.5000000  0.1720950  0.5000000  )
         8        Si     tau(   8) = (  0.0827990  0.1651150  0.2225540  )
         9        Si     tau(   9) = (  0.9172010  0.1651150  0.7774460  )
        10        Si     tau(  10) = (  0.9340850  0.8342440  0.7715940  )
        11        Si     tau(  11) = (  0.0659150  0.8342440  0.2284060  )
        12        Si     tau(  12) = (  0.5646590  0.6666520  0.2264180  )
        13        Si     tau(  13) = (  0.4353410  0.6666520  0.7735820  )
        14        Al     tau(  14) = (  0.4160850  0.3311670  0.7760860  )
        15        Al     tau(  15) = (  0.5839150  0.3311670  0.2239140  )
        16        O      tau(  16) = (  0.1273180  0.1632990  0.3849050  )
        17        O      tau(  17) = (  0.8726820  0.1632990  0.6150950  )
        18        O      tau(  18) = (  0.8746990  0.8327770  0.6106300  )
        19        O      tau(  19) = (  0.1253010  0.8327770  0.3893700  )
        20        O      tau(  20) = (  0.6253800  0.6695570  0.3880850  )
        21        O      tau(  21) = (  0.3746200  0.6695570  0.6119150  )
        22        O      tau(  22) = (  0.3615020  0.3330700  0.6041610  )
        23        O      tau(  23) = (  0.6384980  0.3330700  0.3958390  )
        24        O      tau(  24) = (  0.3414600  0.2045090  0.1658090  )
        25        O      tau(  25) = (  0.6585400  0.2045090  0.8341910  )
        26        O      tau(  26) = (  0.9978990  0.9971260  0.1678000  )
        27        O      tau(  27) = (  0.0021010  0.9971260  0.8322000  )
        28        O      tau(  28) = (  0.6831520  0.7744660  0.8309700  )
        29        O      tau(  29) = (  0.3168480  0.7744660  0.1690300  )
        30        O      tau(  30) = (  0.8157360  0.7324870  0.1680010  )
        31        O      tau(  31) = (  0.1842640  0.7324870  0.8319990  )
        32        O      tau(  32) = (  0.4989160  0.5077700  0.1627660  )
        33        O      tau(  33) = (  0.5010840  0.5077700  0.8372340  )
        34        O      tau(  34) = (  0.1450230  0.2756030  0.8399950  )
        35        O      tau(  35) = (  0.8549770  0.2756030  0.1600050  )
        36        O      tau(  36) = (  0.1306630  0.5042480  0.3939700  )
        37        O      tau(  37) = (  0.8693370  0.5042480  0.6060300  )
        38        O      tau(  38) = (  0.6325640  0.9990120  0.3974150  )
        39        O      tau(  39) = (  0.3674360  0.9990120  0.6025850  )
        40        H      tau(  40) = (  0.0991520  0.4958200  0.2992320  )
        41        H      tau(  41) = (  0.9008480  0.4958200  0.7007680  )
        42        H      tau(  42) = (  0.5963620  0.0126510  0.3030910  )
        43        H      tau(  43) = (  0.4036380  0.0126510  0.6969090  )
        44        Fe     tau(  44) = (  0.5000000  0.4934130  0.5000000  )

     number of k points=    20  Gaussian smearing, width (Ry)=  0.0010
                       cart. coord. in units 2pi/alat
        k(    1) = (   0.0000000   0.0000000   0.0000000), wk =   0.0370370
        k(    2) = (   0.0000000   0.0000000   0.1758183), wk =   0.0740741
        k(    3) = (   0.0000000   0.1920891   0.0000000), wk =   0.0740741
        k(    4) = (   0.0000000   0.1920891   0.1758183), wk =   0.1481481
        k(    5) = (   0.1666667   0.0000000   0.0300721), wk =   0.0740741
        k(    6) = (   0.1666667   0.0000000   0.2058904), wk =   0.0740741
        k(    7) = (   0.1666667   0.0000000  -0.1457462), wk =   0.0740741
        k(    8) = (   0.1666667   0.1920891   0.0300721), wk =   0.1481481
        k(    9) = (   0.1666667   0.1920891   0.2058904), wk =   0.1481481
        k(   10) = (   0.1666667   0.1920891  -0.1457462), wk =   0.1481481
        k(   11) = (   0.3333333   0.0000000   0.0601442), wk =   0.0740741
        k(   12) = (   0.3333333   0.0000000   0.2359625), wk =   0.0740741
        k(   13) = (   0.3333333   0.0000000  -0.1156742), wk =   0.0740741
        k(   14) = (   0.3333333   0.1920891   0.0601442), wk =   0.1481481
        k(   15) = (   0.3333333   0.1920891   0.2359625), wk =   0.1481481
        k(   16) = (   0.3333333   0.1920891  -0.1156742), wk =   0.1481481
        k(   17) = (  -0.5000000   0.0000000  -0.0902162), wk =   0.0370370
        k(   18) = (  -0.5000000   0.0000000   0.0856021), wk =   0.0740741
        k(   19) = (  -0.5000000   0.1920891  -0.0902162), wk =   0.0740741
        k(   20) = (  -0.5000000   0.1920891   0.0856021), wk =   0.1481481

                       cryst. coord.
        k(    1) = (   0.0000000   0.0000000   0.0000000), wk =   0.0370370
        k(    2) = (   0.0000000   0.0000000   0.3333333), wk =   0.0740741
        k(    3) = (   0.0000000   0.3333333   0.0000000), wk =   0.0740741
        k(    4) = (   0.0000000   0.3333333   0.3333333), wk =   0.1481481
        k(    5) = (   0.1666667   0.0000000  -0.0000000), wk =   0.0740741
        k(    6) = (   0.1666667   0.0000000   0.3333333), wk =   0.0740741
        k(    7) = (   0.1666667   0.0000000  -0.3333333), wk =   0.0740741
        k(    8) = (   0.1666667   0.3333333  -0.0000000), wk =   0.1481481
        k(    9) = (   0.1666667   0.3333333   0.3333333), wk =   0.1481481
        k(   10) = (   0.1666667   0.3333333  -0.3333333), wk =   0.1481481
        k(   11) = (   0.3333333   0.0000000  -0.0000000), wk =   0.0740741
        k(   12) = (   0.3333333   0.0000000   0.3333333), wk =   0.0740741
        k(   13) = (   0.3333333   0.0000000  -0.3333333), wk =   0.0740741
        k(   14) = (   0.3333333   0.3333333  -0.0000000), wk =   0.1481481
        k(   15) = (   0.3333333   0.3333333   0.3333333), wk =   0.1481481
        k(   16) = (   0.3333333   0.3333333  -0.3333333), wk =   0.1481481
        k(   17) = (  -0.5000000   0.0000000   0.0000000), wk =   0.0370370
        k(   18) = (  -0.5000000   0.0000000   0.3333333), wk =   0.0740741
        k(   19) = (  -0.5000000   0.3333333   0.0000000), wk =   0.0740741
        k(   20) = (  -0.5000000   0.3333333   0.3333333), wk =   0.1481481

     Dense  grid:   586467 G-vectors     FFT dimensions: (  72, 125, 135)

     Smooth grid:   207475 G-vectors     FFT dimensions: (  50,  90,  96)

     Dynamical RAM for                 wfc:      10.35 MB

     Dynamical RAM for     wfc (w. buffer):     217.38 MB

     Dynamical RAM for           str. fact:      10.44 MB

     Dynamical RAM for           local pot:       0.00 MB

     Dynamical RAM for          nlocal pot:      28.88 MB

     Dynamical RAM for                qrad:      12.30 MB

     Dynamical RAM for          rho,v,vnew:       9.21 MB

     Dynamical RAM for               rhoin:       3.07 MB

     Dynamical RAM for            rho*nmix:      23.86 MB

     Dynamical RAM for           G-vectors:       5.86 MB

     Dynamical RAM for          h,s,v(r/c):       1.13 MB

     Dynamical RAM for          <psi|beta>:       1.05 MB

     Dynamical RAM for                 psi:      20.70 MB

     Dynamical RAM for                hpsi:      20.70 MB

     Dynamical RAM for                spsi:      20.70 MB

     Dynamical RAM for      wfcinit/wfcrot:      24.90 MB

     Dynamical RAM for           addusdens:     313.21 MB

     Dynamical RAM for          addusforce:     382.66 MB

     Estimated static dynamical RAM per process >     306.97 MB

     Estimated max dynamical RAM per process >     713.49 MB

     Estimated total dynamical RAM >       4.18 GB

     Check: negative core charge=   -0.000004

     Initial potential from superposition of free atoms

     starting charge     261.9493, renormalised to     262.0000
     Starting wfcs are  183 randomized atomic wfcs
     Checking if some PAW data can be deallocated... 
       PAW data deallocated on    5 nodes for type:  1
       PAW data deallocated on    5 nodes for type:  2
       PAW data deallocated on    5 nodes for type:  3
       PAW data deallocated on    5 nodes for type:  4
       PAW data deallocated on    5 nodes for type:  5
       PAW data deallocated on    1 nodes for type:  6
       PAW data deallocated on    4 nodes for type:  7

     total cpu time spent up to now is      172.4 secs

     Self-consistent Calculation

     iteration #  1     ecut=    60.00 Ry     beta= 0.70
     Davidson diagonalization with overlap

---- Real-time Memory Report at c_bands before calling an iterative solver
           390 MiB given to the printing process from OS
             0 MiB allocation reported by mallinfo(arena+hblkhd)
          3777 MiB available memory on the node where the printing process lives
------------------
     ethr =  1.00E-02,  avg # of iterations =  5.9

     total cpu time spent up to now is      723.7 secs

     total energy              =   -2623.79938475 Ry
     estimated scf accuracy    <      12.25639814 Ry

     iteration #  2     ecut=    60.00 Ry     beta= 0.70
     Davidson diagonalization with overlap

---- Real-time Memory Report at c_bands before calling an iterative solver
           648 MiB given to the printing process from OS
             0 MiB allocation reported by mallinfo(arena+hblkhd)
          3610 MiB available memory on the node where the printing process lives
------------------
     ethr =  4.68E-03,  avg # of iterations =  5.3

     total cpu time spent up to now is     1595.4 secs

     total energy              =   -2629.00228331 Ry
     estimated scf accuracy    <      11.74810975 Ry

     iteration #  3     ecut=    60.00 Ry     beta= 0.70
     Davidson diagonalization with overlap

---- Real-time Memory Report at c_bands before calling an iterative solver
           650 MiB given to the printing process from OS
             0 MiB allocation reported by mallinfo(arena+hblkhd)
          3425 MiB available memory on the node where the printing process lives
------------------
     ethr =  4.48E-03,  avg # of iterations =  2.0

     total cpu time spent up to now is     2037.6 secs

     total energy              =   -2629.35944683 Ry
     estimated scf accuracy    <      10.74741994 Ry

     iteration #  4     ecut=    60.00 Ry     beta= 0.70
     Davidson diagonalization with overlap

---- Real-time Memory Report at c_bands before calling an iterative solver
           651 MiB given to the printing process from OS
             0 MiB allocation reported by mallinfo(arena+hblkhd)
          3446 MiB available memory on the node where the printing process lives
------------------
     ethr =  4.10E-03,  avg # of iterations =  2.0

     total cpu time spent up to now is     2477.5 secs

     total energy              =   -2630.39595508 Ry
     estimated scf accuracy    <       0.97135950 Ry

     iteration #  5     ecut=    60.00 Ry     beta= 0.70
     Davidson diagonalization with overlap

---- Real-time Memory Report at c_bands before calling an iterative solver
           652 MiB given to the printing process from OS
             0 MiB allocation reported by mallinfo(arena+hblkhd)
          3371 MiB available memory on the node where the printing process lives
------------------
     c_bands:  1 eigenvalues not converged
     ethr =  3.71E-04,  avg # of iterations =  9.4

     total cpu time spent up to now is     3389.9 secs

     total energy              =   -2631.17180339 Ry
     estimated scf accuracy    <       0.17709941 Ry

     iteration #  6     ecut=    60.00 Ry     beta= 0.70
     Davidson diagonalization with overlap

---- Real-time Memory Report at c_bands before calling an iterative solver
           653 MiB given to the printing process from OS
             0 MiB allocation reported by mallinfo(arena+hblkhd)
          3262 MiB available memory on the node where the printing process lives
------------------
     c_bands:  1 eigenvalues not converged
     c_bands:  1 eigenvalues not converged
     c_bands:  3 eigenvalues not converged
     ethr =  6.76E-05,  avg # of iterations = 16.1

     total cpu time spent up to now is     4045.8 secs

     total energy              =   -2631.18066659 Ry
     estimated scf accuracy    <       0.07142616 Ry

     iteration #  7     ecut=    60.00 Ry     beta= 0.70
     Davidson diagonalization with overlap

---- Real-time Memory Report at c_bands before calling an iterative solver
           654 MiB given to the printing process from OS
             0 MiB allocation reported by mallinfo(arena+hblkhd)
          3263 MiB available memory on the node where the printing process lives
------------------
     c_bands:  1 eigenvalues not converged
     c_bands:  3 eigenvalues not converged
     ethr =  2.73E-05,  avg # of iterations =  7.3

     total cpu time spent up to now is     4583.0 secs

     total energy              =   -2631.18531963 Ry
     estimated scf accuracy    <       0.03311542 Ry

     iteration #  8     ecut=    60.00 Ry     beta= 0.70
     Davidson diagonalization with overlap

---- Real-time Memory Report at c_bands before calling an iterative solver
           655 MiB given to the printing process from OS
             0 MiB allocation reported by mallinfo(arena+hblkhd)
          3250 MiB available memory on the node where the printing process lives
------------------
     c_bands:  1 eigenvalues not converged
     c_bands:  1 eigenvalues not converged
     c_bands:  1 eigenvalues not converged
     c_bands:  1 eigenvalues not converged
     c_bands:  1 eigenvalues not converged
     c_bands:  1 eigenvalues not converged
     ethr =  1.26E-05,  avg # of iterations = 10.6

     total cpu time spent up to now is     5110.4 secs

     total energy              =   -2631.18696362 Ry
     estimated scf accuracy    <       0.01628047 Ry

     iteration #  9     ecut=    60.00 Ry     beta= 0.70
     Davidson diagonalization with overlap

---- Real-time Memory Report at c_bands before calling an iterative solver
           657 MiB given to the printing process from OS
             0 MiB allocation reported by mallinfo(arena+hblkhd)
          3242 MiB available memory on the node where the printing process lives
------------------
     c_bands:  1 eigenvalues not converged
     c_bands:  1 eigenvalues not converged
     c_bands:  1 eigenvalues not converged
     c_bands:  1 eigenvalues not converged
     c_bands:  1 eigenvalues not converged
     ethr =  6.21E-06,  avg # of iterations = 14.3

     total cpu time spent up to now is     5714.1 secs

     total energy              =   -2631.18923857 Ry
     estimated scf accuracy    <       0.00920259 Ry

     iteration # 10     ecut=    60.00 Ry     beta= 0.70
     Davidson diagonalization with overlap

---- Real-time Memory Report at c_bands before calling an iterative solver
           658 MiB given to the printing process from OS
             0 MiB allocation reported by mallinfo(arena+hblkhd)
          3233 MiB available memory on the node where the printing process lives
------------------
     c_bands:  2 eigenvalues not converged
     c_bands:  2 eigenvalues not converged
     ethr =  3.51E-06,  avg # of iterations =  5.9

     total cpu time spent up to now is     6205.9 secs

     total energy              =   -2631.18887895 Ry
     estimated scf accuracy    <       0.00715498 Ry

     iteration # 11     ecut=    60.00 Ry     beta= 0.70
     Davidson diagonalization with overlap

---- Real-time Memory Report at c_bands before calling an iterative solver
           658 MiB given to the printing process from OS
             0 MiB allocation reported by mallinfo(arena+hblkhd)
          3237 MiB available memory on the node where the printing process lives
------------------
     ethr =  2.73E-06,  avg # of iterations =  3.3

     total cpu time spent up to now is     6658.2 secs

     total energy              =   -2631.18874738 Ry
     estimated scf accuracy    <       0.00311905 Ry

     iteration # 12     ecut=    60.00 Ry     beta= 0.70
     Davidson diagonalization with overlap

---- Real-time Memory Report at c_bands before calling an iterative solver
           658 MiB given to the printing process from OS
             0 MiB allocation reported by mallinfo(arena+hblkhd)
          3224 MiB available memory on the node where the printing process lives
------------------
     c_bands:  1 eigenvalues not converged
     ethr =  1.19E-06,  avg # of iterations =  7.3

     total cpu time spent up to now is     7179.5 secs

     total energy              =   -2631.18882049 Ry
     estimated scf accuracy    <       0.00102948 Ry

     iteration # 13     ecut=    60.00 Ry     beta= 0.70
     Davidson diagonalization with overlap

---- Real-time Memory Report at c_bands before calling an iterative solver
           658 MiB given to the printing process from OS
             0 MiB allocation reported by mallinfo(arena+hblkhd)
          3235 MiB available memory on the node where the printing process lives
------------------
     ethr =  3.93E-07,  avg # of iterations =  9.6

     total cpu time spent up to now is     7817.8 secs

     total energy              =   -2631.18915673 Ry
     estimated scf accuracy    <       0.00018139 Ry

     iteration # 14     ecut=    60.00 Ry     beta= 0.70
     Davidson diagonalization with overlap

---- Real-time Memory Report at c_bands before calling an iterative solver
           658 MiB given to the printing process from OS
             0 MiB allocation reported by mallinfo(arena+hblkhd)
          2600 MiB available memory on the node where the printing process lives
------------------
     c_bands:  1 eigenvalues not converged
     ethr =  6.92E-08,  avg # of iterations =  7.7

     total cpu time spent up to now is     8448.4 secs

     total energy              =   -2631.18919988 Ry
     estimated scf accuracy    <       0.00004613 Ry

     iteration # 15     ecut=    60.00 Ry     beta= 0.70
     Davidson diagonalization with overlap

---- Real-time Memory Report at c_bands before calling an iterative solver
           658 MiB given to the printing process from OS
             0 MiB allocation reported by mallinfo(arena+hblkhd)
          2028 MiB available memory on the node where the printing process lives
------------------
     ethr =  1.76E-08,  avg # of iterations =  5.1

     total cpu time spent up to now is     9144.1 secs

     total energy              =   -2631.18921713 Ry
     estimated scf accuracy    <       0.00000250 Ry

     iteration # 16     ecut=    60.00 Ry     beta= 0.70
     Davidson diagonalization with overlap

---- Real-time Memory Report at c_bands before calling an iterative solver
           658 MiB given to the printing process from OS
             0 MiB allocation reported by mallinfo(arena+hblkhd)
          2002 MiB available memory on the node where the printing process lives
------------------
     ethr =  9.54E-10,  avg # of iterations = 10.2

     total cpu time spent up to now is    10607.1 secs

     total energy              =   -2631.18922296 Ry
     estimated scf accuracy    <       0.00000799 Ry

     iteration # 17     ecut=    60.00 Ry     beta= 0.70
     Davidson diagonalization with overlap

---- Real-time Memory Report at c_bands before calling an iterative solver
           658 MiB given to the printing process from OS
             0 MiB allocation reported by mallinfo(arena+hblkhd)
          2655 MiB available memory on the node where the printing process lives
------------------
     ethr =  9.54E-10,  avg # of iterations =  2.0

     total cpu time spent up to now is    11038.2 secs

     total energy              =   -2631.18922124 Ry
     estimated scf accuracy    <       0.00000376 Ry

     iteration # 18     ecut=    60.00 Ry     beta= 0.70
     Davidson diagonalization with overlap

---- Real-time Memory Report at c_bands before calling an iterative solver
           658 MiB given to the printing process from OS
             0 MiB allocation reported by mallinfo(arena+hblkhd)
          2652 MiB available memory on the node where the printing process lives
------------------
     ethr =  9.54E-10,  avg # of iterations =  5.0

     total cpu time spent up to now is    11710.8 secs

     End of self-consistent calculation

          k = 0.0000 0.0000 0.0000 ( 25927 PWs)   bands (ev):

   -78.1853 -67.4941 -67.4570 -67.4321 -66.9849 -66.9609 -44.3376 -44.3081
   -44.2368 -34.2678 -34.2397 -34.2380 -34.2150 -34.2142 -34.1976 -34.1921
   -34.1910 -34.1664 -33.7591 -33.7341 -33.7337 -33.7229 -33.7229 -33.6794
   -23.0724 -23.0288 -15.0891 -15.0368 -14.1647 -14.1195 -13.6329 -13.6096
   -13.4137 -13.2965 -13.2607 -13.1158 -12.9079 -12.8698 -12.8240 -12.8058
   -12.7436 -12.6157 -12.4403 -12.3695 -12.3260 -12.2972 -12.2268 -12.0868
   -11.2059 -10.9829  -6.6411  -6.5951  -6.5652  -6.5567  -6.5101  -6.5007
    -4.2895  -4.2325  -2.4430  -2.3466  -1.7937  -1.3542  -1.1710  -1.1531
    -1.0944  -1.0191  -0.6521  -0.5729  -0.4336  -0.3564  -0.3408  -0.1485
     0.0453   0.1263   0.2716   0.4759   0.5606   0.5872   0.7080   0.9020
     0.9280   1.1610   1.2736   1.3262   1.3865   1.5508   1.5848   1.6519
     1.8249   1.8587   1.9616   2.0671   2.0848   2.2008   2.2612   2.3446
     2.4038   2.4585   2.5940   2.6365   2.7085   2.7771   2.8052   2.8359
     2.9059   3.0357   3.0532   3.1237   3.2164   3.2401   3.3300   3.3353
     3.4542   3.4611   3.4803   3.5656   3.6009   3.6709   3.8246   3.8302
     3.8519   3.9239   3.9472   3.9621   3.9685   4.2161   4.4210   4.4937
     7.9995   8.0820   8.1793   9.1406   9.4032   9.4497  10.6515  11.3121
    11.6045  11.9344  12.1292  12.2735  12.5899  12.6940  13.0461  13.0561
    13.1320  13.3207  13.3418  13.5596  13.6546  13.7053  13.8523  13.8564
    13.8626  14.0882  14.2026  14.2518  14.3757

     occupation numbers 
     1.0000   1.0000   1.0000   1.0000   1.0000   1.0000   1.0000   1.0000
     1.0000   1.0000   1.0000   1.0000   1.0000   1.0000   1.0000   1.0000
     1.0000   1.0000   1.0000   1.0000   1.0000   1.0000   1.0000   1.0000
     1.0000   1.0000   1.0000   1.0000   1.0000   1.0000   1.0000   1.0000
     1.0000   1.0000   1.0000   1.0000   1.0000   1.0000   1.0000   1.0000
     1.0000   1.0000   1.0000   1.0000   1.0000   1.0000   1.0000   1.0000
     1.0000   1.0000   1.0000   1.0000   1.0000   1.0000   1.0000   1.0000
     1.0000   1.0000   1.0000   1.0000   1.0000   1.0000   1.0000   1.0000
     1.0000   1.0000   1.0000   1.0000   1.0000   1.0000   1.0000   1.0000
     1.0000   1.0000   1.0000   1.0000   1.0000   1.0000   1.0000   1.0000
     1.0000   1.0000   1.0000   1.0000   1.0000   1.0000   1.0000   1.0000
     1.0000   1.0000   1.0000   1.0000   1.0000   1.0000   1.0000   1.0000
     1.0000   1.0000   1.0000   1.0000   1.0000   1.0000   1.0000   1.0000
     1.0000   1.0000   1.0000   1.0000   1.0000   1.0000   1.0000   1.0000
     1.0000   1.0000   1.0000   1.0000   1.0000   1.0000   1.0000   1.0000
     1.0000   1.0000   1.0000   1.0000   1.0000   1.0000   1.0000   1.0000
     1.0000   1.0000   1.0000   0.0000   0.0000   0.0000   0.0000   0.0000
     0.0000   0.0000   0.0000   0.0000   0.0000   0.0000   0.0000   0.0000
     0.0000   0.0000   0.0000   0.0000   0.0000   0.0000   0.0000   0.0000
     0.0000   0.0000   0.0000   0.0000   0.0000

          k = 0.0000 0.0000 0.1758 ( 25971 PWs)   bands (ev):

   -78.1853 -67.4941 -67.4570 -67.4321 -66.9849 -66.9609 -44.3376 -44.3082
   -44.2368 -34.2678 -34.2398 -34.2380 -34.2150 -34.2142 -34.1976 -34.1921
   -34.1911 -34.1665 -33.7591 -33.7341 -33.7337 -33.7229 -33.7229 -33.6795
   -23.0724 -23.0288 -15.0764 -15.0502 -14.1540 -14.1307 -13.6335 -13.6090
   -13.4025 -13.3171 -13.2532 -13.1112 -12.9083 -12.8712 -12.8250 -12.8068
   -12.7377 -12.6201 -12.4329 -12.3764 -12.3280 -12.2946 -12.2203 -12.0934
   -11.2055 -10.9836  -6.6411  -6.5952  -6.5652  -6.5567  -6.5100  -6.5007
    -4.2864  -4.2361  -2.4207  -2.3726  -1.7626  -1.3420  -1.1807  -1.1358
    -1.0906  -1.0399  -0.6242  -0.5855  -0.4631  -0.3507  -0.3324  -0.2480
     0.0804   0.1472   0.2146   0.4311   0.5526   0.5570   0.7339   0.9269
     0.9693   1.2071   1.2426   1.3233   1.4464   1.4848   1.5923   1.7289
     1.8601   1.8841   2.0307   2.0798   2.1338   2.1891   2.2754   2.3378
     2.3694   2.4152   2.5978   2.6260   2.6691   2.7069   2.7932   2.8373
     2.8467   3.0794   3.0899   3.1261   3.1414   3.2301   3.3244   3.3717
     3.4070   3.4468   3.4863   3.5945   3.6388   3.7375   3.7958   3.8025
     3.8460   3.8893   3.9189   3.9635   3.9749   4.2551   4.4170   4.4976
     8.0016   8.0816   8.1782   9.3897   9.4043   9.5007  10.1880  11.3582
    11.6618  11.8282  12.1521  12.1958  12.6990  12.9136  13.0069  13.1396
    13.2498  13.2765  13.3612  13.5025  13.5527  13.7041  13.8089  13.8331
    13.9414  14.0454  14.1765  14.2741  14.2913

     occupation numbers 
     1.0000   1.0000   1.0000   1.0000   1.0000   1.0000   1.0000   1.0000
     1.0000   1.0000   1.0000   1.0000   1.0000   1.0000   1.0000   1.0000
     1.0000   1.0000   1.0000   1.0000   1.0000   1.0000   1.0000   1.0000
     1.0000   1.0000   1.0000   1.0000   1.0000   1.0000   1.0000   1.0000
     1.0000   1.0000   1.0000   1.0000   1.0000   1.0000   1.0000   1.0000
     1.0000   1.0000   1.0000   1.0000   1.0000   1.0000   1.0000   1.0000
     1.0000   1.0000   1.0000   1.0000   1.0000   1.0000   1.0000   1.0000
     1.0000   1.0000   1.0000   1.0000   1.0000   1.0000   1.0000   1.0000
     1.0000   1.0000   1.0000   1.0000   1.0000   1.0000   1.0000   1.0000
     1.0000   1.0000   1.0000   1.0000   1.0000   1.0000   1.0000   1.0000
     1.0000   1.0000   1.0000   1.0000   1.0000   1.0000   1.0000   1.0000
     1.0000   1.0000   1.0000   1.0000   1.0000   1.0000   1.0000   1.0000
     1.0000   1.0000   1.0000   1.0000   1.0000   1.0000   1.0000   1.0000
     1.0000   1.0000   1.0000   1.0000   1.0000   1.0000   1.0000   1.0000
     1.0000   1.0000   1.0000   1.0000   1.0000   1.0000   1.0000   1.0000
     1.0000   1.0000   1.0000   1.0000   1.0000   1.0000   1.0000   1.0000
     1.0000   1.0000   1.0000   0.0000   0.0000   0.0000   0.0000   0.0000
     0.0000   0.0000   0.0000   0.0000   0.0000   0.0000   0.0000   0.0000
     0.0000   0.0000   0.0000   0.0000   0.0000   0.0000   0.0000   0.0000
     0.0000   0.0000   0.0000   0.0000   0.0000

          k = 0.0000 0.1921 0.0000 ( 25933 PWs)   bands (ev):

   -78.1853 -67.4941 -67.4570 -67.4321 -66.9849 -66.9609 -44.3376 -44.3081
   -44.2368 -34.2678 -34.2397 -34.2380 -34.2152 -34.2142 -34.1976 -34.1919
   -34.1911 -34.1664 -33.7591 -33.7341 -33.7337 -33.7229 -33.7229 -33.6795
   -23.0724 -23.0288 -15.0840 -15.0318 -14.1978 -14.1492 -13.6330 -13.6096
   -13.3312 -13.2520 -13.2011 -13.1232 -12.9289 -12.8936 -12.8888 -12.8450
   -12.7507 -12.6118 -12.4343 -12.3660 -12.3251 -12.2970 -12.2193 -12.0831
   -11.2042 -10.9824  -6.6392  -6.5973  -6.5649  -6.5555  -6.5108  -6.5013
    -4.2494  -4.1911  -2.5874  -2.4865  -1.7451  -1.4011  -1.0903  -1.0830
    -1.0005  -0.9472  -0.7280  -0.6374  -0.4442  -0.2996  -0.2650  -0.1304
    -0.0584   0.1883   0.2541   0.4445   0.5160   0.5783   0.7212   0.9022
     0.9302   1.1313   1.1858   1.3124   1.4045   1.5591   1.6115   1.7012
     1.8696   1.9224   1.9591   2.0680   2.1390   2.2105   2.2906   2.3530
     2.4120   2.4751   2.5596   2.6682   2.6829   2.7675   2.7745   2.8924
     2.9653   3.0452   3.0556   3.1402   3.2285   3.2474   3.3151   3.3504
     3.4178   3.4303   3.4722   3.5431   3.6115   3.6192   3.8062   3.8084
     3.8415   3.9080   3.9178   3.9829   4.0115   4.2133   4.2159   4.4814
     7.9998   8.0918   8.1791   9.3656   9.3957   9.5980  10.5060  10.8916
    11.4961  11.8675  12.2813  12.5922  12.6041  12.8345  12.9709  13.0772
    13.2064  13.3052  13.3756  13.4964  13.5154  13.6837  13.7336  13.8140
    13.8531  13.8904  14.3034  14.3720  14.5062

     occupation numbers 
     1.0000   1.0000   1.0000   1.0000   1.0000   1.0000   1.0000   1.0000
     1.0000   1.0000   1.0000   1.0000   1.0000   1.0000   1.0000   1.0000
     1.0000   1.0000   1.0000   1.0000   1.0000   1.0000   1.0000   1.0000
     1.0000   1.0000   1.0000   1.0000   1.0000   1.0000   1.0000   1.0000
     1.0000   1.0000   1.0000   1.0000   1.0000   1.0000   1.0000   1.0000
     1.0000   1.0000   1.0000   1.0000   1.0000   1.0000   1.0000   1.0000
     1.0000   1.0000   1.0000   1.0000   1.0000   1.0000   1.0000   1.0000
     1.0000   1.0000   1.0000   1.0000   1.0000   1.0000   1.0000   1.0000
     1.0000   1.0000   1.0000   1.0000   1.0000   1.0000   1.0000   1.0000
     1.0000   1.0000   1.0000   1.0000   1.0000   1.0000   1.0000   1.0000
     1.0000   1.0000   1.0000   1.0000   1.0000   1.0000   1.0000   1.0000
     1.0000   1.0000   1.0000   1.0000   1.0000   1.0000   1.0000   1.0000
     1.0000   1.0000   1.0000   1.0000   1.0000   1.0000   1.0000   1.0000
     1.0000   1.0000   1.0000   1.0000   1.0000   1.0000   1.0000   1.0000
     1.0000   1.0000   1.0000   1.0000   1.0000   1.0000   1.0000   1.0000
     1.0000   1.0000   1.0000   1.0000   1.0000   1.0000   1.0000   1.0000
     1.0000   1.0000   1.0000   0.0000   0.0000   0.0000   0.0000   0.0000
     0.0000   0.0000   0.0000   0.0000   0.0000   0.0000   0.0000   0.0000
     0.0000   0.0000   0.0000   0.0000   0.0000   0.0000   0.0000   0.0000
     0.0000   0.0000   0.0000   0.0000   0.0000

          k = 0.0000 0.1921 0.1758 ( 25924 PWs)   bands (ev):

   -78.1853 -67.4941 -67.4570 -67.4321 -66.9849 -66.9609 -44.3376 -44.3081
   -44.2368 -34.2678 -34.2397 -34.2380 -34.2152 -34.2142 -34.1976 -34.1919
   -34.1910 -34.1665 -33.7591 -33.7341 -33.7337 -33.7229 -33.7229 -33.6795
   -23.0724 -23.0288 -15.0713 -15.0452 -14.1860 -14.1618 -13.6336 -13.6090
   -13.3240 -13.2459 -13.2204 -13.1128 -12.9381 -12.8980 -12.8735 -12.8491
   -12.7475 -12.6163 -12.4275 -12.3725 -12.3278 -12.2943 -12.2124 -12.0896
   -11.2039 -10.9832  -6.6393  -6.5974  -6.5649  -6.5554  -6.5107  -6.5013
    -4.2433  -4.1976  -2.5652  -2.5110  -1.7183  -1.3904  -1.0875  -1.0811
    -0.9943  -0.9588  -0.7042  -0.6570  -0.4626  -0.3185  -0.2590  -0.2086
    -0.0089   0.1745   0.1981   0.4307   0.5166   0.5384   0.7579   0.9002
     0.9909   1.0963   1.1682   1.3692   1.4678   1.5515   1.6665   1.7498
     1.8773   1.9281   1.9899   2.0466   2.1260   2.2463   2.2864   2.3557
     2.4194   2.4622   2.5261   2.6352   2.6896   2.7103   2.8167   2.8371
     2.9299   3.0282   3.0884   3.1348   3.2030   3.2314   3.2855   3.3229
     3.4191   3.4454   3.4914   3.5536   3.6431   3.6756   3.7399   3.7947
     3.8532   3.9009   3.9180   3.9633   4.0035   4.2252   4.2563   4.4873
     8.0020   8.0916   8.1772   9.3363   9.4380   9.8427  10.4795  10.6976
    11.2063  11.8348  12.2526  12.6372  12.7186  12.9180  13.0962  13.1937
    13.2408  13.3245  13.4254  13.4854  13.6078  13.6307  13.6887  13.7688
    13.8282  14.0060  14.2503  14.3148  14.4299

     occupation numbers 
     1.0000   1.0000   1.0000   1.0000   1.0000   1.0000   1.0000   1.0000
     1.0000   1.0000   1.0000   1.0000   1.0000   1.0000   1.0000   1.0000
     1.0000   1.0000   1.0000   1.0000   1.0000   1.0000   1.0000   1.0000
     1.0000   1.0000   1.0000   1.0000   1.0000   1.0000   1.0000   1.0000
     1.0000   1.0000   1.0000   1.0000   1.0000   1.0000   1.0000   1.0000
     1.0000   1.0000   1.0000   1.0000   1.0000   1.0000   1.0000   1.0000
     1.0000   1.0000   1.0000   1.0000   1.0000   1.0000   1.0000   1.0000
     1.0000   1.0000   1.0000   1.0000   1.0000   1.0000   1.0000   1.0000
     1.0000   1.0000   1.0000   1.0000   1.0000   1.0000   1.0000   1.0000
     1.0000   1.0000   1.0000   1.0000   1.0000   1.0000   1.0000   1.0000
     1.0000   1.0000   1.0000   1.0000   1.0000   1.0000   1.0000   1.0000
     1.0000   1.0000   1.0000   1.0000   1.0000   1.0000   1.0000   1.0000
     1.0000   1.0000   1.0000   1.0000   1.0000   1.0000   1.0000   1.0000
     1.0000   1.0000   1.0000   1.0000   1.0000   1.0000   1.0000   1.0000
     1.0000   1.0000   1.0000   1.0000   1.0000   1.0000   1.0000   1.0000
     1.0000   1.0000   1.0000   1.0000   1.0000   1.0000   1.0000   1.0000
     1.0000   1.0000   1.0000   0.0000   0.0000   0.0000   0.0000   0.0000
     0.0000   0.0000   0.0000   0.0000   0.0000   0.0000   0.0000   0.0000
     0.0000   0.0000   0.0000   0.0000   0.0000   0.0000   0.0000   0.0000
     0.0000   0.0000   0.0000   0.0000   0.0000

          k = 0.1667 0.0000 0.0301 ( 25941 PWs)   bands (ev):

   -78.1853 -67.4941 -67.4570 -67.4321 -66.9849 -66.9609 -44.3376 -44.3081
   -44.2368 -34.2675 -34.2406 -34.2376 -34.2152 -34.2136 -34.1977 -34.1920
   -34.1911 -34.1665 -33.7591 -33.7353 -33.7320 -33.7241 -33.7220 -33.6797
   -23.0722 -23.0287 -15.0311 -14.9799 -14.1798 -14.1373 -13.7479 -13.7172
   -13.3491 -13.2388 -13.2049 -13.0981 -12.9195 -12.8864 -12.8190 -12.8082
   -12.7324 -12.6243 -12.4668 -12.4075 -12.3753 -12.3163 -12.2074 -12.0766
   -11.2020 -10.9870  -6.6414  -6.5988  -6.5639  -6.5552  -6.5100  -6.4973
    -4.1327  -4.0725  -2.4061  -2.3099  -1.7939  -1.4397  -1.4040  -1.3170
    -0.8945  -0.8224  -0.6639  -0.6126  -0.4557  -0.3468  -0.2938  -0.1431
     0.0548   0.1298   0.2514   0.4600   0.5047   0.6238   0.6606   0.7978
     1.0827   1.1775   1.2696   1.3189   1.3478   1.4872   1.5700   1.6174
     1.7068   1.9057   1.9336   2.0352   2.0769   2.2575   2.3034   2.3905
     2.4489   2.4679   2.5825   2.6211   2.7050   2.7237   2.8151   2.8842
     2.9288   2.9847   3.0780   3.1147   3.1647   3.2426   3.2860   3.3317
     3.4248   3.4612   3.4994   3.5872   3.6341   3.6737   3.7379   3.8111
     3.8243   3.8797   3.9202   3.9641   3.9957   4.1556   4.3392   4.4277
     7.9994   8.0822   8.1581   9.4078   9.4274   9.4755  10.8410  11.3728
    11.7313  11.9847  12.1453  12.4310  12.5633  12.8158  12.9582  13.0453
    13.1664  13.2954  13.3150  13.5555  13.6159  13.6505  13.7691  13.8259
    13.8820  14.1672  14.1930  14.2728  14.3834

     occupation numbers 
     1.0000   1.0000   1.0000   1.0000   1.0000   1.0000   1.0000   1.0000
     1.0000   1.0000   1.0000   1.0000   1.0000   1.0000   1.0000   1.0000
     1.0000   1.0000   1.0000   1.0000   1.0000   1.0000   1.0000   1.0000
     1.0000   1.0000   1.0000   1.0000   1.0000   1.0000   1.0000   1.0000
     1.0000   1.0000   1.0000   1.0000   1.0000   1.0000   1.0000   1.0000
     1.0000   1.0000   1.0000   1.0000   1.0000   1.0000   1.0000   1.0000
     1.0000   1.0000   1.0000   1.0000   1.0000   1.0000   1.0000   1.0000
     1.0000   1.0000   1.0000   1.0000   1.0000   1.0000   1.0000   1.0000
     1.0000   1.0000   1.0000   1.0000   1.0000   1.0000   1.0000   1.0000
     1.0000   1.0000   1.0000   1.0000   1.0000   1.0000   1.0000   1.0000
     1.0000   1.0000   1.0000   1.0000   1.0000   1.0000   1.0000   1.0000
     1.0000   1.0000   1.0000   1.0000   1.0000   1.0000   1.0000   1.0000
     1.0000   1.0000   1.0000   1.0000   1.0000   1.0000   1.0000   1.0000
     1.0000   1.0000   1.0000   1.0000   1.0000   1.0000   1.0000   1.0000
     1.0000   1.0000   1.0000   1.0000   1.0000   1.0000   1.0000   1.0000
     1.0000   1.0000   1.0000   1.0000   1.0000   1.0000   1.0000   1.0000
     1.0000   1.0000   1.0000   0.0000   0.0000   0.0000   0.0000   0.0000
     0.0000   0.0000   0.0000   0.0000   0.0000   0.0000   0.0000   0.0000
     0.0000   0.0000   0.0000   0.0000   0.0000   0.0000   0.0000   0.0000
     0.0000   0.0000   0.0000   0.0000   0.0000

          k = 0.1667 0.0000 0.2059 ( 25961 PWs)   bands (ev):

   -78.1853 -67.4941 -67.4570 -67.4321 -66.9849 -66.9609 -44.3376 -44.3082
   -44.2368 -34.2675 -34.2406 -34.2376 -34.2152 -34.2136 -34.1977 -34.1921
   -34.1911 -34.1665 -33.7591 -33.7353 -33.7320 -33.7241 -33.7220 -33.6797
   -23.0722 -23.0287 -15.0152 -14.9967 -14.1705 -14.1471 -13.7444 -13.7208
   -13.3385 -13.2543 -13.2032 -13.0918 -12.9191 -12.8861 -12.8288 -12.8023
   -12.7269 -12.6293 -12.4587 -12.4206 -12.3619 -12.3247 -12.1983 -12.0846
   -11.2015 -10.9879  -6.6414  -6.5989  -6.5639  -6.5552  -6.5099  -6.4973
    -4.1345  -4.0708  -2.3868  -2.3334  -1.7601  -1.4794  -1.3702  -1.3046
    -0.8924  -0.8248  -0.6717  -0.5982  -0.4586  -0.3350  -0.2999  -0.2567
     0.0961   0.1692   0.1920   0.3997   0.4920   0.6195   0.6324   0.8561
     1.1434   1.1622   1.2584   1.3150   1.4017   1.4696   1.5794   1.6449
     1.7793   1.8935   1.9622   2.0346   2.1902   2.2865   2.3115   2.3360
     2.4290   2.4633   2.5627   2.5919   2.6112   2.7208   2.7881   2.8510
     2.9204   2.9974   3.0760   3.1541   3.1833   3.2177   3.2386   3.3350
     3.3951   3.4687   3.4982   3.6022   3.6725   3.7142   3.7621   3.7738
     3.8277   3.8446   3.8692   3.9655   3.9913   4.2028   4.3466   4.4367
     8.0012   8.0811   8.1574   9.3971   9.4208   9.8408  10.3227  11.4091
    11.7715  11.8996  12.1814  12.3394  12.5264  12.8540  13.0878  13.1941
    13.2923  13.3494  13.3897  13.4612  13.5724  13.6860  13.7578  13.8218
    13.8971  13.9621  14.0951  14.3412  14.3889

     occupation numbers 
     1.0000   1.0000   1.0000   1.0000   1.0000   1.0000   1.0000   1.0000
     1.0000   1.0000   1.0000   1.0000   1.0000   1.0000   1.0000   1.0000
     1.0000   1.0000   1.0000   1.0000   1.0000   1.0000   1.0000   1.0000
     1.0000   1.0000   1.0000   1.0000   1.0000   1.0000   1.0000   1.0000
     1.0000   1.0000   1.0000   1.0000   1.0000   1.0000   1.0000   1.0000
     1.0000   1.0000   1.0000   1.0000   1.0000   1.0000   1.0000   1.0000
     1.0000   1.0000   1.0000   1.0000   1.0000   1.0000   1.0000   1.0000
     1.0000   1.0000   1.0000   1.0000   1.0000   1.0000   1.0000   1.0000
     1.0000   1.0000   1.0000   1.0000   1.0000   1.0000   1.0000   1.0000
     1.0000   1.0000   1.0000   1.0000   1.0000   1.0000   1.0000   1.0000
     1.0000   1.0000   1.0000   1.0000   1.0000   1.0000   1.0000   1.0000
     1.0000   1.0000   1.0000   1.0000   1.0000   1.0000   1.0000   1.0000
     1.0000   1.0000   1.0000   1.0000   1.0000   1.0000   1.0000   1.0000
     1.0000   1.0000   1.0000   1.0000   1.0000   1.0000   1.0000   1.0000
     1.0000   1.0000   1.0000   1.0000   1.0000   1.0000   1.0000   1.0000
     1.0000   1.0000   1.0000   1.0000   1.0000   1.0000   1.0000   1.0000
     1.0000   1.0000   1.0000   0.0000   0.0000   0.0000   0.0000   0.0000
     0.0000   0.0000   0.0000   0.0000   0.0000   0.0000   0.0000   0.0000
     0.0000   0.0000   0.0000   0.0000   0.0000   0.0000   0.0000   0.0000
     0.0000   0.0000   0.0000   0.0000   0.0000

          k = 0.1667 0.0000-0.1457 ( 25956 PWs)   bands (ev):

   -78.1853 -67.4941 -67.4570 -67.4321 -66.9849 -66.9609 -44.3376 -44.3081
   -44.2368 -34.2675 -34.2406 -34.2376 -34.2152 -34.2136 -34.1978 -34.1921
   -34.1911 -34.1665 -33.7591 -33.7353 -33.7320 -33.7241 -33.7220 -33.6797
   -23.0722 -23.0287 -15.0221 -14.9895 -14.1717 -14.1458 -13.7433 -13.7220
   -13.3431 -13.2394 -13.2137 -13.0931 -12.9192 -12.8860 -12.8247 -12.8034
   -12.7306 -12.6285 -12.4557 -12.4222 -12.3554 -12.3321 -12.1989 -12.0834
   -11.2013 -10.9879  -6.6415  -6.5989  -6.5639  -6.5551  -6.5099  -6.4973
    -4.1183  -4.0874  -2.3821  -2.3365  -1.7734  -1.4741  -1.3721  -1.3088
    -0.8779  -0.8440  -0.6425  -0.5979  -0.4769  -0.3348  -0.3077  -0.2306
     0.0627   0.1646   0.2130   0.4066   0.5204   0.6048   0.6974   0.8406
     1.0939   1.1500   1.2464   1.3135   1.4049   1.5077   1.5885   1.6032
     1.7739   1.8791   1.9943   1.9989   2.1163   2.2399   2.3228   2.3548
     2.4382   2.4845   2.5710   2.5950   2.6682   2.7384   2.7858   2.8569
     2.9309   2.9835   3.0945   3.1593   3.1845   3.2287   3.2540   3.3704
     3.3962   3.4670   3.5181   3.5714   3.6142   3.7054   3.7320   3.7782
     3.8295   3.8556   3.8878   3.9491   3.9915   4.2036   4.3403   4.4431
     7.9996   8.0811   8.1588   9.3946   9.4064   9.6942  10.5331  11.4796
    11.8112  11.8581  12.2222  12.3172  12.5531  12.9380  13.0012  13.0999
    13.1873  13.3128  13.3836  13.4364  13.5350  13.7027  13.7145  13.8506
    13.9087  14.0465  14.1766  14.3234  14.3602

     occupation numbers 
     1.0000   1.0000   1.0000   1.0000   1.0000   1.0000   1.0000   1.0000
     1.0000   1.0000   1.0000   1.0000   1.0000   1.0000   1.0000   1.0000
     1.0000   1.0000   1.0000   1.0000   1.0000   1.0000   1.0000   1.0000
     1.0000   1.0000   1.0000   1.0000   1.0000   1.0000   1.0000   1.0000
     1.0000   1.0000   1.0000   1.0000   1.0000   1.0000   1.0000   1.0000
     1.0000   1.0000   1.0000   1.0000   1.0000   1.0000   1.0000   1.0000
     1.0000   1.0000   1.0000   1.0000   1.0000   1.0000   1.0000   1.0000
     1.0000   1.0000   1.0000   1.0000   1.0000   1.0000   1.0000   1.0000
     1.0000   1.0000   1.0000   1.0000   1.0000   1.0000   1.0000   1.0000
     1.0000   1.0000   1.0000   1.0000   1.0000   1.0000   1.0000   1.0000
     1.0000   1.0000   1.0000   1.0000   1.0000   1.0000   1.0000   1.0000
     1.0000   1.0000   1.0000   1.0000   1.0000   1.0000   1.0000   1.0000
     1.0000   1.0000   1.0000   1.0000   1.0000   1.0000   1.0000   1.0000
     1.0000   1.0000   1.0000   1.0000   1.0000   1.0000   1.0000   1.0000
     1.0000   1.0000   1.0000   1.0000   1.0000   1.0000   1.0000   1.0000
     1.0000   1.0000   1.0000   1.0000   1.0000   1.0000   1.0000   1.0000
     1.0000   1.0000   1.0000   0.0000   0.0000   0.0000   0.0000   0.0000
     0.0000   0.0000   0.0000   0.0000   0.0000   0.0000   0.0000   0.0000
     0.0000   0.0000   0.0000   0.0000   0.0000   0.0000   0.0000   0.0000
     0.0000   0.0000   0.0000   0.0000   0.0000

          k = 0.1667 0.1921 0.0301 ( 25937 PWs)   bands (ev):

   -78.1853 -67.4941 -67.4570 -67.4321 -66.9849 -66.9609 -44.3376 -44.3081
   -44.2368 -34.2675 -34.2406 -34.2376 -34.2153 -34.2137 -34.1977 -34.1919
   -34.1911 -34.1665 -33.7591 -33.7353 -33.7320 -33.7241 -33.7220 -33.6797
   -23.0722 -23.0287 -15.0262 -14.9751 -14.2090 -14.1632 -13.7356 -13.7082
   -13.2950 -13.2261 -13.1510 -13.0874 -12.9263 -12.9021 -12.8843 -12.8411
   -12.7497 -12.6195 -12.4632 -12.3937 -12.3699 -12.3218 -12.2033 -12.0745
   -11.2007 -10.9867  -6.6401  -6.6006  -6.5638  -6.5542  -6.5103  -6.4977
    -4.0956  -4.0344  -2.5635  -2.4640  -1.7225  -1.3653  -1.3024  -1.2758
    -0.8904  -0.8241  -0.7509  -0.5820  -0.4570  -0.2852  -0.2419  -0.1113
    -0.0006   0.1523   0.2185   0.4224   0.4953   0.5943   0.6763   0.7642
     1.0885   1.0997   1.2646   1.3182   1.3574   1.4764   1.5622   1.6653
     1.7496   1.8933   1.9070   2.0650   2.1352   2.2429   2.3123   2.3679
     2.4570   2.5001   2.5620   2.6937   2.7244   2.7739   2.8354   2.8804
     2.9655   3.0183   3.0974   3.1342   3.1819   3.2267   3.2907   3.3454
     3.3947   3.4240   3.4571   3.5731   3.6183   3.6347   3.7176   3.7635
     3.8065   3.8419   3.9078   3.9785   4.0188   4.1465   4.2507   4.4126
     7.9993   8.0918   8.1573   9.3727   9.4351   9.8311  10.6769  11.0583
    11.5955  11.9110  12.2628  12.5899  12.6844  12.8031  13.0435  13.0889
    13.2001  13.3006  13.3511  13.4918  13.5116  13.6059  13.7141  13.7988
    13.9558  14.0199  14.2483  14.4239  14.5629

     occupation numbers 
     1.0000   1.0000   1.0000   1.0000   1.0000   1.0000   1.0000   1.0000
     1.0000   1.0000   1.0000   1.0000   1.0000   1.0000   1.0000   1.0000
     1.0000   1.0000   1.0000   1.0000   1.0000   1.0000   1.0000   1.0000
     1.0000   1.0000   1.0000   1.0000   1.0000   1.0000   1.0000   1.0000
     1.0000   1.0000   1.0000   1.0000   1.0000   1.0000   1.0000   1.0000
     1.0000   1.0000   1.0000   1.0000   1.0000   1.0000   1.0000   1.0000
     1.0000   1.0000   1.0000   1.0000   1.0000   1.0000   1.0000   1.0000
     1.0000   1.0000   1.0000   1.0000   1.0000   1.0000   1.0000   1.0000
     1.0000   1.0000   1.0000   1.0000   1.0000   1.0000   1.0000   1.0000
     1.0000   1.0000   1.0000   1.0000   1.0000   1.0000   1.0000   1.0000
     1.0000   1.0000   1.0000   1.0000   1.0000   1.0000   1.0000   1.0000
     1.0000   1.0000   1.0000   1.0000   1.0000   1.0000   1.0000   1.0000
     1.0000   1.0000   1.0000   1.0000   1.0000   1.0000   1.0000   1.0000
     1.0000   1.0000   1.0000   1.0000   1.0000   1.0000   1.0000   1.0000
     1.0000   1.0000   1.0000   1.0000   1.0000   1.0000   1.0000   1.0000
     1.0000   1.0000   1.0000   1.0000   1.0000   1.0000   1.0000   1.0000
     1.0000   1.0000   1.0000   0.0000   0.0000   0.0000   0.0000   0.0000
     0.0000   0.0000   0.0000   0.0000   0.0000   0.0000   0.0000   0.0000
     0.0000   0.0000   0.0000   0.0000   0.0000   0.0000   0.0000   0.0000
     0.0000   0.0000   0.0000   0.0000   0.0000

          k = 0.1667 0.1921 0.2059 ( 25944 PWs)   bands (ev):

   -78.1853 -67.4941 -67.4570 -67.4321 -66.9849 -66.9609 -44.3376 -44.3081
   -44.2368 -34.2675 -34.2406 -34.2376 -34.2153 -34.2137 -34.1977 -34.1919
   -34.1911 -34.1665 -33.7591 -33.7353 -33.7320 -33.7241 -33.7220 -33.6797
   -23.0722 -23.0287 -15.0104 -14.9918 -14.1971 -14.1759 -13.7340 -13.7098
   -13.2883 -13.2203 -13.1721 -13.0739 -12.9296 -12.9038 -12.8879 -12.8345
   -12.7470 -12.6245 -12.4560 -12.4078 -12.3574 -12.3280 -12.1942 -12.0823
   -11.2003 -10.9876  -6.6401  -6.6007  -6.5638  -6.5542  -6.5102  -6.4977
    -4.0942  -4.0360  -2.5408  -2.4893  -1.6965  -1.3535  -1.3240  -1.2551
    -0.8932  -0.8218  -0.7492  -0.5712  -0.4595  -0.3368  -0.2316  -0.1720
     0.0404   0.1345   0.2000   0.3884   0.4786   0.5794   0.6526   0.8157
     1.0580   1.1318   1.2417   1.3761   1.4122   1.4917   1.5882   1.7090
     1.8107   1.8542   1.9099   2.0525   2.1657   2.2679   2.3347   2.3828
     2.4582   2.4897   2.5170   2.6376   2.6841   2.7646   2.8147   2.8820
     2.9266   3.0267   3.0934   3.1302   3.1767   3.2190   3.2705   3.2937
     3.3831   3.4278   3.5284   3.5964   3.6239   3.6657   3.6899   3.7730
     3.7948   3.8258   3.8821   3.9574   4.0283   4.1863   4.2667   4.4231
     8.0013   8.0909   8.1562   9.3586   9.4381  10.1316  10.6100  10.8687
    11.3054  11.8749  12.2306  12.5903  12.7704  12.8389  13.1137  13.2748
    13.2985  13.3552  13.4130  13.4649  13.5607  13.6469  13.7106  13.7734
    13.8838  14.0130  14.1516  14.3137  14.5182

     occupation numbers 
     1.0000   1.0000   1.0000   1.0000   1.0000   1.0000   1.0000   1.0000
     1.0000   1.0000   1.0000   1.0000   1.0000   1.0000   1.0000   1.0000
     1.0000   1.0000   1.0000   1.0000   1.0000   1.0000   1.0000   1.0000
     1.0000   1.0000   1.0000   1.0000   1.0000   1.0000   1.0000   1.0000
     1.0000   1.0000   1.0000   1.0000   1.0000   1.0000   1.0000   1.0000
     1.0000   1.0000   1.0000   1.0000   1.0000   1.0000   1.0000   1.0000
     1.0000   1.0000   1.0000   1.0000   1.0000   1.0000   1.0000   1.0000
     1.0000   1.0000   1.0000   1.0000   1.0000   1.0000   1.0000   1.0000
     1.0000   1.0000   1.0000   1.0000   1.0000   1.0000   1.0000   1.0000
     1.0000   1.0000   1.0000   1.0000   1.0000   1.0000   1.0000   1.0000
     1.0000   1.0000   1.0000   1.0000   1.0000   1.0000   1.0000   1.0000
     1.0000   1.0000   1.0000   1.0000   1.0000   1.0000   1.0000   1.0000
     1.0000   1.0000   1.0000   1.0000   1.0000   1.0000   1.0000   1.0000
     1.0000   1.0000   1.0000   1.0000   1.0000   1.0000   1.0000   1.0000
     1.0000   1.0000   1.0000   1.0000   1.0000   1.0000   1.0000   1.0000
     1.0000   1.0000   1.0000   1.0000   1.0000   1.0000   1.0000   1.0000
     1.0000   1.0000   1.0000   0.0000   0.0000   0.0000   0.0000   0.0000
     0.0000   0.0000   0.0000   0.0000   0.0000   0.0000   0.0000   0.0000
     0.0000   0.0000   0.0000   0.0000   0.0000   0.0000   0.0000   0.0000
     0.0000   0.0000   0.0000   0.0000   0.0000

          k = 0.1667 0.1921-0.1457 ( 25923 PWs)   bands (ev):

   -78.1853 -67.4941 -67.4570 -67.4321 -66.9849 -66.9609 -44.3376 -44.3081
   -44.2368 -34.2675 -34.2406 -34.2376 -34.2153 -34.2136 -34.1977 -34.1919
   -34.1911 -34.1665 -33.7591 -33.7353 -33.7320 -33.7241 -33.7220 -33.6797
   -23.0722 -23.0287 -15.0172 -14.9847 -14.2000 -14.1729 -13.7316 -13.7124
   -13.2914 -13.2201 -13.1646 -13.0804 -12.9284 -12.9061 -12.8801 -12.8418
   -12.7469 -12.6237 -12.4525 -12.4082 -12.3514 -12.3364 -12.1947 -12.0813
   -11.2001 -10.9876  -6.6402  -6.6008  -6.5638  -6.5541  -6.5103  -6.4977
    -4.0791  -4.0514  -2.5401  -2.4895  -1.7062  -1.3578  -1.3266  -1.2517
    -0.8735  -0.8452  -0.7175  -0.5868  -0.4812  -0.2962  -0.2464  -0.1598
     0.0140   0.1417   0.1870   0.4183   0.4956   0.5706   0.7119   0.8036
     1.0509   1.0943   1.2338   1.3434   1.4060   1.5032   1.5985   1.7075
     1.7709   1.8621   1.9038   2.0710   2.1564   2.2203   2.3212   2.3778
     2.4542   2.5043   2.5282   2.6671   2.7214   2.7761   2.7999   2.8937
     2.9323   3.0254   3.0708   3.1553   3.1931   3.2308   3.2716   3.3313
     3.4074   3.4468   3.4876   3.5649   3.6323   3.6513   3.6746   3.7492
     3.8095   3.8362   3.8858   3.9614   3.9975   4.1950   4.2573   4.4202
     7.9995   8.0912   8.1582   9.3486   9.4274  10.0359  10.7669  10.8437
    11.3731  11.9452  12.2822  12.5976  12.6709  12.8530  13.0465  13.1930
    13.2461  13.3221  13.4092  13.4561  13.5462  13.6462  13.6824  13.8872
    13.9121  13.9620  14.1255  14.3415  14.4738

     occupation numbers 
     1.0000   1.0000   1.0000   1.0000   1.0000   1.0000   1.0000   1.0000
     1.0000   1.0000   1.0000   1.0000   1.0000   1.0000   1.0000   1.0000
     1.0000   1.0000   1.0000   1.0000   1.0000   1.0000   1.0000   1.0000
     1.0000   1.0000   1.0000   1.0000   1.0000   1.0000   1.0000   1.0000
     1.0000   1.0000   1.0000   1.0000   1.0000   1.0000   1.0000   1.0000
     1.0000   1.0000   1.0000   1.0000   1.0000   1.0000   1.0000   1.0000
     1.0000   1.0000   1.0000   1.0000   1.0000   1.0000   1.0000   1.0000
     1.0000   1.0000   1.0000   1.0000   1.0000   1.0000   1.0000   1.0000
     1.0000   1.0000   1.0000   1.0000   1.0000   1.0000   1.0000   1.0000
     1.0000   1.0000   1.0000   1.0000   1.0000   1.0000   1.0000   1.0000
     1.0000   1.0000   1.0000   1.0000   1.0000   1.0000   1.0000   1.0000
     1.0000   1.0000   1.0000   1.0000   1.0000   1.0000   1.0000   1.0000
     1.0000   1.0000   1.0000   1.0000   1.0000   1.0000   1.0000   1.0000
     1.0000   1.0000   1.0000   1.0000   1.0000   1.0000   1.0000   1.0000
     1.0000   1.0000   1.0000   1.0000   1.0000   1.0000   1.0000   1.0000
     1.0000   1.0000   1.0000   1.0000   1.0000   1.0000   1.0000   1.0000
     1.0000   1.0000   1.0000   0.0000   0.0000   0.0000   0.0000   0.0000
     0.0000   0.0000   0.0000   0.0000   0.0000   0.0000   0.0000   0.0000
     0.0000   0.0000   0.0000   0.0000   0.0000   0.0000   0.0000   0.0000
     0.0000   0.0000   0.0000   0.0000   0.0000

          k = 0.3333 0.0000 0.0601 ( 25907 PWs)   bands (ev):

   -78.1853 -67.4940 -67.4570 -67.4321 -66.9848 -66.9610 -44.3376 -44.3081
   -44.2368 -34.2668 -34.2422 -34.2369 -34.2151 -34.2128 -34.1982 -34.1920
   -34.1911 -34.1666 -33.7590 -33.7361 -33.7300 -33.7255 -33.7215 -33.6801
   -23.0719 -23.0284 -14.8726 -14.8250 -14.2906 -14.2533 -13.8749 -13.8395
   -13.2518 -13.1500 -13.0821 -13.0587 -12.9496 -12.9304 -12.8359 -12.8229
   -12.7343 -12.6405 -12.5483 -12.5020 -12.4183 -12.3279 -12.1862 -12.0685
   -11.1954 -10.9958  -6.6425  -6.6062  -6.5610  -6.5525  -6.5097  -6.4904
    -3.7242  -3.6537  -2.5251  -2.4200  -1.8098  -1.6659  -1.3945  -1.2339
    -0.8528  -0.7388  -0.7212  -0.6742  -0.3979  -0.2976  -0.2025  -0.1094
    -0.0660   0.1595   0.2567   0.4283   0.4907   0.6194   0.6791   0.7428
     1.0138   1.1322   1.1984   1.2791   1.4233   1.4575   1.5668   1.5769
     1.6496   1.6734   1.8160   1.9815   2.0984   2.3087   2.3474   2.4050
     2.4490   2.5412   2.6583   2.7069   2.7591   2.7710   2.8036   2.9237
     2.9481   2.9933   3.0392   3.1028   3.1665   3.2066   3.2547   3.2947
     3.3802   3.4311   3.4709   3.5472   3.6110   3.6650   3.6765   3.7272
     3.7515   3.7986   3.8897   3.9404   4.0256   4.0610   4.2307   4.3867
     7.9982   8.0837   8.1149   9.4116   9.4266  10.2462  11.2691  11.4841
    11.9454  12.0648  12.2180  12.2764  12.7220  12.7409  12.7908  13.0783
    13.1619  13.2544  13.4242  13.5232  13.5728  13.6244  13.7496  13.9194
    14.0050  14.2069  14.2573  14.3547  14.4442

     occupation numbers 
     1.0000   1.0000   1.0000   1.0000   1.0000   1.0000   1.0000   1.0000
     1.0000   1.0000   1.0000   1.0000   1.0000   1.0000   1.0000   1.0000
     1.0000   1.0000   1.0000   1.0000   1.0000   1.0000   1.0000   1.0000
     1.0000   1.0000   1.0000   1.0000   1.0000   1.0000   1.0000   1.0000
     1.0000   1.0000   1.0000   1.0000   1.0000   1.0000   1.0000   1.0000
     1.0000   1.0000   1.0000   1.0000   1.0000   1.0000   1.0000   1.0000
     1.0000   1.0000   1.0000   1.0000   1.0000   1.0000   1.0000   1.0000
     1.0000   1.0000   1.0000   1.0000   1.0000   1.0000   1.0000   1.0000
     1.0000   1.0000   1.0000   1.0000   1.0000   1.0000   1.0000   1.0000
     1.0000   1.0000   1.0000   1.0000   1.0000   1.0000   1.0000   1.0000
     1.0000   1.0000   1.0000   1.0000   1.0000   1.0000   1.0000   1.0000
     1.0000   1.0000   1.0000   1.0000   1.0000   1.0000   1.0000   1.0000
     1.0000   1.0000   1.0000   1.0000   1.0000   1.0000   1.0000   1.0000
     1.0000   1.0000   1.0000   1.0000   1.0000   1.0000   1.0000   1.0000
     1.0000   1.0000   1.0000   1.0000   1.0000   1.0000   1.0000   1.0000
     1.0000   1.0000   1.0000   1.0000   1.0000   1.0000   1.0000   1.0000
     1.0000   1.0000   1.0000   0.0000   0.0000   0.0000   0.0000   0.0000
     0.0000   0.0000   0.0000   0.0000   0.0000   0.0000   0.0000   0.0000
     0.0000   0.0000   0.0000   0.0000   0.0000   0.0000   0.0000   0.0000
     0.0000   0.0000   0.0000   0.0000   0.0000

          k = 0.3333 0.0000 0.2360 ( 25948 PWs)   bands (ev):

   -78.1853 -67.4940 -67.4570 -67.4321 -66.9848 -66.9610 -44.3376 -44.3082
   -44.2369 -34.2668 -34.2422 -34.2369 -34.2151 -34.2129 -34.1982 -34.1921
   -34.1911 -34.1666 -33.7590 -33.7361 -33.7301 -33.7255 -33.7215 -33.6801
   -23.0719 -23.0284 -14.8553 -14.8431 -14.2885 -14.2554 -13.8687 -13.8461
   -13.2455 -13.1507 -13.0977 -13.0489 -12.9465 -12.9282 -12.8447 -12.8183
   -12.7333 -12.6440 -12.5392 -12.5125 -12.4055 -12.3375 -12.1766 -12.0772
   -11.1944 -10.9969  -6.6425  -6.6063  -6.5609  -6.5525  -6.5097  -6.4904
    -3.7257  -3.6523  -2.4987  -2.4496  -1.7811  -1.7029  -1.3669  -1.2237
    -0.8563  -0.7558  -0.7012  -0.6695  -0.3622  -0.2892  -0.2379  -0.2008
    -0.0170   0.1142   0.2644   0.3948   0.4998   0.6024   0.6501   0.7999
     1.0481   1.1559   1.1853   1.2826   1.3306   1.4930   1.5760   1.6333
     1.6896   1.7209   1.7571   2.0546   2.1355   2.2687   2.3472   2.4017
     2.4346   2.4806   2.6366   2.7334   2.7537   2.7704   2.8342   2.8709
     2.9416   2.9626   3.0015   3.0990   3.1533   3.2182   3.2922   3.3368
     3.4046   3.4114   3.4995   3.5354   3.6039   3.6553   3.6684   3.7062
     3.7705   3.8038   3.8382   3.9206   4.0129   4.1205   4.2351   4.4074
     7.9982   8.0820   8.1154   9.4032   9.4216  10.5776  10.8227  11.5243
    11.9878  12.0182  12.1867  12.3227  12.6640  12.6921  12.8077  12.9618
    13.3116  13.3583  13.4886  13.5028  13.5830  13.6384  13.8269  13.9383
    13.9579  14.0295  14.0581  14.4737  14.6634

     occupation numbers 
     1.0000   1.0000   1.0000   1.0000   1.0000   1.0000   1.0000   1.0000
     1.0000   1.0000   1.0000   1.0000   1.0000   1.0000   1.0000   1.0000
     1.0000   1.0000   1.0000   1.0000   1.0000   1.0000   1.0000   1.0000
     1.0000   1.0000   1.0000   1.0000   1.0000   1.0000   1.0000   1.0000
     1.0000   1.0000   1.0000   1.0000   1.0000   1.0000   1.0000   1.0000
     1.0000   1.0000   1.0000   1.0000   1.0000   1.0000   1.0000   1.0000
     1.0000   1.0000   1.0000   1.0000   1.0000   1.0000   1.0000   1.0000
     1.0000   1.0000   1.0000   1.0000   1.0000   1.0000   1.0000   1.0000
     1.0000   1.0000   1.0000   1.0000   1.0000   1.0000   1.0000   1.0000
     1.0000   1.0000   1.0000   1.0000   1.0000   1.0000   1.0000   1.0000
     1.0000   1.0000   1.0000   1.0000   1.0000   1.0000   1.0000   1.0000
     1.0000   1.0000   1.0000   1.0000   1.0000   1.0000   1.0000   1.0000
     1.0000   1.0000   1.0000   1.0000   1.0000   1.0000   1.0000   1.0000
     1.0000   1.0000   1.0000   1.0000   1.0000   1.0000   1.0000   1.0000
     1.0000   1.0000   1.0000   1.0000   1.0000   1.0000   1.0000   1.0000
     1.0000   1.0000   1.0000   1.0000   1.0000   1.0000   1.0000   1.0000
     1.0000   1.0000   1.0000   0.0000   0.0000   0.0000   0.0000   0.0000
     0.0000   0.0000   0.0000   0.0000   0.0000   0.0000   0.0000   0.0000
     0.0000   0.0000   0.0000   0.0000   0.0000   0.0000   0.0000   0.0000
     0.0000   0.0000   0.0000   0.0000   0.0000

          k = 0.3333 0.0000-0.1157 ( 25913 PWs)   bands (ev):

   -78.1853 -67.4940 -67.4570 -67.4321 -66.9848 -66.9610 -44.3376 -44.3081
   -44.2368 -34.2668 -34.2422 -34.2369 -34.2151 -34.2128 -34.1982 -34.1920
   -34.1911 -34.1666 -33.7590 -33.7361 -33.7301 -33.7255 -33.7215 -33.6801
   -23.0719 -23.0284 -14.8673 -14.8306 -14.2834 -14.2607 -13.8698 -13.8449
   -13.2511 -13.1406 -13.0977 -13.0553 -12.9472 -12.9255 -12.8499 -12.8130
   -12.7343 -12.6433 -12.5375 -12.5166 -12.4001 -12.3411 -12.1780 -12.0756
   -11.1943 -10.9968  -6.6426  -6.6064  -6.5609  -6.5525  -6.5097  -6.4904
    -3.6932  -3.6857  -2.5135  -2.4337  -1.7951  -1.6829  -1.3891  -1.2282
    -0.8460  -0.7415  -0.6952  -0.6732  -0.3980  -0.2836  -0.2235  -0.1629
    -0.0603   0.1197   0.2953   0.3868   0.5153   0.5917   0.7141   0.7578
     1.0534   1.1084   1.1989   1.3119   1.3561   1.4632   1.5821   1.6143
     1.6333   1.6807   1.8213   2.0051   2.0973   2.2764   2.3358   2.3911
     2.4338   2.5468   2.6816   2.7034   2.7349   2.7957   2.8287   2.9029
     2.9413   2.9716   3.0027   3.0988   3.1836   3.2390   3.3160   3.3376
     3.3659   3.4050   3.5216   3.5650   3.6129   3.6275   3.6427   3.6880
     3.7660   3.7834   3.8538   3.8794   4.0408   4.1052   4.2380   4.4090
     7.9966   8.0823   8.1161   9.4099   9.4217  10.3095  11.1496  11.6174
    11.8940  12.0619  12.2387  12.3638  12.6525  12.7165  12.8252  12.9554
    13.1757  13.3325  13.3842  13.4994  13.5748  13.6480  13.6804  13.8603
    14.0282  14.1445  14.2080  14.4036  14.5395

     occupation numbers 
     1.0000   1.0000   1.0000   1.0000   1.0000   1.0000   1.0000   1.0000
     1.0000   1.0000   1.0000   1.0000   1.0000   1.0000   1.0000   1.0000
     1.0000   1.0000   1.0000   1.0000   1.0000   1.0000   1.0000   1.0000
     1.0000   1.0000   1.0000   1.0000   1.0000   1.0000   1.0000   1.0000
     1.0000   1.0000   1.0000   1.0000   1.0000   1.0000   1.0000   1.0000
     1.0000   1.0000   1.0000   1.0000   1.0000   1.0000   1.0000   1.0000
     1.0000   1.0000   1.0000   1.0000   1.0000   1.0000   1.0000   1.0000
     1.0000   1.0000   1.0000   1.0000   1.0000   1.0000   1.0000   1.0000
     1.0000   1.0000   1.0000   1.0000   1.0000   1.0000   1.0000   1.0000
     1.0000   1.0000   1.0000   1.0000   1.0000   1.0000   1.0000   1.0000
     1.0000   1.0000   1.0000   1.0000   1.0000   1.0000   1.0000   1.0000
     1.0000   1.0000   1.0000   1.0000   1.0000   1.0000   1.0000   1.0000
     1.0000   1.0000   1.0000   1.0000   1.0000   1.0000   1.0000   1.0000
     1.0000   1.0000   1.0000   1.0000   1.0000   1.0000   1.0000   1.0000
     1.0000   1.0000   1.0000   1.0000   1.0000   1.0000   1.0000   1.0000
     1.0000   1.0000   1.0000   1.0000   1.0000   1.0000   1.0000   1.0000
     1.0000   1.0000   1.0000   0.0000   0.0000   0.0000   0.0000   0.0000
     0.0000   0.0000   0.0000   0.0000   0.0000   0.0000   0.0000   0.0000
     0.0000   0.0000   0.0000   0.0000   0.0000   0.0000   0.0000   0.0000
     0.0000   0.0000   0.0000   0.0000   0.0000

          k = 0.3333 0.1921 0.0601 ( 25923 PWs)   bands (ev):

   -78.1853 -67.4940 -67.4570 -67.4321 -66.9848 -66.9610 -44.3376 -44.3081
   -44.2368 -34.2668 -34.2422 -34.2369 -34.2151 -34.2129 -34.1982 -34.1919
   -34.1911 -34.1666 -33.7590 -33.7361 -33.7301 -33.7255 -33.7215 -33.6801
   -23.0719 -23.0284 -14.8689 -14.8212 -14.3024 -14.2635 -13.8711 -13.8383
   -13.2245 -13.1622 -13.0654 -13.0169 -12.9530 -12.9422 -12.8683 -12.8497
   -12.7451 -12.6345 -12.5429 -12.4893 -12.4190 -12.3325 -12.1847 -12.0680
   -11.1948 -10.9958  -6.6423  -6.6076  -6.5611  -6.5519  -6.5093  -6.4905
    -3.7015  -3.6310  -2.6300  -2.5339  -1.7249  -1.5570  -1.3424  -1.2578
    -0.8635  -0.7764  -0.7153  -0.6281  -0.4021  -0.2598  -0.1856  -0.0963
    -0.0219   0.1120   0.2412   0.4086   0.5030   0.6020   0.6425   0.6906
     0.9750   1.0595   1.2704   1.3218   1.4006   1.4797   1.5339   1.6047
     1.6486   1.6855   1.8054   1.9339   2.1195   2.2845   2.3515   2.3882
     2.4544   2.5456   2.6356   2.7018   2.7533   2.8230   2.8757   2.9456
     2.9656   3.0094   3.0888   3.1345   3.2011   3.2069   3.2462   3.3430
     3.3609   3.4259   3.4502   3.5169   3.5654   3.5996   3.6363   3.6539
     3.7988   3.8371   3.8855   3.9480   4.0048   4.1117   4.1805   4.3562
     7.9979   8.0915   8.1149   9.3936   9.4309  10.4966  11.0989  11.4449
    11.8543  11.9168  12.1208  12.4900  12.5777  12.7125  12.8788  13.1456
    13.2297  13.2745  13.4414  13.4580  13.5222  13.6495  13.7853  13.9532
    14.0742  14.2636  14.2910  14.3647  14.4391

     occupation numbers 
     1.0000   1.0000   1.0000   1.0000   1.0000   1.0000   1.0000   1.0000
     1.0000   1.0000   1.0000   1.0000   1.0000   1.0000   1.0000   1.0000
     1.0000   1.0000   1.0000   1.0000   1.0000   1.0000   1.0000   1.0000
     1.0000   1.0000   1.0000   1.0000   1.0000   1.0000   1.0000   1.0000
     1.0000   1.0000   1.0000   1.0000   1.0000   1.0000   1.0000   1.0000
     1.0000   1.0000   1.0000   1.0000   1.0000   1.0000   1.0000   1.0000
     1.0000   1.0000   1.0000   1.0000   1.0000   1.0000   1.0000   1.0000
     1.0000   1.0000   1.0000   1.0000   1.0000   1.0000   1.0000   1.0000
     1.0000   1.0000   1.0000   1.0000   1.0000   1.0000   1.0000   1.0000
     1.0000   1.0000   1.0000   1.0000   1.0000   1.0000   1.0000   1.0000
     1.0000   1.0000   1.0000   1.0000   1.0000   1.0000   1.0000   1.0000
     1.0000   1.0000   1.0000   1.0000   1.0000   1.0000   1.0000   1.0000
     1.0000   1.0000   1.0000   1.0000   1.0000   1.0000   1.0000   1.0000
     1.0000   1.0000   1.0000   1.0000   1.0000   1.0000   1.0000   1.0000
     1.0000   1.0000   1.0000   1.0000   1.0000   1.0000   1.0000   1.0000
     1.0000   1.0000   1.0000   1.0000   1.0000   1.0000   1.0000   1.0000
     1.0000   1.0000   1.0000   0.0000   0.0000   0.0000   0.0000   0.0000
     0.0000   0.0000   0.0000   0.0000   0.0000   0.0000   0.0000   0.0000
[...]
     atom   20 type  6   force =     0.00097143    0.00096226    0.00640783
     atom   21 type  6   force =    -0.00097143    0.00096226   -0.00640783
     atom   22 type  6   force =    -0.00089827   -0.00131510   -0.00259836
     atom   23 type  6   force =     0.00089827   -0.00131510    0.00259836
     atom   24 type  6   force =     0.00471569   -0.00189667   -0.00579355
     atom   25 type  6   force =    -0.00471570   -0.00189667    0.00579352
     atom   26 type  6   force =    -0.00362188    0.00081565   -0.00706443
     atom   27 type  6   force =     0.00362188    0.00081565    0.00706442
     atom   28 type  6   force =    -0.00178588    0.00256566    0.00725867
     atom   29 type  6   force =     0.00178588    0.00256566   -0.00725867
     atom   30 type  6   force =     0.00098494   -0.00226875   -0.00747669
     atom   31 type  6   force =    -0.00098494   -0.00226875    0.00747669
     atom   32 type  6   force =    -0.00266245   -0.00344048   -0.00682856
     atom   33 type  6   force =     0.00266243   -0.00344048    0.00682858
     atom   34 type  6   force =     0.00103401    0.00421542    0.00639567
     atom   35 type  6   force =    -0.00103401    0.00421542   -0.00639567
     atom   36 type  6   force =    -0.00319925    0.00088914    0.01061555
     atom   37 type  6   force =     0.00319926    0.00088914   -0.01061555
     atom   38 type  6   force =    -0.00004169   -0.00132425    0.01115424
     atom   39 type  6   force =     0.00004170   -0.00132424   -0.01115422
     atom   40 type  3   force =     0.00000000    0.00000000    0.00000000
     atom   41 type  3   force =     0.00000000    0.00000000    0.00000000
     atom   42 type  3   force =     0.00000000    0.00000000    0.00000000
     atom   43 type  3   force =     0.00000000    0.00000000    0.00000000
     atom   44 type  2   force =    -0.00000000   -0.00276152    0.00000000
     The Hubbard contrib.    to forces
     atom    1 type  4   force =     0.00000000    0.00000000    0.00000000
     atom    2 type  4   force =     0.00000000    0.00000000    0.00000000
     atom    3 type  5   force =     0.00000000    0.00000000    0.00000000
     atom    4 type  5   force =     0.00000000    0.00000000    0.00000000
     atom    5 type  5   force =     0.00000000    0.00000000    0.00000000
     atom    6 type  5   force =     0.00000000    0.00000000    0.00000000
     atom    7 type  5   force =     0.00000000    0.00000000    0.00000000
     atom    8 type  7   force =     0.00000000    0.00000000    0.00000000
     atom    9 type  7   force =     0.00000000    0.00000000    0.00000000
     atom   10 type  7   force =     0.00000000    0.00000000    0.00000000
     atom   11 type  7   force =     0.00000000    0.00000000    0.00000000
     atom   12 type  7   force =     0.00000000    0.00000000    0.00000000
     atom   13 type  7   force =     0.00000000    0.00000000    0.00000000
     atom   14 type  1   force =     0.00000000    0.00000000    0.00000000
     atom   15 type  1   force =     0.00000000    0.00000000    0.00000000
     atom   16 type  6   force =     0.00000000    0.00000000    0.00000000
     atom   17 type  6   force =     0.00000000    0.00000000    0.00000000
     atom   18 type  6   force =     0.00000000    0.00000000    0.00000000
     atom   19 type  6   force =     0.00000000    0.00000000    0.00000000
     atom   20 type  6   force =     0.00000000    0.00000000    0.00000000
     atom   21 type  6   force =     0.00000000    0.00000000    0.00000000
     atom   22 type  6   force =     0.00000000    0.00000000    0.00000000
     atom   23 type  6   force =     0.00000000    0.00000000    0.00000000
     atom   24 type  6   force =     0.00000000    0.00000000    0.00000000
     atom   25 type  6   force =     0.00000000    0.00000000    0.00000000
     atom   26 type  6   force =     0.00000000    0.00000000    0.00000000
     atom   27 type  6   force =     0.00000000    0.00000000    0.00000000
     atom   28 type  6   force =     0.00000000    0.00000000    0.00000000
     atom   29 type  6   force =     0.00000000    0.00000000    0.00000000
     atom   30 type  6   force =     0.00000000    0.00000000    0.00000000
     atom   31 type  6   force =     0.00000000    0.00000000    0.00000000
     atom   32 type  6   force =     0.00000000    0.00000000    0.00000000
     atom   33 type  6   force =     0.00000000    0.00000000    0.00000000
     atom   34 type  6   force =     0.00000000    0.00000000    0.00000000
     atom   35 type  6   force =     0.00000000    0.00000000    0.00000000
     atom   36 type  6   force =     0.00000000    0.00000000    0.00000000
     atom   37 type  6   force =     0.00000000    0.00000000    0.00000000
     atom   38 type  6   force =     0.00000000    0.00000000    0.00000000
     atom   39 type  6   force =     0.00000000    0.00000000    0.00000000
     atom   40 type  3   force =     0.00000000    0.00000000    0.00000000
     atom   41 type  3   force =     0.00000000    0.00000000    0.00000000
     atom   42 type  3   force =     0.00000000    0.00000000    0.00000000
     atom   43 type  3   force =     0.00000000    0.00000000    0.00000000
     atom   44 type  2   force =     0.00000000    0.00000000    0.00000000
     The SCF correction term to forces
     atom    1 type  4   force =    -0.00000000    0.00000070   -0.00000000
     atom    2 type  4   force =     0.00000000    0.00000712   -0.00000000
     atom    3 type  5   force =    -0.00000000    0.00004607    0.00000000
     atom    4 type  5   force =     0.00000000    0.00002601   -0.00000000
     atom    5 type  5   force =    -0.00000000   -0.00007776    0.00000000
     atom    6 type  5   force =    -0.00000000    0.00001802    0.00000000
     atom    7 type  5   force =    -0.00000000   -0.00000613   -0.00000000
     atom    8 type  7   force =     0.00000298    0.00000034    0.00000728
     atom    9 type  7   force =    -0.00000298    0.00000034   -0.00000728
     atom   10 type  7   force =    -0.00000356   -0.00000263   -0.00000474
     atom   11 type  7   force =     0.00000356   -0.00000263    0.00000474
     atom   12 type  7   force =    -0.00000035   -0.00001264   -0.00001041
     atom   13 type  7   force =     0.00000035   -0.00001264    0.00001041
     atom   14 type  1   force =    -0.00000038    0.00000844   -0.00000208
     atom   15 type  1   force =     0.00000038    0.00000844    0.00000208
     atom   16 type  6   force =    -0.00000420   -0.00003771    0.00001937
     atom   17 type  6   force =     0.00000420   -0.00003771   -0.00001937
     atom   18 type  6   force =     0.00000124    0.00002122    0.00002984
     atom   19 type  6   force =    -0.00000124    0.00002122   -0.00002984
     atom   20 type  6   force =     0.00000348   -0.00007568   -0.00000857
     atom   21 type  6   force =    -0.00000348   -0.00007568    0.00000857
     atom   22 type  6   force =     0.00000098    0.00003068   -0.00000255
     atom   23 type  6   force =    -0.00000098    0.00003068    0.00000255
     atom   24 type  6   force =    -0.00000176    0.00001916    0.00000658
     atom   25 type  6   force =     0.00000176    0.00001916   -0.00000658
     atom   26 type  6   force =     0.00004268   -0.00001016    0.00007593
     atom   27 type  6   force =    -0.00004268   -0.00001016   -0.00007593
     atom   28 type  6   force =    -0.00001252   -0.00004391   -0.00001869
     atom   29 type  6   force =     0.00001252   -0.00004391    0.00001869
     atom   30 type  6   force =    -0.00000653   -0.00004236   -0.00000130
     atom   31 type  6   force =     0.00000653   -0.00004236    0.00000130
     atom   32 type  6   force =     0.00002070    0.00002621   -0.00004040
     atom   33 type  6   force =    -0.00002070    0.00002621    0.00004040
     atom   34 type  6   force =    -0.00000749    0.00004675   -0.00000115
     atom   35 type  6   force =     0.00000749    0.00004675    0.00000115
     atom   36 type  6   force =    -0.00000632   -0.00000858    0.00003091
     atom   37 type  6   force =     0.00000632   -0.00000858   -0.00003091
     atom   38 type  6   force =     0.00000046    0.00002823   -0.00000196
     atom   39 type  6   force =    -0.00000046    0.00002823    0.00000196
     atom   40 type  3   force =    -0.00000100   -0.00000012   -0.00000110
     atom   41 type  3   force =     0.00000100   -0.00000012    0.00000110
     atom   42 type  3   force =    -0.00000044    0.00000213   -0.00000116
     atom   43 type  3   force =     0.00000044    0.00000213    0.00000116
     atom   44 type  2   force =     0.00000000   -0.00003899   -0.00000000

     DFT-D3 dispersion contribution to forces:
     atom    1 type  4   force =    -0.00000000    0.00064352    0.00000000
     atom    2 type  4   force =     0.00000000   -0.00042909    0.00000000
     atom    3 type  5   force =     0.00000000    0.00027383   -0.00000000
     atom    4 type  5   force =     0.00000000    0.00095752   -0.00000000
     atom    5 type  5   force =    -0.00000000   -0.00156253   -0.00000000
     atom    6 type  5   force =    -0.00000000    0.00087035    0.00000000
     atom    7 type  5   force =     0.00000000   -0.00003659   -0.00000000
     atom    8 type  7   force =     0.00001162   -0.00016042   -0.00037422
     atom    9 type  7   force =    -0.00001162   -0.00016042    0.00037422
     atom   10 type  7   force =     0.00006630    0.00008136    0.00028127
     atom   11 type  7   force =    -0.00006630    0.00008136   -0.00028127
     atom   12 type  7   force =     0.00000943    0.00002830   -0.00006264
     atom   13 type  7   force =    -0.00000943    0.00002830    0.00006264
     atom   14 type  1   force =    -0.00008287    0.00012429   -0.00126852
     atom   15 type  1   force =     0.00008287    0.00012429    0.00126852
     atom   16 type  6   force =     0.00001333    0.00004517    0.00043191
     atom   17 type  6   force =    -0.00001333    0.00004517   -0.00043191
     atom   18 type  6   force =    -0.00001358    0.00003822   -0.00033997
     atom   19 type  6   force =     0.00001358    0.00003822    0.00033996
     atom   20 type  6   force =    -0.00004112   -0.00003265    0.00036781
     atom   21 type  6   force =     0.00004112   -0.00003265   -0.00036781
     atom   22 type  6   force =    -0.00004977   -0.00011579    0.00017533
     atom   23 type  6   force =     0.00004977   -0.00011579   -0.00017533
     atom   24 type  6   force =    -0.00018651    0.00099735    0.00015872
     atom   25 type  6   force =     0.00018651    0.00099735   -0.00015872
     atom   26 type  6   force =     0.00082999    0.00006790    0.00015878
     atom   27 type  6   force =    -0.00082999    0.00006790   -0.00015878
     atom   28 type  6   force =     0.00042265   -0.00062689   -0.00011936
     atom   29 type  6   force =    -0.00042265   -0.00062689    0.00011936
     atom   30 type  6   force =    -0.00026682    0.00042484    0.00013195
     atom   31 type  6   force =     0.00026682    0.00042484   -0.00013195
     atom   32 type  6   force =     0.00090637   -0.00042172    0.00036292
     atom   33 type  6   force =    -0.00090637   -0.00042172   -0.00036293
     atom   34 type  6   force =     0.00062194   -0.00047700   -0.00035029
     atom   35 type  6   force =    -0.00062194   -0.00047700    0.00035029
     atom   36 type  6   force =    -0.00013608   -0.00001244   -0.00056535
     atom   37 type  6   force =     0.00013608   -0.00001244    0.00056535
     atom   38 type  6   force =     0.00002704    0.00003486   -0.00053694
     atom   39 type  6   force =    -0.00002704    0.00003486    0.00053694
     atom   40 type  3   force =    -0.00030216    0.00017496   -0.00025483
     atom   41 type  3   force =     0.00030216    0.00017496    0.00025483
     atom   42 type  3   force =     0.00006075   -0.00043042   -0.00023940
     atom   43 type  3   force =    -0.00006075   -0.00043042    0.00023940
     atom   44 type  2   force =     0.00000000   -0.00019684    0.00000000

     Total force =     0.002291     Total SCF correction =     0.000265

     DFT-D3 dispersion Force =     0.004551
     SCF correction compared to forces is large: reduce conv_thr to get better values
     Energy error            =      1.2E-05 Ry
     Gradient error          =      6.9E-04 Ry/Bohr

     bfgs converged in  17 scf cycles and  16 bfgs steps
     (criteria: energy <  1.0E-04 Ry, force <  1.0E-03 Ry/Bohr)

     End of BFGS Geometry Optimization

     Final energy             =   -2631.1993030309 Ry

     File ./temp/phl-fe1-fe4-nspin.bfgs deleted, as requested
Begin final coordinates

ATOMIC_POSITIONS (crystal)
K                0.0000000000        0.4926895273        0.0000000000
K                0.5000000000        0.0045958831        0.0000000000
Mg              -0.0000000000        0.0036066410        0.5000000000
Mg              -0.0000000000        0.3348863581        0.5000000000
Mg              -0.0000000000        0.6620396059        0.5000000000
Mg               0.5000000000        0.8326862601        0.5000000000
Mg               0.5000000000        0.1750727583        0.5000000000
Si               0.0814343023        0.1652664618        0.2233937161
Si               0.9185656837        0.1652664618        0.7766063139
Si               0.9363557539        0.8339187628        0.7707631736
Si               0.0636442461        0.8339187628        0.2292368264
Si               0.5617429283        0.6655422508        0.2265022708
Si               0.4382570717        0.6655422508        0.7734977142
Al               0.4185729388        0.3329072811        0.7752540822
Al               0.5814270612        0.3329072811        0.2247459178
O                0.1257950706        0.1642288825        0.3857187370
O                0.8742048994        0.1642288825        0.6142812920
O                0.8754717241        0.8318664584        0.6098042113
O                0.1245282759        0.8318664584        0.3901957887
O                0.6263205904        0.6668449647        0.3886055240
O                0.3736794096        0.6668449647        0.6113944760
O                0.3651159109        0.3377205872        0.6024656122
O                0.6348840891        0.3377205872        0.3975343878
O                0.3410947420        0.2033851717        0.1660002303
O                0.6589052580        0.2033851717        0.8339997397
O                0.9941632756        0.9972476505        0.1685025533
O                0.0058367244        0.9972476505        0.8314974317
O                0.6846386750        0.7751315518        0.8306616289
O                0.3153613250        0.7751315518        0.1693383711
O                0.8131844143        0.7319729639        0.1681825900
O                0.1868155857        0.7319729639        0.8318174100
O                0.4910390533        0.5080065709        0.1599381542
O                0.5089609167        0.5080065709        0.8400618608
O                0.1460182012        0.2766953970        0.8395318307
O                0.8539818138        0.2766953970        0.1604681693
O                0.1394380201        0.5019975569        0.3959855635
O                0.8605619949        0.5019975569        0.6040144365
O                0.6311468399        0.9998494666        0.3975439525
O                0.3688531601        0.9998494666        0.6024560175
H                0.1288952433        0.4914936739        0.3008156111
H                0.8711047867        0.4914936739        0.6991843889
H                0.5939494173        0.0139446366        0.3022445594
H                0.4060505827        0.0139446366        0.6977554406
Fe               0.5000000000        0.4983774409        0.5000000000
End final coordinates



     Writing all to output data dir ./temp/phl-fe1-fe4-nspin.save/ :
     XML data file, charge density, pseudopotentials, collected wavefunctions

     init_run     :    167.41s CPU    171.54s WALL (       1 calls)
     electrons    :  91830.08s CPU  92676.01s WALL (      17 calls)
     update_pot   :     17.64s CPU     17.84s WALL (      16 calls)
     forces       :   2306.95s CPU   2321.07s WALL (      17 calls)
     force_dftd3  :     44.10s CPU     44.19s WALL (      17 calls)

     Called by init_run:
     wfcinit      :    160.73s CPU    164.02s WALL (       1 calls)
     wfcinit:atom :      0.30s CPU      0.32s WALL (      20 calls)
     wfcinit:wfcr :    158.73s CPU    161.94s WALL (      20 calls)
     potinit      :      1.16s CPU      1.24s WALL (       1 calls)
     hinit0       :      0.57s CPU      0.65s WALL (       1 calls)

     Called by electrons:
     c_bands      :  83943.65s CPU  84574.51s WALL (     142 calls)
     sum_band     :   7135.58s CPU   7274.67s WALL (     142 calls)
     v_of_rho     :     45.65s CPU     47.19s WALL (     148 calls)
     v_h          :      4.73s CPU      4.94s WALL (     148 calls)
     v_xc         :     45.41s CPU     47.07s WALL (     165 calls)
     newd         :    654.03s CPU    736.24s WALL (     148 calls)
     PAW_pot      :    103.07s CPU    103.35s WALL (     164 calls)
     mix_rho      :      8.54s CPU      8.89s WALL (     142 calls)
     energy_dftd3 :     34.49s CPU     34.54s WALL (      17 calls)

     Called by c_bands:
     init_us_2    :    259.79s CPU    262.96s WALL (    6360 calls)
     cegterg      :  83681.39s CPU  84306.97s WALL (    2840 calls)

     Called by sum_band:
     sum_band:wei :      0.03s CPU      0.03s WALL (     142 calls)
     sum_band:loo :   6048.77s CPU   6101.25s WALL (     142 calls)
     sum_band:buf :     34.63s CPU     35.38s WALL (    2840 calls)
     sum_band:ini :    116.45s CPU    117.81s WALL (    2840 calls)
     sum_band:cal :   4736.60s CPU   4749.74s WALL (    3160 calls)
     sum_band:bec :      5.73s CPU      5.76s WALL (    3160 calls)
     addusdens    :   1069.38s CPU   1155.34s WALL (     142 calls)
                                        0.00s GPU  (     142 calls)
     addusd:skk   :      6.93s CPU      9.31s WALL (     994 calls)
                                        0.00s GPU  (     994 calls)

     Called by *egterg:
     cdiaghg      :   1089.14s CPU   1105.03s WALL (   21433 calls)
     cegterg:over :  10931.41s CPU  10983.63s WALL (   19133 calls)
     cegterg:upda :   6299.64s CPU   6338.66s WALL (   19133 calls)
     cegterg:last :  17232.30s CPU  17314.07s WALL (    7733 calls)
     cdiaghg:chol :     26.37s CPU     27.16s WALL (   21433 calls)
     cdiaghg:inve :     20.55s CPU     20.65s WALL (   21433 calls)
     cdiaghg:para :    407.80s CPU    413.97s WALL (   42866 calls)
     h_psi        :  33016.21s CPU  33349.68s WALL (   21993 calls)
     s_psi        :  13073.85s CPU  13119.91s WALL (   21993 calls)
     g_psi        :     25.34s CPU     25.50s WALL (   19133 calls)

     Called by h_psi:
     h_psi:calbec :  13028.39s CPU  13079.36s WALL (   21993 calls)
     vloc_psi     :   6716.07s CPU   6924.38s WALL (   21993 calls)
     add_vuspsi   :  13203.16s CPU  13254.30s WALL (   21993 calls)

     General routines
     calbec       :  19803.19s CPU  19870.25s WALL (   26513 calls)
     fft          :     38.68s CPU     41.11s WALL (    2104 calls)
     ffts         :      1.11s CPU      1.17s WALL (     290 calls)
     fftw         :   4388.16s CPU   4505.42s WALL ( 3170144 calls)
     interpolate  :      4.21s CPU      4.41s WALL (     148 calls)

     Parallel routines

     PAW routines
     PAW_pot      :    103.07s CPU    103.35s WALL (     164 calls)
     PAW_symme    :      0.07s CPU      0.07s WALL (     306 calls)

     PWSCF        :   1d 2h21m CPU   1d 2h36m WALL


   This run was terminated on:  16:25: 7  29Jan2025            

=------------------------------------------------------------------------------=
   JOB DONE.
=------------------------------------------------------------------------------=
