
     Program PWSCF v.7.3.1 starts on 28Dec2024 at  0:10:32 

     This program is part of the open-source Quantum ESPRESSO suite
     for quantum simulation of materials; please cite
         "P. Giannozzi et al., J. Phys.:Condens. Matter 21 395502 (2009);
         "P. Giannozzi et al., J. Phys.:Condens. Matter 29 465901 (2017);
         "P. Giannozzi et al., J. Chem. Phys. 152 154105 (2020);
          URL http://www.quantum-espresso.org", 
     in publications or presentations arising from this work. More details at
     http://www.quantum-espresso.org/quote

     Parallel version (MPI), running on     4 processors

     MPI processes distributed on     1 nodes
     8526 MiB available memory on the printing compute node when the environment starts

     Reading input from relax.in
Warning: card  &CELL ignored
Warning: card    CELL_DOFREE     = 'IBRAV' ignored
Warning: card  / ignored

     Current dimensions of program PWSCF are:
     Max number of different atomic species (ntypx) = 10
     Max number of k-points (npk) =  40000
     Max angular momentum in pseudopotentials (lmaxx) =  4
     file Al.pbe-n-kjpaw_psl.1.0.0.UPF: wavefunction(s)  3S 3P renormalized
     file Fe.pbe-spn-kjpaw_psl.1.0.0.UPF: wavefunction(s)  3P 3D renormalized
     file H.pbe-kjpaw_psl.1.0.0.UPF: wavefunction(s)  1S renormalized
     file K.pbe-spn-kjpaw_psl.1.0.0.UPF: wavefunction(s)  3S renormalized
     file Mg.pbe-spnl-kjpaw_psl.1.0.0.UPF: wavefunction(s)  2P renormalized
     file O.pbe-n-kjpaw_psl.1.0.0.UPF: wavefunction(s)  2S 2P renormalized
     file Si.pbe-n-kjpaw_psl.1.0.0.UPF: wavefunction(s)  3S 3P renormalized

     R & G space division:  proc/nbgrp/npool/nimage =       4
     Subspace diagonalization in iterative solution of the eigenvalue problem:
     one sub-group per band group will be used
     custom distributed-memory algorithm (size of sub-group:  2*  2 procs)


     Parallelization info
     --------------------
     sticks:   dense  smooth     PW     G-vecs:    dense   smooth      PW
     Min        1652     828    225               145883    51599    7342
     Max        1653     829    226               145887    51603    7343
     Sum        6609    3313    901               583539   206401   29369

     Using Slab Decomposition



     bravais-lattice index     =          -12
     lattice parameter (alat)  =       9.9883  a.u.
     unit-cell volume          =    3285.8057 (a.u.)^3
     number of atoms/cell      =           44
     number of atomic types    =            7
     number of electrons       =       262.00
     number of Kohn-Sham states=          157
     kinetic-energy cutoff     =      60.0000  Ry
     charge density cutoff     =     480.0000  Ry
     scf convergence threshold =      1.0E-06
     mixing beta               =       0.7000
     number of iterations used =            8  plain     mixing
     energy convergence thresh.=      1.0E-04
     force convergence thresh. =      1.0E-03
     Exchange-correlation= SLA  PW   PBX  PBC
                           (   1   4   3   4   0   0   0)
     nstep                     =           50


     celldm(1)=   9.988336  celldm(2)=   1.736567  celldm(3)=   1.928182
     celldm(4)=   0.000000  celldm(5)=  -0.174018  celldm(6)=   0.000000

     crystal axes: (cart. coord. in units of alat)
               a(1) = (   1.000000   0.000000   0.000000 )  
               a(2) = (   0.000000   1.736567   0.000000 )  
               a(3) = (  -0.335538   0.000000   1.898763 )  

     reciprocal axes: (cart. coord. in units 2 pi/alat)
               b(1) = (  1.000000 -0.000000  0.176714 )  
               b(2) = (  0.000000  0.575849 -0.000000 )  
               b(3) = (  0.000000  0.000000  0.526659 )  


     PseudoPot. # 1 for Al read from file:
     ./../../pseudos/Al.pbe-n-kjpaw_psl.1.0.0.UPF
     MD5 check sum: 502b6b27b9c6270cab5dd1084b96fa6d
     Pseudo is Projector augmented-wave + core cor, Zval =  3.0
     Generated using &quot;atomic&quot; code by A. Dal Corso  v.6.3
     Shape of augmentation charge: PSQ
     Using radial grid of 1135 points,  6 beta functions with: 
                l(1) =   0
                l(2) =   0
                l(3) =   1
                l(4) =   1
                l(5) =   2
                l(6) =   2
     Q(r) pseudized with 0 coefficients 


     PseudoPot. # 2 for Fe read from file:
     ./../../pseudos/Fe.pbe-spn-kjpaw_psl.1.0.0.UPF
     MD5 check sum: fc81f059e5c5069939230b1155715ae8
     Pseudo is Projector augmented-wave + core cor, Zval = 16.0
     Generated using &quot;atomic&quot; code by A. Dal Corso  v.6.3
     Shape of augmentation charge: PSQ
     Using radial grid of 1191 points,  6 beta functions with: 
                l(1) =   0
                l(2) =   0
                l(3) =   1
                l(4) =   1
                l(5) =   2
                l(6) =   2
     Q(r) pseudized with 0 coefficients 


     PseudoPot. # 3 for H  read from file:
     ./../../pseudos/H.pbe-kjpaw_psl.1.0.0.UPF
     MD5 check sum: d81a744832360e4a8af0b0b5b123bc2a
     Pseudo is Projector augmented-wave, Zval =  1.0
     Generated using &quot;atomic&quot; code by A. Dal Corso  v.6.3MaX
     Shape of augmentation charge: PSQ
     Using radial grid of  929 points,  2 beta functions with: 
                l(1) =   0
                l(2) =   0
     Q(r) pseudized with 0 coefficients 


     PseudoPot. # 4 for K  read from file:
     ./../../pseudos/K.pbe-spn-kjpaw_psl.1.0.0.UPF
     MD5 check sum: 34cc42130a09071ebe376fd42eb21491
     Pseudo is Projector augmented-wave + core cor, Zval =  9.0
     Generated using &quot;atomic&quot; code by A. Dal Corso  v.6.2.2
     Shape of augmentation charge: PSQ
     Using radial grid of 1165 points,  6 beta functions with: 
                l(1) =   0
                l(2) =   0
                l(3) =   1
                l(4) =   1
                l(5) =   2
                l(6) =   2
     Q(r) pseudized with 0 coefficients 


     PseudoPot. # 5 for Mg read from file:
     ./../../pseudos/Mg.pbe-spnl-kjpaw_psl.1.0.0.UPF
     MD5 check sum: fda14e0d92a6a9a5ebed782e5a4b3067
     Pseudo is Projector augmented-wave + core cor, Zval = 10.0
     Generated using &quot;atomic&quot; code by A. Dal Corso  v.6.3
     Shape of augmentation charge: PSQ
     Using radial grid of 1129 points,  4 beta functions with: 
                l(1) =   0
                l(2) =   0
                l(3) =   1
                l(4) =   1
     Q(r) pseudized with 0 coefficients 


     PseudoPot. # 6 for O  read from file:
     ./../../pseudos/O.pbe-n-kjpaw_psl.1.0.0.UPF
     MD5 check sum: e99d9cef9b487d1ca56f5b95ecd0fd7a
     Pseudo is Projector augmented-wave + core cor, Zval =  6.0
     Generated using &quot;atomic&quot; code by A. Dal Corso  v.6.3
     Shape of augmentation charge: PSQ
     Using radial grid of 1095 points,  4 beta functions with: 
                l(1) =   0
                l(2) =   0
                l(3) =   1
                l(4) =   1
     Q(r) pseudized with 0 coefficients 


     PseudoPot. # 7 for Si read from file:
     ./../../pseudos/Si.pbe-n-kjpaw_psl.1.0.0.UPF
     MD5 check sum: c39c59da582df4a0d9f10159256ea34e
     Pseudo is Projector augmented-wave + core cor, Zval =  4.0
     Generated using &quot;atomic&quot; code by A. Dal Corso  v.6.3
     Shape of augmentation charge: PSQ
     Using radial grid of 1141 points,  6 beta functions with: 
                l(1) =   0
                l(2) =   0
                l(3) =   1
                l(4) =   1
                l(5) =   2
                l(6) =   2
     Q(r) pseudized with 0 coefficients 


     atomic species   valence    mass     pseudopotential
     Al                3.00    26.98154     Al( 1.00)
     Fe               16.00    55.84500     Fe( 1.00)
     H                 1.00     1.00794     H ( 1.00)
     K                 9.00    39.09830     K ( 1.00)
     Mg               10.00    24.30500     Mg( 1.00)
     O                 6.00    15.99940     O ( 1.00)
     Si                4.00    28.08550     Si( 1.00)

      2 Sym. Ops. (no inversion) found


                                    s                        frac. trans.

      isym =  1     identity                                     

 cryst.   s( 1) = (     1          0          0      )
                  (     0          1          0      )
                  (     0          0          1      )

 cart.    s( 1) = (  1.0000000  0.0000000  0.0000000 )
                  (  0.0000000  1.0000000  0.0000000 )
                  (  0.0000000  0.0000000  1.0000000 )


      isym =  2     180 deg rotation - cart. axis [0,1,0]        

 cryst.   s( 2) = (    -1          0          0      )
                  (     0          1          0      )
                  (     0          0         -1      )

 cart.    s( 2) = ( -1.0000000  0.0000000  0.0000000 )
                  (  0.0000000  1.0000000  0.0000000 )
                  (  0.0000000  0.0000000 -1.0000000 )


     point group C_2  (2)   
     there are  2 classes
     the character table:

       E     C2   
A      1.00  1.00
B      1.00 -1.00

     the symmetry operations in each class and the name of the first element:

     E        1
          identity                                               
     C2       2
          180 deg rotation - cart. axis [0,1,0]                  

   Cartesian axes

     site n.     atom                  positions (alat units)
         1        K      tau(   1) = (   0.0000000   0.8568223   0.0000000  )
         2        K      tau(   2) = (   0.5000000   0.0097248   0.0000000  )
         3        Mg     tau(   3) = (  -0.1677688   0.0062516   0.9493815  )
         4        Mg     tau(   4) = (  -0.1677688   0.5789715   0.9493815  )
         5        Mg     tau(   5) = (  -0.1677688   1.1532543   0.9493815  )
         6        Mg     tau(   6) = (   0.3322312   1.4489917   0.9493815  )
         7        Mg     tau(   7) = (   0.3322312   0.3011208   0.9493815  )
         8        Fe     tau(   8) = (   0.3322312   0.8644632   0.9493815  )
         9        Si     tau(   9) = (   0.0078751   0.2868809   0.4234242  )
        10        Si     tau(  10) = (   0.6565873   0.2868809   1.4753389  )
        11        Si     tau(  11) = (   0.6740999   1.4484708   1.4645160  )
        12        Si     tau(  12) = (  -0.0096375   1.4484708   0.4342471  )
        13        Si     tau(  13) = (   0.4895001   1.1563801   0.4306395  )
        14        Si     tau(  14) = (   0.1749623   1.1563801   1.4681237  )
        15        Al     tau(  15) = (   0.1565906   0.5770613   1.4724908  )
        16        Al     tau(  16) = (   0.5078718   0.5770613   0.4262723  )
        17        O      tau(  17) = (  -0.0026826   0.2835814   0.7315934  )
        18        O      tau(  18) = (   0.6671450   0.2835814   1.1671696  )
        19        O      tau(  19) = (   0.6695214   1.4455186   1.1588151  )
        20        O      tau(  20) = (  -0.0050590   1.4455186   0.7399480  )
        21        O      tau(  21) = (   0.4958430   1.1596796   0.7382391  )
        22        O      tau(  22) = (   0.1686195   1.1596796   1.1605239  )
        23        O      tau(  23) = (   0.1614037   0.5826183   1.1453339  )
        24        O      tau(  24) = (   0.5030587   0.5826183   0.7534292  )
        25        O      tau(  25) = (   0.2868665   0.3546070   0.3159542  )
        26        O      tau(  26) = (   0.3775959   0.3546070   1.5828089  )
        27        O      tau(  27) = (   0.9409297   1.7313575   0.3189922  )
        28        O      tau(  28) = (  -0.2764673   1.7313575   1.5797709  )
        29        O      tau(  29) = (   0.4011696   1.3470552   1.5767328  )
        30        O      tau(  30) = (   0.2632928   1.3470552   0.3220302  )
        31        O      tau(  31) = (   0.7619283   1.2692570   0.3201314  )
        32        O      tau(  32) = (  -0.0974659   1.2692570   1.5786317  )
        33        O      tau(  33) = (   0.4412429   0.8820025   0.3075996  )
        34        O      tau(  34) = (   0.2232195   0.8820025   1.5911635  )
        35        O      tau(  35) = (  -0.1370160   0.4799872   1.5930622  )
        36        O      tau(  36) = (   0.8014784   0.4799872   0.3057009  )
        37        O      tau(  37) = (   0.0045271   0.8729723   0.7519102  )
        38        O      tau(  38) = (   0.6599353   0.8729723   1.1468528  )
        39        O      tau(  39) = (   0.4991915   1.7355254   0.7538090  )
        40        O      tau(  40) = (   0.1652709   1.7355254   1.1449541  )
        41        H      tau(  41) = (   0.0188690   0.8575169   0.5722872  )
        42        H      tau(  42) = (   0.6455934   0.8575169   1.3264759  )
        43        H      tau(  43) = (   0.4947663   0.0220544   0.5745657  )
        44        H      tau(  44) = (   0.1696961   0.0220544   1.3241973  )

     --------------------------------------------
     DFT-D3 Dispersion Correction (3-body terms):
     --------------------------------------------
       Reference C6 values for interpolation: 

         atom   Coordination number   C6
         H          0.912             6.05
         H          0.000            15.18
         O          0.000            31.01
         O          0.993            25.63
         O          1.989            20.74
         Mg         0.000          1366.75
         Mg         0.963           902.54
         Mg         1.950           351.12
         Al         0.000          1081.08
         Al         0.965           875.51
         Al         1.931           513.50
         Al         2.915           307.19
         Si         0.000           635.71
         Si         0.951           540.53
         Si         1.944           466.25
         Si         2.941           443.01
         Si         3.868           299.55
         K          0.000          9967.00
         K          0.977           676.04
         Fe         0.000           982.67
         Fe         1.648           409.99
         Fe         9.138           219.01

       Values used:

         atom   Coordination number  R0_AB[au]  C6      C8
         K         13.715            4.007    676.04 129074.98
         K         13.905            4.007    676.04 129074.98
         Mg        11.909            3.292    351.12  31436.69
         Mg        11.655            3.292    351.12  31436.69
         Mg        11.278            3.292    351.12  31436.69
         Mg        11.523            3.292    351.12  31436.69
         Mg        11.999            3.292    351.12  31436.69
         Fe         8.365            3.252    219.01  20487.87
         Si         7.004            3.583    299.55  21425.58
         Si         7.004            3.583    299.55  21425.58
         Si         6.580            3.583    299.55  21425.58
         Si         6.580            3.583    299.55  21425.58
         Si         6.491            3.583    299.55  21425.58
         Si         6.491            3.583    299.55  21425.58
         Al         7.691            3.789    307.19  29441.29
         Al         7.691            3.789    307.19  29441.29
         O          3.932            2.345     20.74    418.58
         O          3.932            2.345     20.74    418.58
         O          3.931            2.345     20.74    418.58
         O          3.931            2.345     20.74    418.58
         O          3.701            2.345     20.74    418.58
         O          3.701            2.345     20.74    418.58
         O          3.845            2.345     20.74    418.58
         O          3.845            2.345     20.74    418.58
         O          3.193            2.345     20.74    418.58
         O          3.193            2.345     20.74    418.58
         O          3.164            2.345     20.74    418.58
         O          3.164            2.345     20.74    418.58
         O          3.064            2.345     20.74    418.58
         O          3.064            2.345     20.74    418.58
         O          3.067            2.345     20.74    418.58
         O          3.067            2.345     20.74    418.58
         O          3.197            2.345     20.74    418.58
         O          3.197            2.345     20.74    418.58
         O          3.261            2.345     20.74    418.58
         O          3.261            2.345     20.74    418.58
         O          3.871            2.345     20.74    418.58
         O          3.871            2.345     20.74    418.58
         O          4.004            2.345     20.74    418.58
         O          4.004            2.345     20.74    418.58
         H          1.282            2.062      6.07     73.37
         H          1.282            2.062      6.07     73.37
         H          1.305            2.062      6.07     73.34
         H          1.305            2.062      6.07     73.34

         Molecular C6 ( Ry / a.u.^6 ) =    165305.48


   Crystallographic axes

     site n.     atom                  positions (cryst. coord.)
         1        K      tau(   1) = (  0.0000000  0.4934000  0.0000000  )
         2        K      tau(   2) = (  0.5000000  0.0056000  0.0000000  )
         3        Mg     tau(   3) = (  0.0000000  0.0036000  0.5000000  )
         4        Mg     tau(   4) = (  0.0000000  0.3334000  0.5000000  )
         5        Mg     tau(   5) = (  0.0000000  0.6641000  0.5000000  )
         6        Mg     tau(   6) = (  0.5000000  0.8344000  0.5000000  )
         7        Mg     tau(   7) = (  0.5000000  0.1734000  0.5000000  )
         8        Fe     tau(   8) = (  0.5000000  0.4978000  0.5000000  )
         9        Si     tau(   9) = (  0.0827000  0.1652000  0.2230000  )
        10        Si     tau(  10) = (  0.9173000  0.1652000  0.7770000  )
        11        Si     tau(  11) = (  0.9329000  0.8341000  0.7713000  )
        12        Si     tau(  12) = (  0.0671000  0.8341000  0.2287000  )
        13        Si     tau(  13) = (  0.5656000  0.6659000  0.2268000  )
        14        Si     tau(  14) = (  0.4344000  0.6659000  0.7732000  )
        15        Al     tau(  15) = (  0.4168000  0.3323000  0.7755000  )
        16        Al     tau(  16) = (  0.5832000  0.3323000  0.2245000  )
        17        O      tau(  17) = (  0.1266000  0.1633000  0.3853000  )
        18        O      tau(  18) = (  0.8734000  0.1633000  0.6147000  )
        19        O      tau(  19) = (  0.8743000  0.8324000  0.6103000  )
        20        O      tau(  20) = (  0.1257000  0.8324000  0.3897000  )
        21        O      tau(  21) = (  0.6263000  0.6678000  0.3888000  )
        22        O      tau(  22) = (  0.3737000  0.6678000  0.6112000  )
        23        O      tau(  23) = (  0.3638000  0.3355000  0.6032000  )
        24        O      tau(  24) = (  0.6362000  0.3355000  0.3968000  )
        25        O      tau(  25) = (  0.3427000  0.2042000  0.1664000  )
        26        O      tau(  26) = (  0.6573000  0.2042000  0.8336000  )
        27        O      tau(  27) = (  0.9973000  0.9970000  0.1680000  )
        28        O      tau(  28) = (  0.0027000  0.9970000  0.8320000  )
        29        O      tau(  29) = (  0.6798000  0.7757000  0.8304000  )
        30        O      tau(  30) = (  0.3202000  0.7757000  0.1696000  )
        31        O      tau(  31) = (  0.8185000  0.7309000  0.1686000  )
        32        O      tau(  32) = (  0.1815000  0.7309000  0.8314000  )
        33        O      tau(  33) = (  0.4956000  0.5079000  0.1620000  )
        34        O      tau(  34) = (  0.5044000  0.5079000  0.8380000  )
        35        O      tau(  35) = (  0.1445000  0.2764000  0.8390000  )
        36        O      tau(  36) = (  0.8555000  0.2764000  0.1610000  )
        37        O      tau(  37) = (  0.1374000  0.5027000  0.3960000  )
        38        O      tau(  38) = (  0.8626000  0.5027000  0.6040000  )
        39        O      tau(  39) = (  0.6324000  0.9994000  0.3970000  )
        40        O      tau(  40) = (  0.3676000  0.9994000  0.6030000  )
        41        H      tau(  41) = (  0.1200000  0.4938000  0.3014000  )
        42        H      tau(  42) = (  0.8800000  0.4938000  0.6986000  )
        43        H      tau(  43) = (  0.5963000  0.0127000  0.3026000  )
        44        H      tau(  44) = (  0.4037000  0.0127000  0.6974000  )

     number of k points=    20  Gaussian smearing, width (Ry)=  0.0010
                       cart. coord. in units 2pi/alat
        k(    1) = (   0.0000000   0.0000000   0.0000000), wk =   0.0370370
        k(    2) = (   0.0000000   0.0000000   0.1755529), wk =   0.0740741
        k(    3) = (   0.0000000   0.1919496   0.0000000), wk =   0.0740741
        k(    4) = (   0.0000000   0.1919496   0.1755529), wk =   0.1481481
        k(    5) = (   0.1666667   0.0000000   0.0294523), wk =   0.0740741
        k(    6) = (   0.1666667   0.0000000   0.2050052), wk =   0.0740741
        k(    7) = (   0.1666667   0.0000000  -0.1461006), wk =   0.0740741
        k(    8) = (   0.1666667   0.1919496   0.0294523), wk =   0.1481481
        k(    9) = (   0.1666667   0.1919496   0.2050052), wk =   0.1481481
        k(   10) = (   0.1666667   0.1919496  -0.1461006), wk =   0.1481481
        k(   11) = (   0.3333333   0.0000000   0.0589046), wk =   0.0740741
        k(   12) = (   0.3333333   0.0000000   0.2344575), wk =   0.0740741
        k(   13) = (   0.3333333   0.0000000  -0.1166483), wk =   0.0740741
        k(   14) = (   0.3333333   0.1919496   0.0589046), wk =   0.1481481
        k(   15) = (   0.3333333   0.1919496   0.2344575), wk =   0.1481481
        k(   16) = (   0.3333333   0.1919496  -0.1166483), wk =   0.1481481
        k(   17) = (  -0.5000000   0.0000000  -0.0883569), wk =   0.0370370
        k(   18) = (  -0.5000000   0.0000000   0.0871960), wk =   0.0740741
        k(   19) = (  -0.5000000   0.1919496  -0.0883569), wk =   0.0740741
        k(   20) = (  -0.5000000   0.1919496   0.0871960), wk =   0.1481481

                       cryst. coord.
        k(    1) = (   0.0000000   0.0000000   0.0000000), wk =   0.0370370
        k(    2) = (   0.0000000   0.0000000   0.3333333), wk =   0.0740741
        k(    3) = (   0.0000000   0.3333333   0.0000000), wk =   0.0740741
        k(    4) = (   0.0000000   0.3333333   0.3333333), wk =   0.1481481
        k(    5) = (   0.1666667   0.0000000   0.0000000), wk =   0.0740741
        k(    6) = (   0.1666667   0.0000000   0.3333333), wk =   0.0740741
        k(    7) = (   0.1666667   0.0000000  -0.3333333), wk =   0.0740741
        k(    8) = (   0.1666667   0.3333333   0.0000000), wk =   0.1481481
        k(    9) = (   0.1666667   0.3333333   0.3333333), wk =   0.1481481
        k(   10) = (   0.1666667   0.3333333  -0.3333333), wk =   0.1481481
        k(   11) = (   0.3333333   0.0000000   0.0000000), wk =   0.0740741
        k(   12) = (   0.3333333   0.0000000   0.3333333), wk =   0.0740741
        k(   13) = (   0.3333333   0.0000000  -0.3333333), wk =   0.0740741
        k(   14) = (   0.3333333   0.3333333   0.0000000), wk =   0.1481481
        k(   15) = (   0.3333333   0.3333333   0.3333333), wk =   0.1481481
        k(   16) = (   0.3333333   0.3333333  -0.3333333), wk =   0.1481481
        k(   17) = (  -0.5000000   0.0000000   0.0000000), wk =   0.0370370
        k(   18) = (  -0.5000000   0.0000000   0.3333333), wk =   0.0740741
        k(   19) = (  -0.5000000   0.3333333   0.0000000), wk =   0.0740741
        k(   20) = (  -0.5000000   0.3333333   0.3333333), wk =   0.1481481

     Dense  grid:   583539 G-vectors     FFT dimensions: (  72, 125, 135)

     Smooth grid:   206401 G-vectors     FFT dimensions: (  50,  90,  96)

     Dynamical RAM for                 wfc:      15.44 MB

     Dynamical RAM for     wfc (w. buffer):     324.34 MB

     Dynamical RAM for           str. fact:      15.58 MB

     Dynamical RAM for           local pot:       0.00 MB

     Dynamical RAM for          nlocal pot:      43.09 MB

     Dynamical RAM for                qrad:      12.30 MB

     Dynamical RAM for          rho,v,vnew:      13.68 MB

     Dynamical RAM for               rhoin:       4.56 MB

     Dynamical RAM for            rho*nmix:      35.62 MB

     Dynamical RAM for           G-vectors:       8.74 MB

     Dynamical RAM for          h,s,v(r/c):       1.13 MB

     Dynamical RAM for          <psi|beta>:       1.05 MB

     Dynamical RAM for                 psi:      30.89 MB

     Dynamical RAM for                hpsi:      30.89 MB

     Dynamical RAM for                spsi:      30.89 MB

     Dynamical RAM for      wfcinit/wfcrot:      36.77 MB

     Dynamical RAM for           addusdens:     467.46 MB

     Dynamical RAM for          addusforce:     571.07 MB

     Dynamical RAM for         addusstress:     447.43 MB

     Estimated static dynamical RAM per process >     451.77 MB

     Estimated max dynamical RAM per process >       1.03 GB

     Estimated total dynamical RAM >       4.13 GB

     Check: negative core charge=   -0.000004

     Initial potential from superposition of free atoms

     starting charge     261.9493, renormalised to     262.0000
     Starting wfcs are  183 randomized atomic wfcs
     Checking if some PAW data can be deallocated... 
       PAW data deallocated on    3 nodes for type:  1
       PAW data deallocated on    3 nodes for type:  2
       PAW data deallocated on    3 nodes for type:  3
       PAW data deallocated on    3 nodes for type:  4
       PAW data deallocated on    3 nodes for type:  5
       PAW data deallocated on    1 nodes for type:  6
       PAW data deallocated on    2 nodes for type:  7

     total cpu time spent up to now is      116.4 secs

     Self-consistent Calculation

     iteration #  1     ecut=    60.00 Ry     beta= 0.70
     Davidson diagonalization with overlap

---- Real-time Memory Report at c_bands before calling an iterative solver
           552 MiB given to the printing process from OS
             0 MiB allocation reported by mallinfo(arena+hblkhd)
          6521 MiB available memory on the node where the printing process lives
------------------
     ethr =  1.00E-02,  avg # of iterations =  5.8

     total cpu time spent up to now is      827.0 secs

     total energy              =   -2623.84707735 Ry
     estimated scf accuracy    <      12.22282461 Ry

     iteration #  2     ecut=    60.00 Ry     beta= 0.70
     Davidson diagonalization with overlap

---- Real-time Memory Report at c_bands before calling an iterative solver
           936 MiB given to the printing process from OS
             0 MiB allocation reported by mallinfo(arena+hblkhd)
          2734 MiB available memory on the node where the printing process lives
------------------
     ethr =  4.67E-03,  avg # of iterations =  5.2

     total cpu time spent up to now is     1939.5 secs

     total energy              =   -2629.18886515 Ry
     estimated scf accuracy    <      10.84844695 Ry

     iteration #  3     ecut=    60.00 Ry     beta= 0.70
     Davidson diagonalization with overlap

---- Real-time Memory Report at c_bands before calling an iterative solver
           938 MiB given to the printing process from OS
             0 MiB allocation reported by mallinfo(arena+hblkhd)
          2970 MiB available memory on the node where the printing process lives
------------------
     ethr =  4.14E-03,  avg # of iterations =  2.0

     total cpu time spent up to now is     2518.1 secs

     total energy              =   -2630.03103139 Ry
     estimated scf accuracy    <       2.88161184 Ry

     iteration #  4     ecut=    60.00 Ry     beta= 0.70
     Davidson diagonalization with overlap

---- Real-time Memory Report at c_bands before calling an iterative solver
           940 MiB given to the printing process from OS
             0 MiB allocation reported by mallinfo(arena+hblkhd)
          2618 MiB available memory on the node where the printing process lives
------------------
     ethr =  1.10E-03,  avg # of iterations =  4.5

     total cpu time spent up to now is     3261.7 secs

     total energy              =   -2630.88399857 Ry
     estimated scf accuracy    <       0.49210440 Ry

     iteration #  5     ecut=    60.00 Ry     beta= 0.70
     Davidson diagonalization with overlap

---- Real-time Memory Report at c_bands before calling an iterative solver
           942 MiB given to the printing process from OS
             0 MiB allocation reported by mallinfo(arena+hblkhd)
          2613 MiB available memory on the node where the printing process lives
------------------
     c_bands:  1 eigenvalues not converged
     c_bands:  5 eigenvalues not converged
     c_bands:  1 eigenvalues not converged
     c_bands:  1 eigenvalues not converged
     c_bands:  1 eigenvalues not converged
     ethr =  1.88E-04,  avg # of iterations = 15.3

     total cpu time spent up to now is     4312.8 secs

     total energy              =   -2631.17576777 Ry
     estimated scf accuracy    <       0.07863256 Ry

     iteration #  6     ecut=    60.00 Ry     beta= 0.70
     Davidson diagonalization with overlap

---- Real-time Memory Report at c_bands before calling an iterative solver
           944 MiB given to the printing process from OS
             0 MiB allocation reported by mallinfo(arena+hblkhd)
          2748 MiB available memory on the node where the printing process lives
------------------
     c_bands:  2 eigenvalues not converged
     c_bands:  1 eigenvalues not converged
     c_bands:  2 eigenvalues not converged
     c_bands:  1 eigenvalues not converged
     c_bands:  1 eigenvalues not converged
     c_bands:  2 eigenvalues not converged
     c_bands:  3 eigenvalues not converged
     c_bands:  1 eigenvalues not converged
     c_bands:  1 eigenvalues not converged
     ethr =  3.00E-05,  avg # of iterations = 17.1

     total cpu time spent up to now is     5448.6 secs

     total energy              =   -2631.19038718 Ry
     estimated scf accuracy    <       0.05167700 Ry

     iteration #  7     ecut=    60.00 Ry     beta= 0.70
     Davidson diagonalization with overlap

---- Real-time Memory Report at c_bands before calling an iterative solver
           945 MiB given to the printing process from OS
             0 MiB allocation reported by mallinfo(arena+hblkhd)
          2562 MiB available memory on the node where the printing process lives
------------------
     ethr =  1.97E-05,  avg # of iterations =  4.0

     total cpu time spent up to now is     6036.8 secs

     total energy              =   -2631.18741189 Ry
     estimated scf accuracy    <       0.01872854 Ry

     iteration #  8     ecut=    60.00 Ry     beta= 0.70
     Davidson diagonalization with overlap

---- Real-time Memory Report at c_bands before calling an iterative solver
           947 MiB given to the printing process from OS
             0 MiB allocation reported by mallinfo(arena+hblkhd)
          2561 MiB available memory on the node where the printing process lives
------------------
     c_bands:  2 eigenvalues not converged
     c_bands:  3 eigenvalues not converged
     c_bands:  1 eigenvalues not converged
     c_bands:  1 eigenvalues not converged
     ethr =  7.15E-06,  avg # of iterations = 12.9

     total cpu time spent up to now is     6853.0 secs

     total energy              =   -2631.19264583 Ry
     estimated scf accuracy    <       0.00158739 Ry

     iteration #  9     ecut=    60.00 Ry     beta= 0.70
     Davidson diagonalization with overlap

---- Real-time Memory Report at c_bands before calling an iterative solver
           949 MiB given to the printing process from OS
             0 MiB allocation reported by mallinfo(arena+hblkhd)
          2550 MiB available memory on the node where the printing process lives
------------------
     c_bands:  1 eigenvalues not converged
     c_bands:  1 eigenvalues not converged
     c_bands:  1 eigenvalues not converged
     ethr =  6.06E-07,  avg # of iterations = 11.4

     total cpu time spent up to now is     8103.6 secs

     total energy              =   -2631.19406862 Ry
     estimated scf accuracy    <       0.00028973 Ry

     iteration # 10     ecut=    60.00 Ry     beta= 0.70
     Davidson diagonalization with overlap

---- Real-time Memory Report at c_bands before calling an iterative solver
           950 MiB given to the printing process from OS
             0 MiB allocation reported by mallinfo(arena+hblkhd)
          2631 MiB available memory on the node where the printing process lives
------------------
     ethr =  1.11E-07,  avg # of iterations =  6.6

     total cpu time spent up to now is     8938.9 secs

     total energy              =   -2631.19414193 Ry
     estimated scf accuracy    <       0.00010269 Ry

     iteration # 11     ecut=    60.00 Ry     beta= 0.70
     Davidson diagonalization with overlap

---- Real-time Memory Report at c_bands before calling an iterative solver
           950 MiB given to the printing process from OS
             0 MiB allocation reported by mallinfo(arena+hblkhd)
          2741 MiB available memory on the node where the printing process lives
------------------
     ethr =  3.92E-08,  avg # of iterations =  4.3

     total cpu time spent up to now is     9673.9 secs

     total energy              =   -2631.19416844 Ry
     estimated scf accuracy    <       0.00000611 Ry

     iteration # 12     ecut=    60.00 Ry     beta= 0.70
     Davidson diagonalization with overlap

---- Real-time Memory Report at c_bands before calling an iterative solver
           950 MiB given to the printing process from OS
             0 MiB allocation reported by mallinfo(arena+hblkhd)
          2498 MiB available memory on the node where the printing process lives
------------------
     ethr =  2.33E-09,  avg # of iterations =  9.8

     total cpu time spent up to now is    11495.6 secs

     total energy              =   -2631.19418045 Ry
     estimated scf accuracy    <       0.00002363 Ry

     iteration # 13     ecut=    60.00 Ry     beta= 0.70
     Davidson diagonalization with overlap

---- Real-time Memory Report at c_bands before calling an iterative solver
           950 MiB given to the printing process from OS
             0 MiB allocation reported by mallinfo(arena+hblkhd)
          2479 MiB available memory on the node where the printing process lives
------------------
     ethr =  2.33E-09,  avg # of iterations =  2.8

     total cpu time spent up to now is    12148.4 secs

     total energy              =   -2631.19417744 Ry
     estimated scf accuracy    <       0.00000900 Ry

     iteration # 14     ecut=    60.00 Ry     beta= 0.70
     Davidson diagonalization with overlap

---- Real-time Memory Report at c_bands before calling an iterative solver
           950 MiB given to the printing process from OS
             0 MiB allocation reported by mallinfo(arena+hblkhd)
          2525 MiB available memory on the node where the printing process lives
------------------
     ethr =  2.33E-09,  avg # of iterations =  4.0

     total cpu time spent up to now is    13084.8 secs

     End of self-consistent calculation

          k = 0.0000 0.0000 0.0000 ( 25799 PWs)   bands (ev):

   -77.9380 -67.4591 -67.4223 -67.3469 -66.8879 -66.8614 -44.0967 -44.0751
   -43.9845 -34.2319 -34.2044 -34.2036 -34.1793 -34.1790 -34.1629 -34.1082
   -34.1076 -34.0820 -33.6636 -33.6382 -33.6365 -33.6234 -33.6232 -33.5794
   -22.9959 -22.9477 -15.0636 -15.0109 -14.1219 -14.0767 -13.6001 -13.5774
   -13.3907 -13.2668 -13.2150 -13.0835 -12.8467 -12.8311 -12.8130 -12.7887
   -12.7089 -12.5884 -12.4447 -12.3739 -12.2631 -12.2365 -12.1732 -12.0323
   -11.0950 -10.8529  -6.5644  -6.5129  -6.4919  -6.4814  -6.4325  -6.4248
    -4.2484  -4.1906  -2.3912  -2.2930  -1.7675  -1.3353  -1.1214  -1.1199
    -1.0694  -0.9739  -0.6245  -0.5128  -0.4045  -0.3111  -0.2975  -0.1114
     0.0715   0.1468   0.2800   0.5276   0.6133   0.6397   0.7406   0.9324
     0.9537   1.1847   1.3207   1.3780   1.4354   1.5802   1.5819   1.6889
     1.8861   1.8974   2.0211   2.1176   2.1378   2.2339   2.2954   2.3609
     2.4693   2.4701   2.6063   2.6940   2.7623   2.8076   2.8418   2.9043
     2.9537   3.0699   3.0902   3.1654   3.2399   3.2493   3.3496   3.3776
     3.4792   3.4972   3.5343   3.6135   3.6541   3.7334   3.8489   3.8711
     3.9410   4.0025   4.0032   4.0329   4.0535   4.2921   4.5016   4.6132
     8.2345   8.3030   8.4316   9.2256   9.7041   9.8312  10.7256  11.4165
    11.6830  12.0233  12.2182  12.3546  12.6515  12.7949  13.1035  13.1479
    13.2045  13.3852  13.3947  13.6217  13.7128  13.7417  13.8919  13.9015
    13.9477  14.1694  14.2849  14.3443  14.4294

     occupation numbers 
     1.0000   1.0000   1.0000   1.0000   1.0000   1.0000   1.0000   1.0000
     1.0000   1.0000   1.0000   1.0000   1.0000   1.0000   1.0000   1.0000
     1.0000   1.0000   1.0000   1.0000   1.0000   1.0000   1.0000   1.0000
     1.0000   1.0000   1.0000   1.0000   1.0000   1.0000   1.0000   1.0000
     1.0000   1.0000   1.0000   1.0000   1.0000   1.0000   1.0000   1.0000
     1.0000   1.0000   1.0000   1.0000   1.0000   1.0000   1.0000   1.0000
     1.0000   1.0000   1.0000   1.0000   1.0000   1.0000   1.0000   1.0000
     1.0000   1.0000   1.0000   1.0000   1.0000   1.0000   1.0000   1.0000
     1.0000   1.0000   1.0000   1.0000   1.0000   1.0000   1.0000   1.0000
     1.0000   1.0000   1.0000   1.0000   1.0000   1.0000   1.0000   1.0000
     1.0000   1.0000   1.0000   1.0000   1.0000   1.0000   1.0000   1.0000
     1.0000   1.0000   1.0000   1.0000   1.0000   1.0000   1.0000   1.0000
     1.0000   1.0000   1.0000   1.0000   1.0000   1.0000   1.0000   1.0000
     1.0000   1.0000   1.0000   1.0000   1.0000   1.0000   1.0000   1.0000
     1.0000   1.0000   1.0000   1.0000   1.0000   1.0000   1.0000   1.0000
     1.0000   1.0000   1.0000   1.0000   1.0000   1.0000   1.0000   1.0000
     1.0000   1.0000   1.0000   0.0000   0.0000   0.0000   0.0000   0.0000
     0.0000   0.0000   0.0000   0.0000   0.0000   0.0000   0.0000   0.0000
     0.0000   0.0000   0.0000   0.0000   0.0000   0.0000   0.0000   0.0000
     0.0000   0.0000   0.0000   0.0000   0.0000

          k = 0.0000 0.0000 0.1756 ( 25812 PWs)   bands (ev):

   -77.9380 -67.4591 -67.4223 -67.3469 -66.8879 -66.8614 -44.0967 -44.0751
   -43.9846 -34.2319 -34.2044 -34.2036 -34.1793 -34.1790 -34.1629 -34.1082
   -34.1076 -34.0820 -33.6636 -33.6382 -33.6365 -33.6234 -33.6232 -33.5794
   -22.9959 -22.9477 -15.0509 -15.0244 -14.1111 -14.0880 -13.6006 -13.5769
   -13.3797 -13.2869 -13.2076 -13.0788 -12.8483 -12.8325 -12.8090 -12.7941
   -12.7026 -12.5925 -12.4375 -12.3808 -12.2659 -12.2331 -12.1673 -12.0387
   -11.0947 -10.8536  -6.5644  -6.5130  -6.4919  -6.4814  -6.4324  -6.4248
    -4.2446  -4.1949  -2.3685  -2.3196  -1.7360  -1.3239  -1.1435  -1.0885
    -1.0638  -0.9980  -0.5967  -0.5277  -0.4395  -0.3059  -0.2868  -0.2062
     0.0954   0.1791   0.2306   0.4790   0.6063   0.6103   0.7661   0.9529
     0.9957   1.2505   1.2641   1.3817   1.4890   1.5103   1.6254   1.7476
     1.9057   1.9182   2.0961   2.1270   2.1767   2.2274   2.3138   2.3566
     2.3986   2.4750   2.6195   2.6840   2.7186   2.7384   2.8448   2.8685
     2.8904   3.1087   3.1226   3.1669   3.1799   3.2403   3.3687   3.4059
     3.4383   3.4942   3.5517   3.6490   3.6741   3.7910   3.8226   3.8611
     3.9091   3.9533   3.9759   4.0351   4.0619   4.3309   4.4981   4.6177
     8.2368   8.3026   8.4305   9.5289   9.6886   9.8444  10.2669  11.4536
    11.7452  11.9211  12.2398  12.2842  12.7606  12.9885  13.0804  13.1866
    13.3157  13.3539  13.4313  13.5653  13.6061  13.7729  13.8616  13.8906
    14.0201  14.1112  14.2455  14.3442  14.3702

     occupation numbers 
     1.0000   1.0000   1.0000   1.0000   1.0000   1.0000   1.0000   1.0000
     1.0000   1.0000   1.0000   1.0000   1.0000   1.0000   1.0000   1.0000
     1.0000   1.0000   1.0000   1.0000   1.0000   1.0000   1.0000   1.0000
     1.0000   1.0000   1.0000   1.0000   1.0000   1.0000   1.0000   1.0000
     1.0000   1.0000   1.0000   1.0000   1.0000   1.0000   1.0000   1.0000
     1.0000   1.0000   1.0000   1.0000   1.0000   1.0000   1.0000   1.0000
     1.0000   1.0000   1.0000   1.0000   1.0000   1.0000   1.0000   1.0000
     1.0000   1.0000   1.0000   1.0000   1.0000   1.0000   1.0000   1.0000
     1.0000   1.0000   1.0000   1.0000   1.0000   1.0000   1.0000   1.0000
     1.0000   1.0000   1.0000   1.0000   1.0000   1.0000   1.0000   1.0000
     1.0000   1.0000   1.0000   1.0000   1.0000   1.0000   1.0000   1.0000
     1.0000   1.0000   1.0000   1.0000   1.0000   1.0000   1.0000   1.0000
     1.0000   1.0000   1.0000   1.0000   1.0000   1.0000   1.0000   1.0000
     1.0000   1.0000   1.0000   1.0000   1.0000   1.0000   1.0000   1.0000
     1.0000   1.0000   1.0000   1.0000   1.0000   1.0000   1.0000   1.0000
     1.0000   1.0000   1.0000   1.0000   1.0000   1.0000   1.0000   1.0000
     1.0000   1.0000   1.0000   0.0000   0.0000   0.0000   0.0000   0.0000
     0.0000   0.0000   0.0000   0.0000   0.0000   0.0000   0.0000   0.0000
     0.0000   0.0000   0.0000   0.0000   0.0000   0.0000   0.0000   0.0000
     0.0000   0.0000   0.0000   0.0000   0.0000

          k = 0.0000 0.1919 0.0000 ( 25771 PWs)   bands (ev):

   -77.9379 -67.4591 -67.4223 -67.3469 -66.8879 -66.8614 -44.0967 -44.0751
   -43.9846 -34.2319 -34.2043 -34.2036 -34.1794 -34.1790 -34.1629 -34.1081
   -34.1076 -34.0820 -33.6636 -33.6382 -33.6364 -33.6234 -33.6231 -33.5794
   -22.9959 -22.9477 -15.0584 -15.0058 -14.1568 -14.1077 -13.6002 -13.5775
   -13.3017 -13.2066 -13.1623 -13.0922 -12.9107 -12.8788 -12.8365 -12.8111
   -12.7203 -12.5845 -12.4350 -12.3697 -12.2629 -12.2362 -12.1673 -12.0288
   -11.0935 -10.8524  -6.5627  -6.5149  -6.4917  -6.4804  -6.4331  -6.4255
    -4.2091  -4.1500  -2.5348  -2.4313  -1.7157  -1.3833  -1.0664  -1.0543
    -0.9518  -0.9000  -0.6984  -0.5891  -0.4024  -0.2599  -0.2148  -0.1001
    -0.0262   0.2079   0.2700   0.4953   0.5655   0.6187   0.7479   0.9331
     0.9643   1.1722   1.2302   1.3573   1.4428   1.5980   1.6078   1.7401
     1.9369   1.9513   2.0092   2.1249   2.1918   2.2491   2.3284   2.4034
     2.4406   2.5067   2.5900   2.6944   2.7376   2.7937   2.8099   2.9376
     3.0066   3.0746   3.1118   3.1614   3.2660   3.2803   3.3407   3.3845
     3.4450   3.4501   3.5016   3.5995   3.6553   3.6777   3.8617   3.8852
     3.9157   3.9794   3.9888   4.0613   4.0674   4.2877   4.2979   4.6032
     8.2348   8.3140   8.4312   9.6003   9.6597   9.8580  10.6003  10.9683
    11.5845  11.9582  12.3755  12.6663  12.6912  12.9070  13.0685  13.1528
    13.2520  13.3864  13.4238  13.5589  13.5827  13.7088  13.7693  13.8784
    13.9060  13.9625  14.3689  14.4457  14.5701

     occupation numbers 
     1.0000   1.0000   1.0000   1.0000   1.0000   1.0000   1.0000   1.0000
     1.0000   1.0000   1.0000   1.0000   1.0000   1.0000   1.0000   1.0000
     1.0000   1.0000   1.0000   1.0000   1.0000   1.0000   1.0000   1.0000
     1.0000   1.0000   1.0000   1.0000   1.0000   1.0000   1.0000   1.0000
     1.0000   1.0000   1.0000   1.0000   1.0000   1.0000   1.0000   1.0000
     1.0000   1.0000   1.0000   1.0000   1.0000   1.0000   1.0000   1.0000
     1.0000   1.0000   1.0000   1.0000   1.0000   1.0000   1.0000   1.0000
     1.0000   1.0000   1.0000   1.0000   1.0000   1.0000   1.0000   1.0000
     1.0000   1.0000   1.0000   1.0000   1.0000   1.0000   1.0000   1.0000
     1.0000   1.0000   1.0000   1.0000   1.0000   1.0000   1.0000   1.0000
     1.0000   1.0000   1.0000   1.0000   1.0000   1.0000   1.0000   1.0000
     1.0000   1.0000   1.0000   1.0000   1.0000   1.0000   1.0000   1.0000
     1.0000   1.0000   1.0000   1.0000   1.0000   1.0000   1.0000   1.0000
     1.0000   1.0000   1.0000   1.0000   1.0000   1.0000   1.0000   1.0000
     1.0000   1.0000   1.0000   1.0000   1.0000   1.0000   1.0000   1.0000
     1.0000   1.0000   1.0000   1.0000   1.0000   1.0000   1.0000   1.0000
     1.0000   1.0000   1.0000   0.0000   0.0000   0.0000   0.0000   0.0000
     0.0000   0.0000   0.0000   0.0000   0.0000   0.0000   0.0000   0.0000
     0.0000   0.0000   0.0000   0.0000   0.0000   0.0000   0.0000   0.0000
     0.0000   0.0000   0.0000   0.0000   0.0000

          k = 0.0000 0.1919 0.1756 ( 25786 PWs)   bands (ev):

   -77.9380 -67.4591 -67.4223 -67.3469 -66.8879 -66.8614 -44.0967 -44.0751
   -43.9846 -34.2319 -34.2043 -34.2036 -34.1794 -34.1790 -34.1629 -34.1081
   -34.1076 -34.0820 -33.6636 -33.6382 -33.6364 -33.6234 -33.6231 -33.5794
   -22.9959 -22.9477 -15.0457 -15.0194 -14.1450 -14.1204 -13.6007 -13.5769
   -13.2943 -13.2015 -13.1810 -13.0811 -12.9248 -12.8627 -12.8379 -12.8145
   -12.7173 -12.5887 -12.4282 -12.3764 -12.2656 -12.2329 -12.1609 -12.0351
   -11.0932 -10.8531  -6.5627  -6.5150  -6.4917  -6.4802  -6.4330  -6.4255
    -4.2024  -4.1571  -2.5113  -2.4572  -1.6885  -1.3730  -1.0619  -1.0540
    -0.9466  -0.9109  -0.6740  -0.6155  -0.4209  -0.2687  -0.2180  -0.1739
     0.0207   0.1975   0.2227   0.4795   0.5663   0.5755   0.7854   0.9313
     1.0220   1.1378   1.2100   1.4072   1.5062   1.5869   1.7051   1.7642
     1.9043   1.9804   2.0457   2.0990   2.1635   2.2985   2.3247   2.3922
     2.4631   2.4918   2.5699   2.6856   2.7206   2.7347   2.8514   2.8770
     2.9706   3.0575   3.1337   3.1689   3.2249   3.2834   3.3272   3.3560
     3.4343   3.4666   3.5488   3.5878   3.6859   3.7367   3.8260   3.8594
     3.9148   3.9613   3.9753   4.0265   4.0793   4.3076   4.3317   4.6096
     8.2372   8.3137   8.4290   9.6114   9.8022   9.9619  10.5601  10.7917
    11.2951  11.9307  12.3461  12.7220  12.7917  12.9832  13.1641  13.2340
    13.3265  13.3789  13.4861  13.5505  13.6408  13.7096  13.7294  13.8403
    13.8884  14.0871  14.3243  14.3780  14.4795

     occupation numbers 
     1.0000   1.0000   1.0000   1.0000   1.0000   1.0000   1.0000   1.0000
     1.0000   1.0000   1.0000   1.0000   1.0000   1.0000   1.0000   1.0000
     1.0000   1.0000   1.0000   1.0000   1.0000   1.0000   1.0000   1.0000
     1.0000   1.0000   1.0000   1.0000   1.0000   1.0000   1.0000   1.0000
     1.0000   1.0000   1.0000   1.0000   1.0000   1.0000   1.0000   1.0000
     1.0000   1.0000   1.0000   1.0000   1.0000   1.0000   1.0000   1.0000
     1.0000   1.0000   1.0000   1.0000   1.0000   1.0000   1.0000   1.0000
     1.0000   1.0000   1.0000   1.0000   1.0000   1.0000   1.0000   1.0000
     1.0000   1.0000   1.0000   1.0000   1.0000   1.0000   1.0000   1.0000
     1.0000   1.0000   1.0000   1.0000   1.0000   1.0000   1.0000   1.0000
     1.0000   1.0000   1.0000   1.0000   1.0000   1.0000   1.0000   1.0000
     1.0000   1.0000   1.0000   1.0000   1.0000   1.0000   1.0000   1.0000
     1.0000   1.0000   1.0000   1.0000   1.0000   1.0000   1.0000   1.0000
     1.0000   1.0000   1.0000   1.0000   1.0000   1.0000   1.0000   1.0000
     1.0000   1.0000   1.0000   1.0000   1.0000   1.0000   1.0000   1.0000
     1.0000   1.0000   1.0000   1.0000   1.0000   1.0000   1.0000   1.0000
     1.0000   1.0000   1.0000   0.0000   0.0000   0.0000   0.0000   0.0000
     0.0000   0.0000   0.0000   0.0000   0.0000   0.0000   0.0000   0.0000
     0.0000   0.0000   0.0000   0.0000   0.0000   0.0000   0.0000   0.0000
     0.0000   0.0000   0.0000   0.0000   0.0000

          k = 0.1667 0.0000 0.0295 ( 25803 PWs)   bands (ev):

   -77.9380 -67.4591 -67.4223 -67.3469 -66.8879 -66.8615 -44.0967 -44.0751
   -43.9846 -34.2316 -34.2052 -34.2032 -34.1796 -34.1785 -34.1630 -34.1082
   -34.1075 -34.0820 -33.6636 -33.6391 -33.6348 -33.6247 -33.6224 -33.5796
   -22.9957 -22.9476 -15.0049 -14.9533 -14.1397 -14.0973 -13.7153 -13.6846
   -13.3218 -13.2003 -13.1652 -13.0643 -12.8658 -12.8499 -12.8000 -12.7934
   -12.6984 -12.5966 -12.4614 -12.3920 -12.3255 -12.2762 -12.1526 -12.0208
   -11.0913 -10.8573  -6.5647  -6.5167  -6.4907  -6.4800  -6.4324  -6.4213
    -4.0910  -4.0305  -2.3570  -2.2584  -1.7650  -1.4084  -1.3632  -1.2938
    -0.8575  -0.7769  -0.6267  -0.5680  -0.4137  -0.2956  -0.2653  -0.1092
     0.0620   0.1705   0.2624   0.5080   0.5532   0.6789   0.6975   0.8218
     1.1033   1.2204   1.3084   1.3833   1.3886   1.4911   1.5989   1.6591
     1.7559   1.9542   1.9804   2.0744   2.1258   2.2965   2.3528   2.4112
     2.4585   2.5198   2.6210   2.6681   2.7600   2.7732   2.8436   2.9303
     2.9766   3.0104   3.1162   3.1663   3.1877   3.2660   3.3053   3.3556
     3.4628   3.5043   3.5414   3.6511   3.6798   3.7262   3.7773   3.8463
     3.8995   3.9432   4.0010   4.0412   4.0647   4.2299   4.4477   4.5297
     8.2358   8.3040   8.4089   9.5510   9.7116   9.8117  10.9188  11.4732
    11.8011  12.0743  12.2302  12.5019  12.6199  12.9017  13.0012  13.1005
    13.2457  13.3607  13.4039  13.6090  13.6726  13.7158  13.8201  13.8829
    13.9636  14.2435  14.2540  14.3429  14.4604

     occupation numbers 
     1.0000   1.0000   1.0000   1.0000   1.0000   1.0000   1.0000   1.0000
     1.0000   1.0000   1.0000   1.0000   1.0000   1.0000   1.0000   1.0000
     1.0000   1.0000   1.0000   1.0000   1.0000   1.0000   1.0000   1.0000
     1.0000   1.0000   1.0000   1.0000   1.0000   1.0000   1.0000   1.0000
     1.0000   1.0000   1.0000   1.0000   1.0000   1.0000   1.0000   1.0000
     1.0000   1.0000   1.0000   1.0000   1.0000   1.0000   1.0000   1.0000
     1.0000   1.0000   1.0000   1.0000   1.0000   1.0000   1.0000   1.0000
     1.0000   1.0000   1.0000   1.0000   1.0000   1.0000   1.0000   1.0000
     1.0000   1.0000   1.0000   1.0000   1.0000   1.0000   1.0000   1.0000
     1.0000   1.0000   1.0000   1.0000   1.0000   1.0000   1.0000   1.0000
     1.0000   1.0000   1.0000   1.0000   1.0000   1.0000   1.0000   1.0000
     1.0000   1.0000   1.0000   1.0000   1.0000   1.0000   1.0000   1.0000
     1.0000   1.0000   1.0000   1.0000   1.0000   1.0000   1.0000   1.0000
     1.0000   1.0000   1.0000   1.0000   1.0000   1.0000   1.0000   1.0000
     1.0000   1.0000   1.0000   1.0000   1.0000   1.0000   1.0000   1.0000
     1.0000   1.0000   1.0000   1.0000   1.0000   1.0000   1.0000   1.0000
     1.0000   1.0000   1.0000   0.0000   0.0000   0.0000   0.0000   0.0000
     0.0000   0.0000   0.0000   0.0000   0.0000   0.0000   0.0000   0.0000
     0.0000   0.0000   0.0000   0.0000   0.0000   0.0000   0.0000   0.0000
     0.0000   0.0000   0.0000   0.0000   0.0000

          k = 0.1667 0.0000 0.2050 ( 25826 PWs)   bands (ev):

   -77.9380 -67.4591 -67.4223 -67.3469 -66.8879 -66.8615 -44.0967 -44.0751
   -43.9846 -34.2316 -34.2052 -34.2032 -34.1796 -34.1785 -34.1631 -34.1082
   -34.1075 -34.0820 -33.6636 -33.6391 -33.6348 -33.6248 -33.6224 -33.5796
   -22.9957 -22.9476 -14.9890 -14.9701 -14.1304 -14.1072 -13.7114 -13.6887
   -13.3114 -13.2192 -13.1597 -13.0580 -12.8637 -12.8500 -12.8119 -12.7874
   -12.6924 -12.6011 -12.4551 -12.4000 -12.3176 -12.2830 -12.1435 -12.0287
   -11.0908 -10.8582  -6.5647  -6.5167  -6.4906  -6.4800  -6.4323  -6.4213
    -4.0925  -4.0293  -2.3376  -2.2822  -1.7306  -1.4449  -1.3349  -1.2798
    -0.8567  -0.7771  -0.6242  -0.5668  -0.4222  -0.2917  -0.2617  -0.2182
     0.1014   0.2002   0.2206   0.4449   0.5405   0.6666   0.6786   0.8777
     1.1669   1.2046   1.2934   1.3784   1.4289   1.5027   1.6125   1.6839
     1.8109   1.9373   2.0109   2.0706   2.2277   2.3161   2.3458   2.3838
     2.4548   2.5182   2.6041   2.6511   2.6541   2.7672   2.8323   2.8718
     2.9508   3.0360   3.1269   3.1708   3.2088   3.2536   3.2916   3.3609
     3.4274   3.5135   3.5500   3.6691   3.7070   3.7410   3.8197   3.8354
     3.8848   3.9143   3.9290   4.0419   4.0615   4.2769   4.4503   4.5431
     8.2379   8.3028   8.4081   9.6983   9.7632   9.9552  10.4121  11.5010
    11.8458  11.9906  12.2686  12.4143  12.5793  12.9154  13.1399  13.2553
    13.3390  13.4327  13.4489  13.5302  13.6284  13.7327  13.8497  13.8952
    13.9566  14.0330  14.1705  14.4267  14.4605

     occupation numbers 
     1.0000   1.0000   1.0000   1.0000   1.0000   1.0000   1.0000   1.0000
     1.0000   1.0000   1.0000   1.0000   1.0000   1.0000   1.0000   1.0000
     1.0000   1.0000   1.0000   1.0000   1.0000   1.0000   1.0000   1.0000
     1.0000   1.0000   1.0000   1.0000   1.0000   1.0000   1.0000   1.0000
     1.0000   1.0000   1.0000   1.0000   1.0000   1.0000   1.0000   1.0000
     1.0000   1.0000   1.0000   1.0000   1.0000   1.0000   1.0000   1.0000
     1.0000   1.0000   1.0000   1.0000   1.0000   1.0000   1.0000   1.0000
     1.0000   1.0000   1.0000   1.0000   1.0000   1.0000   1.0000   1.0000
     1.0000   1.0000   1.0000   1.0000   1.0000   1.0000   1.0000   1.0000
     1.0000   1.0000   1.0000   1.0000   1.0000   1.0000   1.0000   1.0000
     1.0000   1.0000   1.0000   1.0000   1.0000   1.0000   1.0000   1.0000
     1.0000   1.0000   1.0000   1.0000   1.0000   1.0000   1.0000   1.0000
     1.0000   1.0000   1.0000   1.0000   1.0000   1.0000   1.0000   1.0000
     1.0000   1.0000   1.0000   1.0000   1.0000   1.0000   1.0000   1.0000
     1.0000   1.0000   1.0000   1.0000   1.0000   1.0000   1.0000   1.0000
     1.0000   1.0000   1.0000   1.0000   1.0000   1.0000   1.0000   1.0000
     1.0000   1.0000   1.0000   0.0000   0.0000   0.0000   0.0000   0.0000
     0.0000   0.0000   0.0000   0.0000   0.0000   0.0000   0.0000   0.0000
     0.0000   0.0000   0.0000   0.0000   0.0000   0.0000   0.0000   0.0000
     0.0000   0.0000   0.0000   0.0000   0.0000

          k = 0.1667 0.0000-0.1461 ( 25786 PWs)   bands (ev):

   -77.9380 -67.4591 -67.4223 -67.3469 -66.8879 -66.8615 -44.0967 -44.0751
   -43.9846 -34.2316 -34.2052 -34.2032 -34.1796 -34.1785 -34.1630 -34.1082
   -34.1075 -34.0820 -33.6636 -33.6391 -33.6348 -33.6247 -33.6223 -33.5796
   -22.9957 -22.9476 -14.9958 -14.9630 -14.1314 -14.1062 -13.7103 -13.6898
   -13.3150 -13.2077 -13.1682 -13.0587 -12.8653 -12.8479 -12.8125 -12.7845
   -12.6958 -12.6006 -12.4514 -12.4033 -12.3072 -12.2934 -12.1439 -12.0276
   -11.0907 -10.8581  -6.5648  -6.5168  -6.4906  -6.4799  -6.4323  -6.4213
    -4.0761  -4.0460  -2.3331  -2.2852  -1.7436  -1.4422  -1.3317  -1.2863
    -0.8410  -0.7978  -0.5861  -0.5719  -0.4399  -0.2912  -0.2767  -0.1892
     0.0659   0.2046   0.2308   0.4568   0.5674   0.6616   0.7318   0.8635
     1.1171   1.1906   1.2809   1.3735   1.4444   1.5388   1.6198   1.6341
     1.8134   1.9244   2.0344   2.0463   2.1551   2.2779   2.3665   2.3952
     2.4535   2.5313   2.6093   2.6454   2.7234   2.7802   2.8263   2.8963
     2.9551   3.0205   3.1416   3.1862   3.2194   3.2616   3.2872   3.3919
     3.4383   3.5094   3.5713   3.6354   3.6553   3.7528   3.7692   3.8154
     3.8932   3.9324   3.9535   4.0264   4.0611   4.2790   4.4480   4.5459
     8.2359   8.3028   8.4096   9.6766   9.7009   9.8812  10.6132  11.5784
    11.8887  11.9433  12.3101  12.3872  12.6133  12.9929  13.0431  13.1684
    13.2497  13.3652  13.4507  13.5339  13.5999  13.7533  13.8031  13.8976
    13.9867  14.1183  14.2426  14.3977  14.4491

     occupation numbers 
     1.0000   1.0000   1.0000   1.0000   1.0000   1.0000   1.0000   1.0000
     1.0000   1.0000   1.0000   1.0000   1.0000   1.0000   1.0000   1.0000
     1.0000   1.0000   1.0000   1.0000   1.0000   1.0000   1.0000   1.0000
     1.0000   1.0000   1.0000   1.0000   1.0000   1.0000   1.0000   1.0000
     1.0000   1.0000   1.0000   1.0000   1.0000   1.0000   1.0000   1.0000
     1.0000   1.0000   1.0000   1.0000   1.0000   1.0000   1.0000   1.0000
     1.0000   1.0000   1.0000   1.0000   1.0000   1.0000   1.0000   1.0000
     1.0000   1.0000   1.0000   1.0000   1.0000   1.0000   1.0000   1.0000
     1.0000   1.0000   1.0000   1.0000   1.0000   1.0000   1.0000   1.0000
     1.0000   1.0000   1.0000   1.0000   1.0000   1.0000   1.0000   1.0000
     1.0000   1.0000   1.0000   1.0000   1.0000   1.0000   1.0000   1.0000
     1.0000   1.0000   1.0000   1.0000   1.0000   1.0000   1.0000   1.0000
     1.0000   1.0000   1.0000   1.0000   1.0000   1.0000   1.0000   1.0000
     1.0000   1.0000   1.0000   1.0000   1.0000   1.0000   1.0000   1.0000
     1.0000   1.0000   1.0000   1.0000   1.0000   1.0000   1.0000   1.0000
     1.0000   1.0000   1.0000   1.0000   1.0000   1.0000   1.0000   1.0000
     1.0000   1.0000   1.0000   0.0000   0.0000   0.0000   0.0000   0.0000
     0.0000   0.0000   0.0000   0.0000   0.0000   0.0000   0.0000   0.0000
     0.0000   0.0000   0.0000   0.0000   0.0000   0.0000   0.0000   0.0000
     0.0000   0.0000   0.0000   0.0000   0.0000

          k = 0.1667 0.1919 0.0295 ( 25796 PWs)   bands (ev):

   -77.9380 -67.4591 -67.4223 -67.3469 -66.8879 -66.8615 -44.0967 -44.0751
   -43.9846 -34.2316 -34.2052 -34.2032 -34.1796 -34.1785 -34.1631 -34.1082
   -34.1075 -34.0820 -33.6636 -33.6391 -33.6348 -33.6247 -33.6224 -33.5796
   -22.9957 -22.9476 -14.9999 -14.9484 -14.1704 -14.1241 -13.7021 -13.6752
   -13.2620 -13.1837 -13.1110 -13.0532 -12.8950 -12.8823 -12.8485 -12.8122
   -12.7175 -12.5924 -12.4555 -12.3798 -12.3207 -12.2796 -12.1494 -12.0189
   -11.0901 -10.8571  -6.5636  -6.5184  -6.4906  -6.4791  -6.4326  -6.4217
    -4.0548  -3.9931  -2.5139  -2.4118  -1.6907  -1.3482  -1.2709  -1.2366
    -0.8521  -0.7774  -0.7146  -0.5331  -0.4202  -0.2366  -0.2065  -0.0803
     0.0259   0.1730   0.2399   0.4750   0.5332   0.6455   0.7082   0.7944
     1.1150   1.1400   1.3144   1.3597   1.3997   1.4914   1.5921   1.7004
     1.8063   1.9333   1.9490   2.1152   2.1869   2.2959   2.3512   2.4015
     2.4917   2.5348   2.5895   2.7415   2.7714   2.8009   2.8677   2.9151
     2.9974   3.0597   3.1436   3.1676   3.2154   3.2585   3.3206   3.3750
     3.4146   3.4522   3.4976   3.6332   3.6563   3.6886   3.7851   3.8422
     3.8673   3.9023   3.9873   4.0515   4.0837   4.2198   4.3393   4.5301
     8.2357   8.3148   8.4076   9.6664   9.8111   9.9219  10.7641  11.1380
    11.6811  11.9956  12.3514  12.6533  12.7644  12.8599  13.1069  13.1748
    13.2492  13.3772  13.4154  13.5298  13.5794  13.6616  13.7684  13.8543
    14.0233  14.0919  14.3171  14.4915  14.6295

     occupation numbers 
     1.0000   1.0000   1.0000   1.0000   1.0000   1.0000   1.0000   1.0000
     1.0000   1.0000   1.0000   1.0000   1.0000   1.0000   1.0000   1.0000
     1.0000   1.0000   1.0000   1.0000   1.0000   1.0000   1.0000   1.0000
     1.0000   1.0000   1.0000   1.0000   1.0000   1.0000   1.0000   1.0000
     1.0000   1.0000   1.0000   1.0000   1.0000   1.0000   1.0000   1.0000
     1.0000   1.0000   1.0000   1.0000   1.0000   1.0000   1.0000   1.0000
     1.0000   1.0000   1.0000   1.0000   1.0000   1.0000   1.0000   1.0000
     1.0000   1.0000   1.0000   1.0000   1.0000   1.0000   1.0000   1.0000
     1.0000   1.0000   1.0000   1.0000   1.0000   1.0000   1.0000   1.0000
     1.0000   1.0000   1.0000   1.0000   1.0000   1.0000   1.0000   1.0000
     1.0000   1.0000   1.0000   1.0000   1.0000   1.0000   1.0000   1.0000
     1.0000   1.0000   1.0000   1.0000   1.0000   1.0000   1.0000   1.0000
     1.0000   1.0000   1.0000   1.0000   1.0000   1.0000   1.0000   1.0000
     1.0000   1.0000   1.0000   1.0000   1.0000   1.0000   1.0000   1.0000
     1.0000   1.0000   1.0000   1.0000   1.0000   1.0000   1.0000   1.0000
     1.0000   1.0000   1.0000   1.0000   1.0000   1.0000   1.0000   1.0000
     1.0000   1.0000   1.0000   0.0000   0.0000   0.0000   0.0000   0.0000
     0.0000   0.0000   0.0000   0.0000   0.0000   0.0000   0.0000   0.0000
     0.0000   0.0000   0.0000   0.0000   0.0000   0.0000   0.0000   0.0000
     0.0000   0.0000   0.0000   0.0000   0.0000

          k = 0.1667 0.1919 0.2050 ( 25776 PWs)   bands (ev):

   -77.9379 -67.4591 -67.4223 -67.3469 -66.8879 -66.8615 -44.0967 -44.0751
   -43.9846 -34.2316 -34.2052 -34.2032 -34.1796 -34.1785 -34.1630 -34.1082
   -34.1075 -34.0820 -33.6636 -33.6391 -33.6348 -33.6247 -33.6223 -33.5796
   -22.9957 -22.9476 -14.9840 -14.9652 -14.1582 -14.1371 -13.7004 -13.6770
   -13.2548 -13.1795 -13.1311 -13.0390 -12.9078 -12.8732 -12.8501 -12.8092
   -12.7149 -12.5972 -12.4502 -12.3869 -12.3157 -12.2834 -12.1404 -12.0266
   -11.0897 -10.8578  -6.5636  -6.5185  -6.4906  -6.4790  -6.4325  -6.4217
    -4.0530  -3.9951  -2.4897  -2.4387  -1.6642  -1.3381  -1.2887  -1.2187
    -0.8555  -0.7750  -0.7105  -0.5269  -0.4280  -0.2916  -0.1888  -0.1375
     0.0664   0.1544   0.2273   0.4410   0.5130   0.6296   0.6920   0.8406
     1.1019   1.1566   1.2869   1.4145   1.4442   1.5269   1.6232   1.7563
     1.8492   1.8893   1.9483   2.1007   2.2081   2.3109   2.3750   2.4182
     2.4757   2.5388   2.5695   2.6881   2.7299   2.7888   2.8602   2.9121
     2.9494   3.0671   3.1176   3.1843   3.2149   3.2457   3.3101   3.3278
     3.4041   3.4598   3.5869   3.6353   3.6596   3.7141   3.7685   3.8425
     3.8606   3.8971   3.9460   4.0212   4.0948   4.2622   4.3528   4.5425
     8.2379   8.3138   8.4061   9.6489   9.8194  10.2140  10.6992  10.9533
    11.3954  11.9648  12.3194  12.6494  12.8383  12.9047  13.1648  13.3280
    13.3532  13.4091  13.4735  13.5127  13.6163  13.7064  13.7721  13.8490
    13.9647  14.0985  14.2350  14.3832  14.6107

     occupation numbers 
     1.0000   1.0000   1.0000   1.0000   1.0000   1.0000   1.0000   1.0000
     1.0000   1.0000   1.0000   1.0000   1.0000   1.0000   1.0000   1.0000
     1.0000   1.0000   1.0000   1.0000   1.0000   1.0000   1.0000   1.0000
     1.0000   1.0000   1.0000   1.0000   1.0000   1.0000   1.0000   1.0000
     1.0000   1.0000   1.0000   1.0000   1.0000   1.0000   1.0000   1.0000
     1.0000   1.0000   1.0000   1.0000   1.0000   1.0000   1.0000   1.0000
     1.0000   1.0000   1.0000   1.0000   1.0000   1.0000   1.0000   1.0000
     1.0000   1.0000   1.0000   1.0000   1.0000   1.0000   1.0000   1.0000
     1.0000   1.0000   1.0000   1.0000   1.0000   1.0000   1.0000   1.0000
     1.0000   1.0000   1.0000   1.0000   1.0000   1.0000   1.0000   1.0000
     1.0000   1.0000   1.0000   1.0000   1.0000   1.0000   1.0000   1.0000
     1.0000   1.0000   1.0000   1.0000   1.0000   1.0000   1.0000   1.0000
     1.0000   1.0000   1.0000   1.0000   1.0000   1.0000   1.0000   1.0000
     1.0000   1.0000   1.0000   1.0000   1.0000   1.0000   1.0000   1.0000
     1.0000   1.0000   1.0000   1.0000   1.0000   1.0000   1.0000   1.0000
     1.0000   1.0000   1.0000   1.0000   1.0000   1.0000   1.0000   1.0000
     1.0000   1.0000   1.0000   0.0000   0.0000   0.0000   0.0000   0.0000
     0.0000   0.0000   0.0000   0.0000   0.0000   0.0000   0.0000   0.0000
     0.0000   0.0000   0.0000   0.0000   0.0000   0.0000   0.0000   0.0000
     0.0000   0.0000   0.0000   0.0000   0.0000

          k = 0.1667 0.1919-0.1461 ( 25782 PWs)   bands (ev):

   -77.9380 -67.4591 -67.4223 -67.3469 -66.8879 -66.8615 -44.0967 -44.0751
   -43.9846 -34.2316 -34.2052 -34.2032 -34.1796 -34.1785 -34.1630 -34.1082
   -34.1075 -34.0820 -33.6636 -33.6391 -33.6348 -33.6247 -33.6223 -33.5796
   -22.9957 -22.9476 -14.9908 -14.9582 -14.1609 -14.1342 -13.6979 -13.6796
   -13.2574 -13.1797 -13.1241 -13.0453 -12.9073 -12.8697 -12.8516 -12.8119
   -12.7149 -12.5963 -12.4457 -12.3901 -12.3070 -12.2930 -12.1407 -12.0256
   -11.0895 -10.8578  -6.5637  -6.5185  -6.4906  -6.4790  -6.4325  -6.4217
    -4.0378  -4.0107  -2.4900  -2.4379  -1.6737  -1.3415  -1.2930  -1.2142
    -0.8363  -0.7970  -0.6787  -0.5411  -0.4478  -0.2555  -0.2029  -0.1268
     0.0342   0.1704   0.2099   0.4711   0.5338   0.6221   0.7416   0.8332
     1.0948   1.1173   1.2767   1.3868   1.4471   1.5404   1.6266   1.7297
     1.8237   1.8984   1.9475   2.1196   2.2050   2.2686   2.3644   2.4123
     2.4912   2.5295   2.5711   2.7147   2.7641   2.8094   2.8409   2.9119
     2.9575   3.0733   3.1204   3.1917   3.2344   3.2457   3.3075   3.3666
     3.4359   3.4804   3.5234   3.6188   3.6842   3.7058   3.7426   3.8088
     3.8716   3.9024   3.9529   4.0328   4.0644   4.2723   4.3440   4.5390
     8.2359   8.3141   8.4085   9.6314   9.7956  10.1457  10.8447  10.9374
    11.4561  12.0315  12.3682  12.6655  12.7454  12.8987  13.1116  13.2492
    13.3034  13.3806  13.4718  13.5417  13.6133  13.6938  13.7275  13.9525
    13.9796  14.0440  14.2068  14.4075  14.5521

     occupation numbers 
     1.0000   1.0000   1.0000   1.0000   1.0000   1.0000   1.0000   1.0000
     1.0000   1.0000   1.0000   1.0000   1.0000   1.0000   1.0000   1.0000
     1.0000   1.0000   1.0000   1.0000   1.0000   1.0000   1.0000   1.0000
     1.0000   1.0000   1.0000   1.0000   1.0000   1.0000   1.0000   1.0000
     1.0000   1.0000   1.0000   1.0000   1.0000   1.0000   1.0000   1.0000
     1.0000   1.0000   1.0000   1.0000   1.0000   1.0000   1.0000   1.0000
     1.0000   1.0000   1.0000   1.0000   1.0000   1.0000   1.0000   1.0000
     1.0000   1.0000   1.0000   1.0000   1.0000   1.0000   1.0000   1.0000
     1.0000   1.0000   1.0000   1.0000   1.0000   1.0000   1.0000   1.0000
     1.0000   1.0000   1.0000   1.0000   1.0000   1.0000   1.0000   1.0000
     1.0000   1.0000   1.0000   1.0000   1.0000   1.0000   1.0000   1.0000
     1.0000   1.0000   1.0000   1.0000   1.0000   1.0000   1.0000   1.0000
     1.0000   1.0000   1.0000   1.0000   1.0000   1.0000   1.0000   1.0000
     1.0000   1.0000   1.0000   1.0000   1.0000   1.0000   1.0000   1.0000
     1.0000   1.0000   1.0000   1.0000   1.0000   1.0000   1.0000   1.0000
     1.0000   1.0000   1.0000   1.0000   1.0000   1.0000   1.0000   1.0000
     1.0000   1.0000   1.0000   0.0000   0.0000   0.0000   0.0000   0.0000
     0.0000   0.0000   0.0000   0.0000   0.0000   0.0000   0.0000   0.0000
     0.0000   0.0000   0.0000   0.0000   0.0000   0.0000   0.0000   0.0000
     0.0000   0.0000   0.0000   0.0000   0.0000

          k = 0.3333 0.0000 0.0589 ( 25772 PWs)   bands (ev):

   -77.9379 -67.4591 -67.4223 -67.3469 -66.8879 -66.8615 -44.0967 -44.0751
   -43.9846 -34.2310 -34.2065 -34.2026 -34.1797 -34.1779 -34.1633 -34.1081
   -34.1076 -34.0821 -33.6636 -33.6399 -33.6321 -33.6267 -33.6219 -33.5800
   -22.9954 -22.9473 -14.8434 -14.7954 -14.2611 -14.2236 -13.8359 -13.8006
   -13.2148 -13.1077 -13.0432 -13.0206 -12.9229 -12.8861 -12.8160 -12.8009
   -12.6999 -12.6112 -12.5157 -12.4624 -12.3985 -12.3169 -12.1321 -12.0117
   -11.0849 -10.8667  -6.5660  -6.5242  -6.4878  -6.4774  -6.4320  -6.4140
    -3.6808  -3.6103  -2.4889  -2.3811  -1.7669  -1.6195  -1.3575  -1.2044
    -0.8050  -0.7135  -0.6775  -0.6418  -0.3500  -0.2486  -0.1643  -0.0868
    -0.0496   0.1813   0.2973   0.4659   0.5403   0.6723   0.7090   0.7637
     1.0440   1.1716   1.2585   1.3186   1.4611   1.5002   1.5965   1.6184
     1.6902   1.7064   1.8512   2.0254   2.1387   2.3495   2.3913   2.4338
     2.4901   2.5872   2.7107   2.7608   2.7830   2.8157   2.8590   2.9460
     2.9774   3.0163   3.0770   3.1425   3.2072   3.2392   3.2770   3.3272
     3.4395   3.4641   3.5050   3.5971   3.6606   3.7027   3.7128   3.7847
     3.8240   3.8563   3.9690   4.0269   4.1011   4.1332   4.3397   4.4878
     8.2370   8.3070   8.3622   9.7257   9.7900  10.3309  11.3393  11.5865
    12.0018  12.1474  12.2886  12.3320  12.7850  12.7861  12.8444  13.1202
    13.2242  13.3131  13.5136  13.5876  13.6418  13.6767  13.8419  13.9979
    14.0484  14.2947  14.3264  14.4269  14.5293

     occupation numbers 
     1.0000   1.0000   1.0000   1.0000   1.0000   1.0000   1.0000   1.0000
     1.0000   1.0000   1.0000   1.0000   1.0000   1.0000   1.0000   1.0000
     1.0000   1.0000   1.0000   1.0000   1.0000   1.0000   1.0000   1.0000
     1.0000   1.0000   1.0000   1.0000   1.0000   1.0000   1.0000   1.0000
     1.0000   1.0000   1.0000   1.0000   1.0000   1.0000   1.0000   1.0000
     1.0000   1.0000   1.0000   1.0000   1.0000   1.0000   1.0000   1.0000
     1.0000   1.0000   1.0000   1.0000   1.0000   1.0000   1.0000   1.0000
     1.0000   1.0000   1.0000   1.0000   1.0000   1.0000   1.0000   1.0000
     1.0000   1.0000   1.0000   1.0000   1.0000   1.0000   1.0000   1.0000
     1.0000   1.0000   1.0000   1.0000   1.0000   1.0000   1.0000   1.0000
     1.0000   1.0000   1.0000   1.0000   1.0000   1.0000   1.0000   1.0000
     1.0000   1.0000   1.0000   1.0000   1.0000   1.0000   1.0000   1.0000
     1.0000   1.0000   1.0000   1.0000   1.0000   1.0000   1.0000   1.0000
     1.0000   1.0000   1.0000   1.0000   1.0000   1.0000   1.0000   1.0000
     1.0000   1.0000   1.0000   1.0000   1.0000   1.0000   1.0000   1.0000
     1.0000   1.0000   1.0000   1.0000   1.0000   1.0000   1.0000   1.0000
     1.0000   1.0000   1.0000   0.0000   0.0000   0.0000   0.0000   0.0000
     0.0000   0.0000   0.0000   0.0000   0.0000   0.0000   0.0000   0.0000
     0.0000   0.0000   0.0000   0.0000   0.0000   0.0000   0.0000   0.0000
     0.0000   0.0000   0.0000   0.0000   0.0000

          k = 0.3333 0.0000 0.2345 ( 25788 PWs)   bands (ev):

   -77.9380 -67.4591 -67.4223 -67.3469 -66.8879 -66.8615 -44.0967 -44.0751
   -43.9846 -34.2310 -34.2065 -34.2026 -34.1797 -34.1779 -34.1633 -34.1081
   -34.1076 -34.0821 -33.6636 -33.6399 -33.6321 -33.6268 -33.6219 -33.5800
   -22.9954 -22.9473 -14.8258 -14.8139 -14.2589 -14.2258 -13.8295 -13.8075
   -13.2072 -13.1129 -13.0557 -13.0098 -12.9205 -12.8816 -12.8303 -12.7932
   -12.6985 -12.6140 -12.5086 -12.4722 -12.3842 -12.3277 -12.1225 -12.0204
   -11.0840 -10.8677  -6.5661  -6.5243  -6.4877  -6.4774  -6.4319  -6.4140
    -3.6824  -3.6087  -2.4628  -2.4106  -1.7386  -1.6559  -1.3298  -1.1943
    -0.8067  -0.7237  -0.6711  -0.6287  -0.3190  -0.2473  -0.1987  -0.1719
    -0.0001   0.1343   0.3065   0.4331   0.5501   0.6498   0.6895   0.8182
     1.0812   1.1893   1.2273   1.3374   1.3777   1.5488   1.6272   1.6506
     1.7097   1.7539   1.7950   2.0995   2.1694   2.3013   2.3930   2.4465
     2.4736   2.5158   2.6948   2.7568   2.8167   2.8234   2.8829   2.8930
     2.9661   2.9807   3.0473   3.1354   3.1851   3.2540   3.3230   3.3850
     3.4366   3.4567   3.5383   3.5806   3.6440   3.7057   3.7233   3.7437
     3.8383   3.8877   3.9044   3.9874   4.0935   4.1921   4.3455   4.5095
     8.2369   8.3050   8.3628   9.7198   9.7756  10.6681  10.9057  11.6228
    12.0384  12.0844  12.2678  12.3895  12.7222  12.7511  12.8491  13.0090
    13.3567  13.4064  13.5451  13.5526  13.6698  13.6977  13.9148  14.0203
    14.0280  14.1076  14.1532  14.5321  14.6731

     occupation numbers 
     1.0000   1.0000   1.0000   1.0000   1.0000   1.0000   1.0000   1.0000
     1.0000   1.0000   1.0000   1.0000   1.0000   1.0000   1.0000   1.0000
     1.0000   1.0000   1.0000   1.0000   1.0000   1.0000   1.0000   1.0000
     1.0000   1.0000   1.0000   1.0000   1.0000   1.0000   1.0000   1.0000
     1.0000   1.0000   1.0000   1.0000   1.0000   1.0000   1.0000   1.0000
     1.0000   1.0000   1.0000   1.0000   1.0000   1.0000   1.0000   1.0000
     1.0000   1.0000   1.0000   1.0000   1.0000   1.0000   1.0000   1.0000
     1.0000   1.0000   1.0000   1.0000   1.0000   1.0000   1.0000   1.0000
     1.0000   1.0000   1.0000   1.0000   1.0000   1.0000   1.0000   1.0000
     1.0000   1.0000   1.0000   1.0000   1.0000   1.0000   1.0000   1.0000
     1.0000   1.0000   1.0000   1.0000   1.0000   1.0000   1.0000   1.0000
     1.0000   1.0000   1.0000   1.0000   1.0000   1.0000   1.0000   1.0000
     1.0000   1.0000   1.0000   1.0000   1.0000   1.0000   1.0000   1.0000
     1.0000   1.0000   1.0000   1.0000   1.0000   1.0000   1.0000   1.0000
     1.0000   1.0000   1.0000   1.0000   1.0000   1.0000   1.0000   1.0000
     1.0000   1.0000   1.0000   1.0000   1.0000   1.0000   1.0000   1.0000
     1.0000   1.0000   1.0000   0.0000   0.0000   0.0000   0.0000   0.0000
     0.0000   0.0000   0.0000   0.0000   0.0000   0.0000   0.0000   0.0000
     0.0000   0.0000   0.0000   0.0000   0.0000   0.0000   0.0000   0.0000
     0.0000   0.0000   0.0000   0.0000   0.0000

          k = 0.3333 0.0000-0.1166 ( 25772 PWs)   bands (ev):

   -77.9379 -67.4591 -67.4223 -67.3469 -66.8879 -66.8615 -44.0966 -44.0751
   -43.9846 -34.2310 -34.2065 -34.2026 -34.1796 -34.1779 -34.1633 -34.1081
   -34.1076 -34.0821 -33.6636 -33.6399 -33.6321 -33.6268 -33.6219 -33.5800
   -22.9954 -22.9473 -14.8380 -14.8012 -14.2533 -14.2318 -13.8306 -13.8062
   -13.2126 -13.1006 -13.0611 -13.0133 -12.9196 -12.8823 -12.8347 -12.7865
   -12.6994 -12.6138 -12.5057 -12.4772 -12.3791 -12.3312 -12.1237 -12.0189
   -11.0839 -10.8676  -6.5661  -6.5243  -6.4877  -6.4774  -6.4319  -6.4140
    -3.6494  -3.6427  -2.4778  -2.3945  -1.7515  -1.6374  -1.3507  -1.1995
    -0.7949  -0.7056  -0.6717  -0.6293  -0.3552  -0.2350  -0.1873  -0.1390
    -0.0529   0.1483   0.3348   0.4295   0.5655   0.6449   0.7423   0.7790
     1.0835   1.1481   1.2545   1.3492   1.4050   1.5122   1.6057   1.6473
     1.6829   1.7050   1.8603   2.0506   2.1324   2.3125   2.3855   2.4177
     2.4771   2.5877   2.7299   2.7616   2.7848   2.8416   2.8602   2.9176
     2.9795   2.9990   3.0354   3.1429   3.2173   3.2716   3.3489   3.3536
     3.4302   3.4427   3.5669   3.6132   3.6585   3.6717   3.6939   3.7301
     3.8091   3.8736   3.9346   3.9471   4.1177   4.1802   4.3472   4.5107
     8.2350   8.3052   8.3637   9.7185   9.7901  10.3938  11.2220  11.7140
    11.9899  12.1182  12.2961  12.4304  12.7080  12.7673  12.8841  12.9820
    13.2265  13.3792  13.4496  13.5691  13.6709  13.7297  13.7567  13.9339
    14.0948  14.2132  14.2899  14.4957  14.6150

     occupation numbers 
     1.0000   1.0000   1.0000   1.0000   1.0000   1.0000   1.0000   1.0000
     1.0000   1.0000   1.0000   1.0000   1.0000   1.0000   1.0000   1.0000
     1.0000   1.0000   1.0000   1.0000   1.0000   1.0000   1.0000   1.0000
     1.0000   1.0000   1.0000   1.0000   1.0000   1.0000   1.0000   1.0000
     1.0000   1.0000   1.0000   1.0000   1.0000   1.0000   1.0000   1.0000
     1.0000   1.0000   1.0000   1.0000   1.0000   1.0000   1.0000   1.0000
     1.0000   1.0000   1.0000   1.0000   1.0000   1.0000   1.0000   1.0000
     1.0000   1.0000   1.0000   1.0000   1.0000   1.0000   1.0000   1.0000
     1.0000   1.0000   1.0000   1.0000   1.0000   1.0000   1.0000   1.0000
     1.0000   1.0000   1.0000   1.0000   1.0000   1.0000   1.0000   1.0000
     1.0000   1.0000   1.0000   1.0000   1.0000   1.0000   1.0000   1.0000
     1.0000   1.0000   1.0000   1.0000   1.0000   1.0000   1.0000   1.0000
     1.0000   1.0000   1.0000   1.0000   1.0000   1.0000   1.0000   1.0000
     1.0000   1.0000   1.0000   1.0000   1.0000   1.0000   1.0000   1.0000
     1.0000   1.0000   1.0000   1.0000   1.0000   1.0000   1.0000   1.0000
     1.0000   1.0000   1.0000   1.0000   1.0000   1.0000   1.0000   1.0000
     1.0000   1.0000   1.0000   0.0000   0.0000   0.0000   0.0000   0.0000
     0.0000   0.0000   0.0000   0.0000   0.0000   0.0000   0.0000   0.0000
     0.0000   0.0000   0.0000   0.0000   0.0000   0.0000   0.0000   0.0000
     0.0000   0.0000   0.0000   0.0000   0.0000

          k = 0.3333 0.1919 0.0589 ( 25803 PWs)   bands (ev):

   -77.9380 -67.4591 -67.4223 -67.3469 -66.8879 -66.8615 -44.0967 -44.0751
   -43.9846 -34.2310 -34.2065 -34.2026 -34.1797 -34.1779 -34.1633 -34.1081
   -34.1076 -34.0821 -33.6636 -33.6399 -33.6322 -33.6268 -33.6219 -33.5800
   -22.9954 -22.9473 -14.8397 -14.7916 -14.2731 -14.2338 -13.8321 -13.7995
   -13.1803 -13.1257 -13.0250 -12.9800 -12.9284 -12.8945 -12.8571 -12.8200
   -12.7101 -12.6074 -12.5112 -12.4477 -12.3982 -12.3233 -12.1307 -12.0113
   -11.0843 -10.8667  -6.5659  -6.5256  -6.4879  -6.4768  -6.4315  -6.4141
    -3.6586  -3.5880  -2.5921  -2.4936  -1.6824  -1.5113  -1.3070  -1.2294
    -0.8195  -0.7468  -0.6724  -0.5941  -0.3537  -0.2104  -0.1546  -0.0699
    -0.0030   0.1385   0.2826   0.4577   0.5385   0.6412   0.6872   0.7118
     1.0179   1.0909   1.3174   1.3658   1.4277   1.5160   1.5822   1.6368
     1.6868   1.7273   1.8435   1.9883   2.1617   2.3153   2.3876   2.4345
     2.4934   2.6028   2.6714   2.7352   2.7810   2.8755   2.9233   2.9661
     2.9917   3.0361   3.1356   3.1623   3.2255   3.2527   3.2751   3.3606
     3.4045   3.4749   3.4979   3.5649   3.6193   3.6460   3.6854   3.7264
     3.8472   3.8990   3.9649   4.0378   4.0770   4.1834   4.2750   4.4649
     8.2368   8.3168   8.3606   9.6934   9.8101  10.5787  11.1836  11.5192
    11.9276  12.0011  12.1987  12.5582  12.6305  12.7676  12.9349  13.1841
    13.2646  13.3304  13.4933  13.5170  13.6088  13.7157  13.8800  14.0071
    14.1497  14.3331  14.3674  14.4381  14.5321

     occupation numbers 
     1.0000   1.0000   1.0000   1.0000   1.0000   1.0000   1.0000   1.0000
     1.0000   1.0000   1.0000   1.0000   1.0000   1.0000   1.0000   1.0000
     1.0000   1.0000   1.0000   1.0000   1.0000   1.0000   1.0000   1.0000
     1.0000   1.0000   1.0000   1.0000   1.0000   1.0000   1.0000   1.0000
     1.0000   1.0000   1.0000   1.0000   1.0000   1.0000   1.0000   1.0000
     1.0000   1.0000   1.0000   1.0000   1.0000   1.0000   1.0000   1.0000
     1.0000   1.0000   1.0000   1.0000   1.0000   1.0000   1.0000   1.0000
     1.0000   1.0000   1.0000   1.0000   1.0000   1.0000   1.0000   1.0000
     1.0000   1.0000   1.0000   1.0000   1.0000   1.0000   1.0000   1.0000
     1.0000   1.0000   1.0000   1.0000   1.0000   1.0000   1.0000   1.0000
     1.0000   1.0000   1.0000   1.0000   1.0000   1.0000   1.0000   1.0000
     1.0000   1.0000   1.0000   1.0000   1.0000   1.0000   1.0000   1.0000
     1.0000   1.0000   1.0000   1.0000   1.0000   1.0000   1.0000   1.0000
     1.0000   1.0000   1.0000   1.0000   1.0000   1.0000   1.0000   1.0000
     1.0000   1.0000   1.0000   1.0000   1.0000   1.0000   1.0000   1.0000
     1.0000   1.0000   1.0000   1.0000   1.0000   1.0000   1.0000   1.0000
     1.0000   1.0000   1.0000   0.0000   0.0000   0.0000   0.0000   0.0000
     0.0000   0.0000   0.0000   0.0000   0.0000   0.0000   0.0000   0.0000
     0.0000   0.0000   0.0000   0.0000   0.0000   0.0000   0.0000   0.0000
     0.0000   0.0000   0.0000   0.0000   0.0000

          k = 0.3333 0.1919 0.2345 ( 25763 PWs)   bands (ev):

   -77.9379 -67.4591 -67.4223 -67.3469 -66.8879 -66.8615 -44.0966 -44.0751
   -43.9846 -34.2310 -34.2065 -34.2026 -34.1796 -34.1779 -34.1633 -34.1081
   -34.1076 -34.0821 -33.6636 -33.6399 -33.6321 -33.6267 -33.6219 -33.5800
   -22.9954 -22.9473 -14.8224 -14.8097 -14.2689 -14.2381 -13.8262 -13.8060
   -13.1746 -13.1221 -13.0419 -12.9696 -12.9281 -12.8908 -12.8697 -12.8117
   -12.7085 -12.6111 -12.5030 -12.4616 -12.3844 -12.3317 -12.1213 -12.0197
   -11.0835 -10.8676  -6.5659  -6.5257  -6.4878  -6.4768  -6.4314  -6.4141
    -3.6574  -3.5890  -2.5585  -2.5307  -1.6634  -1.5379  -1.2839  -1.2169
    -0.8127  -0.7703  -0.6238  -0.6170  -0.3249  -0.2541  -0.1720  -0.0888
     0.0106   0.0976   0.3162   0.4124   0.5273   0.6201   0.6757   0.7544
     1.0107   1.1177   1.3183   1.3558   1.4438   1.5011   1.6158   1.6645
     1.7167   1.7669   1.8325   1.9980   2.2053   2.2630   2.4026   2.4267
     2.4650   2.5899   2.6510   2.7502   2.7985   2.8397   2.8969   2.9236
     2.9886   3.0466   3.1178   3.1419   3.2086   3.2469   3.3053   3.3717
     3.4388   3.4867   3.5362   3.5827   3.6016   3.6522   3.6873   3.7172
     3.8417   3.8814   3.9452   3.9870   4.1073   4.2020   4.2823   4.4865
     8.2366   8.3150   8.3613   9.6865   9.7999  10.8569  11.1412  11.3470
    11.7113  11.9749  12.1680  12.5773  12.7086  12.7857  12.9234  13.0958
    13.2428  13.4403  13.5102  13.5793  13.7128  13.7618  13.9283  13.9887
    14.1101  14.1984  14.2656  14.4320  14.5084

     occupation numbers 
     1.0000   1.0000   1.0000   1.0000   1.0000   1.0000   1.0000   1.0000
     1.0000   1.0000   1.0000   1.0000   1.0000   1.0000   1.0000   1.0000
     1.0000   1.0000   1.0000   1.0000   1.0000   1.0000   1.0000   1.0000
     1.0000   1.0000   1.0000   1.0000   1.0000   1.0000   1.0000   1.0000
     1.0000   1.0000   1.0000   1.0000   1.0000   1.0000   1.0000   1.0000
     1.0000   1.0000   1.0000   1.0000   1.0000   1.0000   1.0000   1.0000
     1.0000   1.0000   1.0000   1.0000   1.0000   1.0000   1.0000   1.0000
     1.0000   1.0000   1.0000   1.0000   1.0000   1.0000   1.0000   1.0000
     1.0000   1.0000   1.0000   1.0000   1.0000   1.0000   1.0000   1.0000
     1.0000   1.0000   1.0000   1.0000   1.0000   1.0000   1.0000   1.0000
[...]
     atom   12 type  7   force =     0.00000000    0.00000000    0.00000000
     atom   13 type  7   force =     0.00000000    0.00000000    0.00000000
     atom   14 type  7   force =     0.00000000    0.00000000    0.00000000
     atom   15 type  1   force =     0.00000000    0.00000000    0.00000000
     atom   16 type  1   force =     0.00000000    0.00000000    0.00000000
     atom   17 type  6   force =     0.00000000    0.00000000    0.00000000
     atom   18 type  6   force =     0.00000000    0.00000000    0.00000000
     atom   19 type  6   force =     0.00000000    0.00000000    0.00000000
     atom   20 type  6   force =     0.00000000    0.00000000    0.00000000
     atom   21 type  6   force =     0.00000000    0.00000000    0.00000000
     atom   22 type  6   force =     0.00000000    0.00000000    0.00000000
     atom   23 type  6   force =     0.00000000    0.00000000    0.00000000
     atom   24 type  6   force =     0.00000000    0.00000000    0.00000000
     atom   25 type  6   force =     0.00000000    0.00000000    0.00000000
     atom   26 type  6   force =     0.00000000    0.00000000    0.00000000
     atom   27 type  6   force =     0.00000000    0.00000000    0.00000000
     atom   28 type  6   force =     0.00000000    0.00000000    0.00000000
     atom   29 type  6   force =     0.00000000    0.00000000    0.00000000
     atom   30 type  6   force =     0.00000000    0.00000000    0.00000000
     atom   31 type  6   force =     0.00000000    0.00000000    0.00000000
     atom   32 type  6   force =     0.00000000    0.00000000    0.00000000
     atom   33 type  6   force =     0.00000000    0.00000000    0.00000000
     atom   34 type  6   force =     0.00000000    0.00000000    0.00000000
     atom   35 type  6   force =     0.00000000    0.00000000    0.00000000
     atom   36 type  6   force =     0.00000000    0.00000000    0.00000000
     atom   37 type  6   force =     0.00000000    0.00000000    0.00000000
     atom   38 type  6   force =     0.00000000    0.00000000    0.00000000
     atom   39 type  6   force =     0.00000000    0.00000000    0.00000000
     atom   40 type  6   force =     0.00000000    0.00000000    0.00000000
     atom   41 type  3   force =     0.00000000    0.00000000    0.00000000
     atom   42 type  3   force =     0.00000000    0.00000000    0.00000000
     atom   43 type  3   force =     0.00000000    0.00000000    0.00000000
     atom   44 type  3   force =     0.00000000    0.00000000    0.00000000
     The SCF correction term to forces
     atom    1 type  4   force =     0.00000000    0.00001377    0.00000000
     atom    2 type  4   force =    -0.00000000   -0.00000604   -0.00000000
     atom    3 type  5   force =    -0.00000000   -0.00006540   -0.00000000
     atom    4 type  5   force =    -0.00000000    0.00001341   -0.00000000
     atom    5 type  5   force =    -0.00000000   -0.00003853    0.00000000
     atom    6 type  5   force =    -0.00000000    0.00007478   -0.00000000
     atom    7 type  5   force =     0.00000000   -0.00007984   -0.00000000
     atom    8 type  2   force =     0.00000000    0.00019544    0.00000000
     atom    9 type  7   force =    -0.00000203   -0.00000425    0.00000686
     atom   10 type  7   force =     0.00000203   -0.00000425   -0.00000686
     atom   11 type  7   force =    -0.00000374    0.00000251   -0.00001210
     atom   12 type  7   force =     0.00000374    0.00000251    0.00001210
     atom   13 type  7   force =     0.00000622    0.00000109    0.00002696
     atom   14 type  7   force =    -0.00000622    0.00000109   -0.00002696
     atom   15 type  1   force =    -0.00000498   -0.00000220   -0.00000152
     atom   16 type  1   force =     0.00000498   -0.00000220    0.00000152
     atom   17 type  6   force =     0.00000106   -0.00000783   -0.00002215
     atom   18 type  6   force =    -0.00000106   -0.00000783    0.00002215
     atom   19 type  6   force =     0.00000080   -0.00000145   -0.00000951
     atom   20 type  6   force =    -0.00000080   -0.00000145    0.00000951
     atom   21 type  6   force =     0.00003049   -0.00001140   -0.00000145
     atom   22 type  6   force =    -0.00003049   -0.00001140    0.00000145
     atom   23 type  6   force =    -0.00001331    0.00000400    0.00003658
     atom   24 type  6   force =     0.00001331    0.00000400   -0.00003658
     atom   25 type  6   force =     0.00000716   -0.00002824    0.00002436
     atom   26 type  6   force =    -0.00000716   -0.00002824   -0.00002436
     atom   27 type  6   force =     0.00002725    0.00000439   -0.00002238
     atom   28 type  6   force =    -0.00002725    0.00000439    0.00002238
     atom   29 type  6   force =     0.00001532    0.00003546   -0.00002659
     atom   30 type  6   force =    -0.00001532    0.00003546    0.00002659
     atom   31 type  6   force =     0.00001183    0.00001000    0.00004492
     atom   32 type  6   force =    -0.00001183    0.00001000   -0.00004492
     atom   33 type  6   force =     0.00006002   -0.00002410    0.00006826
     atom   34 type  6   force =    -0.00006002   -0.00002410   -0.00006826
     atom   35 type  6   force =     0.00002724   -0.00002505   -0.00004344
     atom   36 type  6   force =    -0.00002724   -0.00002505    0.00004344
     atom   37 type  6   force =    -0.00001997    0.00002408    0.00001325
     atom   38 type  6   force =     0.00001997    0.00002408   -0.00001325
     atom   39 type  6   force =    -0.00000753   -0.00000981    0.00000428
     atom   40 type  6   force =     0.00000753   -0.00000981   -0.00000428
     atom   41 type  3   force =    -0.00000305    0.00000183    0.00000179
     atom   42 type  3   force =     0.00000305    0.00000183   -0.00000179
     atom   43 type  3   force =    -0.00000081   -0.00000127    0.00000488
     atom   44 type  3   force =     0.00000081   -0.00000127   -0.00000488

     DFT-D3 dispersion contribution to forces:
     atom    1 type  4   force =    -0.00000000    0.00055569    0.00000000
     atom    2 type  4   force =     0.00000000   -0.00038387    0.00000000
     atom    3 type  5   force =    -0.00000000    0.00027076   -0.00000000
     atom    4 type  5   force =     0.00000000    0.00095032   -0.00000000
     atom    5 type  5   force =     0.00000000   -0.00153624    0.00000000
     atom    6 type  5   force =     0.00000000    0.00085489   -0.00000000
     atom    7 type  5   force =     0.00000000   -0.00003947   -0.00000000
     atom    8 type  2   force =     0.00000000   -0.00018867   -0.00000000
     atom    9 type  7   force =     0.00001975   -0.00015707   -0.00038274
     atom   10 type  7   force =    -0.00001975   -0.00015707    0.00038274
     atom   11 type  7   force =     0.00005446    0.00008459    0.00029342
     atom   12 type  7   force =    -0.00005446    0.00008459   -0.00029342
     atom   13 type  7   force =     0.00001535    0.00002847   -0.00007211
     atom   14 type  7   force =    -0.00001535    0.00002847    0.00007211
     atom   15 type  1   force =    -0.00006353    0.00011804   -0.00127736
     atom   16 type  1   force =     0.00006353    0.00011804    0.00127736
     atom   17 type  6   force =     0.00001689    0.00004695    0.00043283
     atom   18 type  6   force =    -0.00001689    0.00004695   -0.00043283
     atom   19 type  6   force =    -0.00001539    0.00004135   -0.00033480
     atom   20 type  6   force =     0.00001539    0.00004135    0.00033480
     atom   21 type  6   force =    -0.00003842   -0.00003183    0.00036915
     atom   22 type  6   force =     0.00003842   -0.00003183   -0.00036915
     atom   23 type  6   force =    -0.00005002   -0.00011673    0.00017532
     atom   24 type  6   force =     0.00005002   -0.00011673   -0.00017532
     atom   25 type  6   force =    -0.00017314    0.00098950    0.00013378
     atom   26 type  6   force =     0.00017314    0.00098950   -0.00013378
     atom   27 type  6   force =     0.00078853    0.00006521    0.00017172
     atom   28 type  6   force =    -0.00078853    0.00006521   -0.00017172
     atom   29 type  6   force =     0.00042911   -0.00065685   -0.00013420
     atom   30 type  6   force =    -0.00042911   -0.00065685    0.00013420
     atom   31 type  6   force =    -0.00029851    0.00049492    0.00015693
     atom   32 type  6   force =     0.00029851    0.00049492   -0.00015693
     atom   33 type  6   force =     0.00086850   -0.00041824    0.00036553
     atom   34 type  6   force =    -0.00086850   -0.00041824   -0.00036553
     atom   35 type  6   force =     0.00060670   -0.00047456   -0.00032970
     atom   36 type  6   force =    -0.00060670   -0.00047456    0.00032970
     atom   37 type  6   force =    -0.00014155   -0.00001710   -0.00055586
     atom   38 type  6   force =     0.00014155   -0.00001710    0.00055587
     atom   39 type  6   force =     0.00002629    0.00003854   -0.00053336
     atom   40 type  6   force =    -0.00002629    0.00003854    0.00053336
     atom   41 type  3   force =    -0.00028793    0.00015632   -0.00025131
     atom   42 type  3   force =     0.00028793    0.00015632    0.00025131
     atom   43 type  3   force =     0.00005879   -0.00043323   -0.00023239
     atom   44 type  3   force =    -0.00005879   -0.00043323    0.00023240

     Total force =     0.003537     Total SCF correction =     0.000326

     DFT-D3 dispersion Force =     0.004509


     Computing stress (Cartesian axis) and pressure

          total   stress  (Ry/bohr**3)                   (kbar)     P=       11.89
   0.00006611   0.00000000   0.00000246            9.73        0.00        0.36
   0.00000000   0.00007468   0.00000000            0.00       10.99        0.00
   0.00000246   0.00000000   0.00010171            0.36        0.00       14.96

     kinetic stress (kbar)  20948.29      0.00     14.04
                                0.00  20951.10      0.00
                               14.04      0.00  20665.40

     local   stress (kbar) -39691.52      0.00    103.21
                                0.00 -39327.48      0.00
                              103.21      0.00  18153.83

     nonloc. stress (kbar)   3939.98      0.00      0.37
                                0.00   3941.19      0.00
                                0.37      0.00   3922.67

     hartree stress (kbar)  22596.54      0.00    -44.73
                                0.00  22429.68      0.00
                              -44.73      0.00  -5673.03

     exc-cor stress (kbar)  -2932.55     -0.00     -0.06
                               -0.00  -2932.83     -0.00
                               -0.06     -0.00  -2929.56

     corecor stress (kbar)  -1932.70      0.00     -0.08
                                0.00  -1932.81      0.00
                               -0.08      0.00  -1934.38

     ewald   stress (kbar)  -2902.60      0.00    -72.47
                                0.00  -3101.94     -0.00
                              -72.47     -0.00 -32177.95

     hubbard stress (kbar)      0.00      0.00      0.00
                                0.00      0.00      0.00
                                0.00      0.00      0.00

     DFT-D   stress (kbar)    -15.73      0.00      0.09
                                0.00    -15.93      0.00
                                0.09      0.00    -12.03

     XDM     stress (kbar)      0.00      0.00      0.00
                                0.00      0.00      0.00
                                0.00      0.00      0.00

     dft-nl  stress (kbar)      0.00      0.00      0.00
                                0.00      0.00      0.00
                                0.00      0.00      0.00

     TS-vdW  stress (kbar)      0.00      0.00      0.00
                                0.00      0.00      0.00
                                0.00      0.00      0.00

     MDB     stress (kbar)      0.00      0.00      0.00
                                0.00      0.00      0.00
                                0.00      0.00      0.00

     3D-RISM stress (kbar)      0.00      0.00      0.00
                                0.00      0.00      0.00
                                0.00      0.00      0.00

     Energy error            =      2.7E-05 Ry
     Gradient error          =      9.6E-04 Ry/Bohr

     bfgs converged in  12 scf cycles and  11 bfgs steps
     (criteria: energy <  1.0E-04 Ry, force <  1.0E-03 Ry/Bohr)

     End of BFGS Geometry Optimization

     Final energy             =   -2631.1975768257 Ry

     File ./temp/phl-fe1-nspin-dftd3.bfgs deleted, as requested
Begin final coordinates

ATOMIC_POSITIONS (crystal)
K                0.0000000000        0.4932681256        0.0000000000
K                0.5000000000        0.0042891126        0.0000000000
Mg               0.0000000000        0.0036086768        0.5000000000
Mg               0.0000000000        0.3346940698        0.5000000000
Mg               0.0000000000        0.6619158605        0.5000000000
Mg               0.5000000000        0.8324523849        0.5000000000
Mg               0.5000000000        0.1751421691        0.5000000000
Fe               0.5000000000        0.4984725011        0.5000000000
Si               0.0822484730        0.1652218073        0.2228985846
Si               0.9177515120        0.1652218073        0.7771014304
Si               0.9344100884        0.8340500556        0.7711276382
Si               0.0655899116        0.8340500556        0.2288723618
Si               0.5636894640        0.6654514217        0.2260623065
Si               0.4363105360        0.6654514217        0.7739377235
Al               0.4178097039        0.3329505906        0.7757531223
Al               0.5821902661        0.3329505906        0.2242468777
O                0.1260063797        0.1640932167        0.3853988579
O                0.8739935903        0.1640932167        0.6146011121
O                0.8746886418        0.8319671033        0.6100117035
O                0.1253113582        0.8319671033        0.3899882965
O                0.6272489470        0.6666672393        0.3883122360
O                0.3727510530        0.6666672393        0.6116877340
O                0.3645558061        0.3376828221        0.6027928405
O                0.6354441939        0.3376828221        0.3972071595
O                0.3431961537        0.2025864014        0.1655061046
O                0.6568038463        0.2025864014        0.8344938804
O                0.9938964478        0.9972101827        0.1675962597
O                0.0061035522        0.9972101827        0.8324037553
O                0.6809198995        0.7764292633        0.8310084413
O                0.3190801005        0.7764292633        0.1689915587
O                0.8170157165        0.7305253770        0.1676297476
O                0.1829842835        0.7305253770        0.8323702824
O                0.4904756609        0.5080243725        0.1592940340
O                0.5095243391        0.5080243725        0.8407059660
O                0.1438465100        0.2776190048        0.8401466238
O                0.8561534750        0.2776190048        0.1598533762
O                0.1396211961        0.5021038720        0.3954421806
O                0.8603787739        0.5021038720        0.6045577894
O                0.6315242333        0.9996756576        0.3971927257
O                0.3684757667        0.9996756576        0.6028072743
H                0.1281601487        0.4921577172        0.3000256573
H                0.8718398433        0.4921577172        0.6999743427
H                0.5952386917        0.0137124217        0.3017988846
H                0.4047613083        0.0137124217        0.6982010854
End final coordinates



     Writing all to output data dir ./temp/phl-fe1-nspin-dftd3.save/ :
     XML data file, charge density, pseudopotentials, collected wavefunctions

     init_run     :    114.88s CPU    115.92s WALL (       1 calls)
     electrons    :  82987.18s CPU  83507.02s WALL (      12 calls)
     update_pot   :     17.63s CPU     17.97s WALL (      11 calls)
     forces       :   2150.21s CPU   2165.92s WALL (      12 calls)
     force_dftd3  :     62.38s CPU     62.54s WALL (      12 calls)
     stress       :   5540.34s CPU   5598.93s WALL (      12 calls)
     stres_dftd3  :     62.34s CPU     62.49s WALL (      12 calls)

     Called by init_run:
     wfcinit      :    109.29s CPU    109.71s WALL (       1 calls)
     wfcinit:atom :      0.20s CPU      0.20s WALL (      20 calls)
     wfcinit:wfcr :    107.55s CPU    107.96s WALL (      20 calls)
     potinit      :      1.10s CPU      1.15s WALL (       1 calls)
     hinit0       :      0.73s CPU      0.75s WALL (       1 calls)

     Called by electrons:
     c_bands      :  76449.88s CPU  76783.21s WALL (      97 calls)
     sum_band     :   5866.80s CPU   5978.74s WALL (      97 calls)
     v_of_rho     :     30.12s CPU     31.10s WALL (     100 calls)
     v_h          :      2.54s CPU      2.66s WALL (     100 calls)
     v_xc         :     34.26s CPU     35.34s WALL (     124 calls)
     newd         :    560.62s CPU    643.03s WALL (     100 calls)
     PAW_pot      :    116.73s CPU    116.86s WALL (     111 calls)
     mix_rho      :      4.89s CPU      5.02s WALL (      97 calls)
     energy_dftd3 :     47.25s CPU     47.33s WALL (      12 calls)

     Called by c_bands:
     init_us_2    :    150.50s CPU    151.00s WALL (    4600 calls)
     cegterg      :  76163.41s CPU  76494.60s WALL (    1940 calls)

     Called by sum_band:
     sum_band:wei :      0.03s CPU      0.03s WALL (      97 calls)
     sum_band:loo :   5085.08s CPU   5113.77s WALL (      97 calls)
     sum_band:buf :     17.11s CPU     17.16s WALL (    1940 calls)
     sum_band:ini :     64.82s CPU     64.97s WALL (    1940 calls)
     sum_band:cal :   4243.21s CPU   4247.47s WALL (    2160 calls)
     sum_band:bec :      4.81s CPU      4.83s WALL (    2160 calls)
     addusdens    :    773.40s CPU    856.26s WALL (      97 calls)
                                        0.00s GPU  (      97 calls)
     addusd:skk   :      5.56s CPU      7.80s WALL (     679 calls)
                                        0.00s GPU  (     679 calls)

     Called by *egterg:
     cdiaghg      :   1409.66s CPU   1424.32s WALL (   14488 calls)
     cegterg:over :  10333.52s CPU  10349.26s WALL (   12948 calls)
     cegterg:upda :   5954.75s CPU   5966.79s WALL (   12948 calls)
     cegterg:last :  15638.04s CPU  15661.11s WALL (    5320 calls)
     cdiaghg:chol :     30.19s CPU     30.27s WALL (   14488 calls)
     cdiaghg:inve :     26.34s CPU     26.44s WALL (   14488 calls)
     cdiaghg:para :    569.72s CPU    576.63s WALL (   28976 calls)
     h_psi        :  29120.12s CPU  29333.08s WALL (   14908 calls)
     s_psi        :  11620.79s CPU  11635.70s WALL (   14908 calls)
     g_psi        :     30.60s CPU     30.68s WALL (   12948 calls)

     Called by h_psi:
     h_psi:calbec :  11733.22s CPU  11751.43s WALL (   14908 calls)
     vloc_psi     :   5691.93s CPU   5848.38s WALL (   14908 calls)
     add_vuspsi   :  11650.09s CPU  11665.27s WALL (   14908 calls)

     General routines
     calbec       :  18512.13s CPU  18539.65s WALL (   18268 calls)
     fft          :     26.91s CPU     28.47s WALL (    1596 calls)
     ffts         :      0.99s CPU      1.06s WALL (     197 calls)
     fftw         :   4683.94s CPU   4808.42s WALL ( 2187912 calls)
     interpolate  :      2.65s CPU      2.78s WALL (     100 calls)

     Parallel routines

     PAW routines
     PAW_pot      :    116.73s CPU    116.86s WALL (     111 calls)
     PAW_symme    :      0.08s CPU      0.09s WALL (     208 calls)

     PWSCF        :   1d 1h22m CPU   1d 1h32m WALL


   This run was terminated on:   1:42:43  29Dec2024            

=------------------------------------------------------------------------------=
   JOB DONE.
=------------------------------------------------------------------------------=
