
     Program PWSCF v.7.3.1 starts on 15Sep2025 at 15:32:13 

     This program is part of the open-source Quantum ESPRESSO suite
     for quantum simulation of materials; please cite
         "P. Giannozzi et al., J. Phys.:Condens. Matter 21 395502 (2009);
         "P. Giannozzi et al., J. Phys.:Condens. Matter 29 465901 (2017);
         "P. Giannozzi et al., J. Chem. Phys. 152 154105 (2020);
          URL http://www.quantum-espresso.org", 
     in publications or presentations arising from this work. More details at
     http://www.quantum-espresso.org/quote

     Parallel version (MPI), running on     6 processors

     MPI processes distributed on     1 nodes
     7429 MiB available memory on the printing compute node when the environment starts

     Reading input from vc_relax.in

     Current dimensions of program PWSCF are:
     Max number of different atomic species (ntypx) = 10
     Max number of k-points (npk) =  40000
     Max angular momentum in pseudopotentials (lmaxx) =  4
     file Al.pbe-n-kjpaw_psl.1.0.0.UPF: wavefunction(s)  3S 3P renormalized
     file Fe.pbe-spn-kjpaw_psl.1.0.0.UPF: wavefunction(s)  3P 3D renormalized
     file H.pbe-kjpaw_psl.1.0.0.UPF: wavefunction(s)  1S renormalized
     file K.pbe-spn-kjpaw_psl.1.0.0.UPF: wavefunction(s)  3S renormalized
     file Mg.pbe-spnl-kjpaw_psl.1.0.0.UPF: wavefunction(s)  2P renormalized
     file O.pbe-n-kjpaw_psl.1.0.0.UPF: wavefunction(s)  2S 2P renormalized
     file Si.pbe-n-kjpaw_psl.1.0.0.UPF: wavefunction(s)  3S 3P renormalized

     R & G space division:  proc/nbgrp/npool/nimage =       6
     Subspace diagonalization in iterative solution of the eigenvalue problem:
     one sub-group per band group will be used
     custom distributed-memory algorithm (size of sub-group:  2*  2 procs)


     Parallelization info
     --------------------
     sticks:   dense  smooth     PW     G-vecs:    dense   smooth      PW
     Min        1105     554    150                97744    34578    4918
     Max        1106     555    151                97745    34580    4920
     Sum        6633    3329    905               586467   207475   29511

     Using Slab Decomposition



     bravais-lattice index     =          -12
     lattice parameter (alat)  =      10.0136  a.u.
     unit-cell volume          =    3303.4414 (a.u.)^3
     number of atoms/cell      =           44
     number of atomic types    =            7
     number of electrons       =       262.00
     number of Kohn-Sham states=          157
     kinetic-energy cutoff     =      60.0000  Ry
     charge density cutoff     =     480.0000  Ry
     scf convergence threshold =      1.0E-06
     mixing beta               =       0.7000
     number of iterations used =            8  plain     mixing
     energy convergence thresh.=      1.0E-04
     force convergence thresh. =      1.0E-03
     press convergence thresh. =      5.0E-01
     Exchange-correlation= SLA  PW   PBX  PBC
                           (   1   4   3   4   0   0   0)
     nstep                     =           50


     celldm(1)=  10.013640  celldm(2)=   1.735306  celldm(3)=   1.926511
     celldm(4)=   0.000000  celldm(5)=  -0.177565  celldm(6)=   0.000000

     crystal axes: (cart. coord. in units of alat)
               a(1) = (   1.000000   0.000000   0.000000 )  
               a(2) = (   0.000000   1.735306   0.000000 )  
               a(3) = (  -0.342081   0.000000   1.895896 )  

     reciprocal axes: (cart. coord. in units 2 pi/alat)
               b(1) = (  1.000000 -0.000000  0.180432 )  
               b(2) = (  0.000000  0.576267 -0.000000 )  
               b(3) = (  0.000000  0.000000  0.527455 )  


     PseudoPot. # 1 for Al read from file:
     ./../../../pseudos/Al.pbe-n-kjpaw_psl.1.0.0.UPF
     MD5 check sum: 502b6b27b9c6270cab5dd1084b96fa6d
     Pseudo is Projector augmented-wave + core cor, Zval =  3.0
     Generated using &quot;atomic&quot; code by A. Dal Corso  v.6.3
     Shape of augmentation charge: PSQ
     Using radial grid of 1135 points,  6 beta functions with: 
                l(1) =   0
                l(2) =   0
                l(3) =   1
                l(4) =   1
                l(5) =   2
                l(6) =   2
     Q(r) pseudized with 0 coefficients 


     PseudoPot. # 2 for Fe read from file:
     ./../../../pseudos/Fe.pbe-spn-kjpaw_psl.1.0.0.UPF
     MD5 check sum: fc81f059e5c5069939230b1155715ae8
     Pseudo is Projector augmented-wave + core cor, Zval = 16.0
     Generated using &quot;atomic&quot; code by A. Dal Corso  v.6.3
     Shape of augmentation charge: PSQ
     Using radial grid of 1191 points,  6 beta functions with: 
                l(1) =   0
                l(2) =   0
                l(3) =   1
                l(4) =   1
                l(5) =   2
                l(6) =   2
     Q(r) pseudized with 0 coefficients 


     PseudoPot. # 3 for H  read from file:
     ./../../../pseudos/H.pbe-kjpaw_psl.1.0.0.UPF
     MD5 check sum: d81a744832360e4a8af0b0b5b123bc2a
     Pseudo is Projector augmented-wave, Zval =  1.0
     Generated using &quot;atomic&quot; code by A. Dal Corso  v.6.3MaX
     Shape of augmentation charge: PSQ
     Using radial grid of  929 points,  2 beta functions with: 
                l(1) =   0
                l(2) =   0
     Q(r) pseudized with 0 coefficients 


     PseudoPot. # 4 for K  read from file:
     ./../../../pseudos/K.pbe-spn-kjpaw_psl.1.0.0.UPF
     MD5 check sum: 34cc42130a09071ebe376fd42eb21491
     Pseudo is Projector augmented-wave + core cor, Zval =  9.0
     Generated using &quot;atomic&quot; code by A. Dal Corso  v.6.2.2
     Shape of augmentation charge: PSQ
     Using radial grid of 1165 points,  6 beta functions with: 
                l(1) =   0
                l(2) =   0
                l(3) =   1
                l(4) =   1
                l(5) =   2
                l(6) =   2
     Q(r) pseudized with 0 coefficients 


     PseudoPot. # 5 for Mg read from file:
     ./../../../pseudos/Mg.pbe-spnl-kjpaw_psl.1.0.0.UPF
     MD5 check sum: fda14e0d92a6a9a5ebed782e5a4b3067
     Pseudo is Projector augmented-wave + core cor, Zval = 10.0
     Generated using &quot;atomic&quot; code by A. Dal Corso  v.6.3
     Shape of augmentation charge: PSQ
     Using radial grid of 1129 points,  4 beta functions with: 
                l(1) =   0
                l(2) =   0
                l(3) =   1
                l(4) =   1
     Q(r) pseudized with 0 coefficients 


     PseudoPot. # 6 for O  read from file:
     ./../../../pseudos/O.pbe-n-kjpaw_psl.1.0.0.UPF
     MD5 check sum: e99d9cef9b487d1ca56f5b95ecd0fd7a
     Pseudo is Projector augmented-wave + core cor, Zval =  6.0
     Generated using &quot;atomic&quot; code by A. Dal Corso  v.6.3
     Shape of augmentation charge: PSQ
     Using radial grid of 1095 points,  4 beta functions with: 
                l(1) =   0
                l(2) =   0
                l(3) =   1
                l(4) =   1
     Q(r) pseudized with 0 coefficients 


     PseudoPot. # 7 for Si read from file:
     ./../../../pseudos/Si.pbe-n-kjpaw_psl.1.0.0.UPF
     MD5 check sum: c39c59da582df4a0d9f10159256ea34e
     Pseudo is Projector augmented-wave + core cor, Zval =  4.0
     Generated using &quot;atomic&quot; code by A. Dal Corso  v.6.3
     Shape of augmentation charge: PSQ
     Using radial grid of 1141 points,  6 beta functions with: 
                l(1) =   0
                l(2) =   0
                l(3) =   1
                l(4) =   1
                l(5) =   2
                l(6) =   2
     Q(r) pseudized with 0 coefficients 


     atomic species   valence    mass     pseudopotential
     Al                3.00    26.98154     Al( 1.00)
     Fe               16.00    55.84500     Fe( 1.00)
     H                 1.00     1.00794     H ( 1.00)
     K                 9.00    39.09830     K ( 1.00)
     Mg               10.00    24.30500     Mg( 1.00)
     O                 6.00    15.99940     O ( 1.00)
     Si                4.00    28.08550     Si( 1.00)

     Starting magnetic structure 
     atomic species   magnetization
     Al              0.000
     Fe              0.300
     H               0.000
     K               0.000
     Mg              0.000
     O               0.000
     Si              0.000

      2 Sym. Ops. (no inversion) found


                                    s                        frac. trans.

      isym =  1     identity                                     

 cryst.   s( 1) = (     1          0          0      )
                  (     0          1          0      )
                  (     0          0          1      )

 cart.    s( 1) = (  1.0000000  0.0000000 -0.0000000 )
                  (  0.0000000  1.0000000  0.0000000 )
                  (  0.0000000  0.0000000  1.0000000 )


      isym =  2     180 deg rotation - cart. axis [0,1,0]        

 cryst.   s( 2) = (    -1          0          0      )
                  (     0          1          0      )
                  (     0          0         -1      )

 cart.    s( 2) = ( -1.0000000  0.0000000  0.0000000 )
                  (  0.0000000  1.0000000  0.0000000 )
                  (  0.0000000  0.0000000 -1.0000000 )


     point group C_2  (2)   
     there are  2 classes
     the character table:

       E     C2   
A      1.00  1.00
B      1.00 -1.00

     the symmetry operations in each class and the name of the first element:

     E        1
          identity                                               
     C2       2
          180 deg rotation - cart. axis [0,1,0]                  

   Cartesian axes

     site n.     atom                  positions (alat units)
         1        K      tau(   1) = (   0.0000000   0.8659643   0.0000000  )
         2        K      tau(   2) = (   0.5000000   1.7272549   0.0000000  )
         3        Mg     tau(   3) = (  -0.1710407   0.0112462   0.9479482  )
         4        Mg     tau(   4) = (  -0.1710407   1.1569461   0.9479482  )
         5        Mg     tau(   5) = (   0.3289593   0.8609746   0.9479482  )
         6        Mg     tau(   6) = (   0.3289593   1.4505183   0.9479482  )
         7        Mg     tau(   7) = (   0.3289593   0.2962664   0.9479482  )
         8        Si     tau(   8) = (   0.0174847   0.2840279   0.4178757  )
         9        Si     tau(   9) = (   0.6404339   0.2840279   1.4780208  )
        10        Si     tau(  10) = (   0.6701932   1.4483528   1.4627812  )
        11        Si     tau(  11) = (  -0.0122745   1.4483528   0.4331152  )
        12        Si     tau(  12) = (   0.4876813   1.1561173   0.4303910  )
        13        Si     tau(  13) = (   0.1702373   1.1561173   1.4655054  )
        14        Al     tau(  14) = (   0.1401455   0.5731186   1.4733328  )
        15        Al     tau(  15) = (   0.5177732   0.5731186   0.4225636  )
        16        O      tau(  16) = (   0.0063953   0.2741018   0.7248569  )
        17        O      tau(  17) = (   0.6515233   0.2741018   1.1710396  )
        18        O      tau(  18) = (   0.6650954   1.4488150   1.1577141  )
        19        O      tau(  19) = (  -0.0071767   1.4488150   0.7381823  )
        20        O      tau(  20) = (   0.4943690   1.1621117   0.7369531  )
        21        O      tau(  21) = (   0.1635497   1.1621117   1.1589434  )
        22        O      tau(  22) = (   0.1533600   0.5791129   1.1443447  )
        23        O      tau(  23) = (   0.5045587   0.5791129   0.7515517  )
        24        O      tau(  24) = (   0.2987172   0.3475890   0.3110247  )
        25        O      tau(  25) = (   0.3592015   0.3475890   1.5848717  )
        26        O      tau(  26) = (  -0.0555996   1.7302007   0.3108972  )
        27        O      tau(  27) = (   0.7135183   1.7302007   1.5849993  )
        28        O      tau(  28) = (   0.3999587   1.3406677   1.5760506  )
        29        O      tau(  29) = (   0.2579600   1.3406677   0.3198458  )
        30        O      tau(  30) = (   0.7563447   1.2742714   0.3172441  )
        31        O      tau(  31) = (  -0.0984260   1.2742714   1.5786523  )
        32        O      tau(  32) = (   0.4475899   0.8796099   0.3074359  )
        33        O      tau(  33) = (   0.2103288   0.8796099   1.5884605  )
        34        O      tau(  34) = (  -0.1576645   0.4845104   1.5932192  )
        35        O      tau(  35) = (   0.8155832   0.4845104   0.3026772  )
        36        O      tau(  36) = (   0.0033298   0.8884262   0.7399718  )
        37        O      tau(  37) = (   0.6545889   0.8884262   1.1559247  )
        38        O      tau(  38) = (   0.4986290   1.7343151   0.7518669  )
        39        O      tau(  39) = (   0.1592897   1.7343151   1.1440295  )
        40        H      tau(  40) = (   0.0059044   0.8474743   0.5624143  )
        41        H      tau(  41) = (   0.6520143   0.8474743   1.3334821  )
        42        H      tau(  42) = (   0.4898294   0.0271081   0.5719124  )
        43        H      tau(  43) = (   0.1680893   0.0271081   1.3239840  )
        44        Fe     tau(  44) = (  -0.1710407   0.5830005   0.9479482  )

     --------------------------------------------
     DFT-D3 Dispersion Correction (3-body terms):
     --------------------------------------------
       Reference C6 values for interpolation: 

         atom   Coordination number   C6
         H          0.912             6.05
         H          0.000            15.18
         O          0.000            31.01
         O          0.993            25.63
         O          1.989            20.74
         Mg         0.000          1366.75
         Mg         0.963           902.54
         Mg         1.950           351.12
         Al         0.000          1081.08
         Al         0.965           875.51
         Al         1.931           513.50
         Al         2.915           307.19
         Si         0.000           635.71
         Si         0.951           540.53
         Si         1.944           466.25
         Si         2.941           443.01
         Si         3.868           299.55
         K          0.000          9967.00
         K          0.977           676.04
         Fe         0.000           982.67
         Fe         1.648           409.99
         Fe         9.138           219.01

       Values used:

         atom   Coordination number  R0_AB[au]  C6      C8
         K         13.722            4.007    676.04 129074.98
         K         14.092            4.007    676.04 129074.98
         Mg        11.519            3.292    351.12  31436.69
         Mg        11.516            3.292    351.12  31436.69
         Mg        11.434            3.292    351.12  31436.69
         Mg        11.781            3.292    351.12  31436.69
         Mg        11.585            3.292    351.12  31436.69
         Si         6.728            3.583    299.55  21425.58
         Si         6.728            3.583    299.55  21425.58
         Si         6.659            3.583    299.55  21425.58
         Si         6.659            3.583    299.55  21425.58
         Si         6.704            3.583    299.55  21425.58
         Si         6.704            3.583    299.55  21425.58
         Al         7.429            3.789    307.19  29441.29
         Al         7.429            3.789    307.19  29441.29
         O          3.501            2.345     20.74    418.58
         O          3.501            2.345     20.74    418.58
         O          3.927            2.345     20.74    418.58
         O          3.927            2.345     20.74    418.58
         O          3.920            2.345     20.74    418.58
         O          3.920            2.345     20.74    418.58
         O          3.849            2.345     20.74    418.58
         O          3.849            2.345     20.74    418.58
         O          3.134            2.345     20.74    418.58
         O          3.134            2.345     20.74    418.58
         O          3.189            2.345     20.74    418.58
         O          3.189            2.345     20.74    418.58
         O          3.167            2.345     20.74    418.58
         O          3.167            2.345     20.74    418.58
         O          3.191            2.345     20.74    418.58
         O          3.191            2.345     20.74    418.58
         O          3.202            2.345     20.74    418.58
         O          3.202            2.345     20.74    418.58
         O          3.156            2.345     20.74    418.58
         O          3.156            2.345     20.74    418.58
         O          3.666            2.345     20.74    418.58
         O          3.666            2.345     20.74    418.58
         O          4.001            2.345     20.74    418.58
         O          4.001            2.345     20.74    418.58
         H          1.312            2.062      6.07     73.34
         H          1.312            2.062      6.07     73.34
         H          1.305            2.062      6.07     73.34
         H          1.305            2.062      6.07     73.34
         Fe         7.532            3.252    219.01  20487.87

         Molecular C6 ( Ry / a.u.^6 ) =    165304.81


   Crystallographic axes

     site n.     atom                  positions (cryst. coord.)
         1        K      tau(   1) = (  0.0000000  0.4990268  0.0000000  )
         2        K      tau(   2) = (  0.5000000  0.9953603  0.0000000  )
         3        Mg     tau(   3) = (  0.0000000  0.0064808  0.5000000  )
         4        Mg     tau(   4) = (  0.0000000  0.6667101  0.5000000  )
         5        Mg     tau(   5) = (  0.5000000  0.4961514  0.5000000  )
         6        Mg     tau(   6) = (  0.5000000  0.8358861  0.5000000  )
         7        Mg     tau(   7) = (  0.5000000  0.1707286  0.5000000  )
         8        Si     tau(   8) = (  0.0928831  0.1636760  0.2204106  )
         9        Si     tau(   9) = (  0.9071169  0.1636760  0.7795894  )
        10        Si     tau(  10) = (  0.9341265  0.8346382  0.7715513  )
        11        Si     tau(  11) = (  0.0658735  0.8346382  0.2284487  )
        12        Si     tau(  12) = (  0.5653378  0.6662325  0.2270119  )
        13        Si     tau(  13) = (  0.4346621  0.6662325  0.7729881  )
        14        Al     tau(  14) = (  0.4059826  0.3302694  0.7771167  )
        15        Al     tau(  15) = (  0.5940174  0.3302694  0.2228833  )
        16        O      tau(  16) = (  0.1371831  0.1579559  0.3823294  )
        17        O      tau(  17) = (  0.8628169  0.1579559  0.6176707  )
        18        O      tau(  18) = (  0.8739846  0.8349046  0.6106421  )
        19        O      tau(  19) = (  0.1260154  0.8349046  0.3893580  )
        20        O      tau(  20) = (  0.6273392  0.6696869  0.3887096  )
        21        O      tau(  21) = (  0.3726607  0.6696869  0.6112905  )
        22        O      tau(  22) = (  0.3598370  0.3337238  0.6035903  )
        23        O      tau(  23) = (  0.6401630  0.3337238  0.3964097  )
        24        O      tau(  24) = (  0.3548362  0.2003041  0.1640515  )
        25        O      tau(  25) = (  0.6451638  0.2003041  0.8359485  )
        26        O      tau(  26) = (  0.0004964  0.9970579  0.1639843  )
        27        O      tau(  27) = (  0.9995036  0.9970579  0.8360158  )
        28        O      tau(  28) = (  0.6843294  0.7725828  0.8312957  )
        29        O      tau(  29) = (  0.3156706  0.7725828  0.1687043  )
        30        O      tau(  30) = (  0.8135858  0.7343208  0.1673320  )
        31        O      tau(  31) = (  0.1864142  0.7343208  0.8326680  )
        32        O      tau(  32) = (  0.5030613  0.5068903  0.1621586  )
        33        O      tau(  33) = (  0.4969386  0.5068903  0.8378414  )
        34        O      tau(  34) = (  0.1298040  0.2792075  0.8403514  )
        35        O      tau(  35) = (  0.8701960  0.2792075  0.1596486  )
        36        O      tau(  36) = (  0.1368447  0.5119709  0.3903018  )
        37        O      tau(  37) = (  0.8631552  0.5119709  0.6096982  )
        38        O      tau(  38) = (  0.6342902  0.9994289  0.3965759  )
        39        O      tau(  39) = (  0.3657098  0.9994289  0.6034241  )
        40        H      tau(  40) = (  0.1073822  0.4883716  0.2966482  )
        41        H      tau(  41) = (  0.8926178  0.4883716  0.7033518  )
        42        H      tau(  42) = (  0.5930210  0.0156215  0.3016580  )
        43        H      tau(  43) = (  0.4069790  0.0156215  0.6983420  )
        44        Fe     tau(  44) = (  0.0000000  0.3359641  0.5000000  )

     number of k points=    20  Gaussian smearing, width (Ry)=  0.0010
                       cart. coord. in units 2pi/alat
        k(    1) = (   0.0000000   0.0000000   0.0000000), wk =   0.0185185
        k(    2) = (   0.0000000   0.0000000   0.1758183), wk =   0.0370370
        k(    3) = (   0.0000000   0.1920891   0.0000000), wk =   0.0370370
        k(    4) = (   0.0000000   0.1920891   0.1758183), wk =   0.0740741
        k(    5) = (   0.1666667   0.0000000   0.0300721), wk =   0.0370370
        k(    6) = (   0.1666667   0.0000000   0.2058904), wk =   0.0370370
        k(    7) = (   0.1666667   0.0000000  -0.1457462), wk =   0.0370370
        k(    8) = (   0.1666667   0.1920891   0.0300721), wk =   0.0740741
        k(    9) = (   0.1666667   0.1920891   0.2058904), wk =   0.0740741
        k(   10) = (   0.1666667   0.1920891  -0.1457462), wk =   0.0740741
        k(   11) = (   0.3333333   0.0000000   0.0601442), wk =   0.0370370
        k(   12) = (   0.3333333   0.0000000   0.2359625), wk =   0.0370370
        k(   13) = (   0.3333333   0.0000000  -0.1156742), wk =   0.0370370
        k(   14) = (   0.3333333   0.1920891   0.0601442), wk =   0.0740741
        k(   15) = (   0.3333333   0.1920891   0.2359625), wk =   0.0740741
        k(   16) = (   0.3333333   0.1920891  -0.1156742), wk =   0.0740741
        k(   17) = (  -0.5000000   0.0000000  -0.0902162), wk =   0.0185185
        k(   18) = (  -0.5000000   0.0000000   0.0856021), wk =   0.0370370
        k(   19) = (  -0.5000000   0.1920891  -0.0902162), wk =   0.0370370
        k(   20) = (  -0.5000000   0.1920891   0.0856021), wk =   0.0740741

                       cryst. coord.
        k(    1) = (   0.0000000   0.0000000   0.0000000), wk =   0.0185185
        k(    2) = (   0.0000000   0.0000000   0.3333333), wk =   0.0370370
        k(    3) = (   0.0000000   0.3333333   0.0000000), wk =   0.0370370
        k(    4) = (   0.0000000   0.3333333   0.3333333), wk =   0.0740741
        k(    5) = (   0.1666667   0.0000000  -0.0000000), wk =   0.0370370
        k(    6) = (   0.1666667   0.0000000   0.3333333), wk =   0.0370370
        k(    7) = (   0.1666667   0.0000000  -0.3333333), wk =   0.0370370
        k(    8) = (   0.1666667   0.3333333  -0.0000000), wk =   0.0740741
        k(    9) = (   0.1666667   0.3333333   0.3333333), wk =   0.0740741
        k(   10) = (   0.1666667   0.3333333  -0.3333333), wk =   0.0740741
        k(   11) = (   0.3333333   0.0000000  -0.0000000), wk =   0.0370370
        k(   12) = (   0.3333333   0.0000000   0.3333333), wk =   0.0370370
        k(   13) = (   0.3333333   0.0000000  -0.3333333), wk =   0.0370370
        k(   14) = (   0.3333333   0.3333333  -0.0000000), wk =   0.0740741
        k(   15) = (   0.3333333   0.3333333   0.3333333), wk =   0.0740741
        k(   16) = (   0.3333333   0.3333333  -0.3333333), wk =   0.0740741
        k(   17) = (  -0.5000000   0.0000000   0.0000000), wk =   0.0185185
        k(   18) = (  -0.5000000   0.0000000   0.3333333), wk =   0.0370370
        k(   19) = (  -0.5000000   0.3333333   0.0000000), wk =   0.0370370
        k(   20) = (  -0.5000000   0.3333333   0.3333333), wk =   0.0740741

     Dense  grid:   586467 G-vectors     FFT dimensions: (  72, 125, 135)

     Smooth grid:   207475 G-vectors     FFT dimensions: (  50,  90,  96)

     Dynamical RAM for                 wfc:      10.35 MB

     Dynamical RAM for     wfc (w. buffer):     424.41 MB

     Dynamical RAM for           str. fact:      10.44 MB

     Dynamical RAM for           local pot:       0.00 MB

     Dynamical RAM for          nlocal pot:      28.88 MB

     Dynamical RAM for                qrad:      24.61 MB

     Dynamical RAM for          rho,v,vnew:      18.42 MB

     Dynamical RAM for               rhoin:       6.14 MB

     Dynamical RAM for            rho*nmix:      47.73 MB

     Dynamical RAM for           G-vectors:       5.86 MB

     Dynamical RAM for          h,s,v(r/c):       1.13 MB

     Dynamical RAM for          <psi|beta>:       1.05 MB

     Dynamical RAM for                 psi:      20.70 MB

     Dynamical RAM for                hpsi:      20.70 MB

     Dynamical RAM for                spsi:      20.70 MB

     Dynamical RAM for      wfcinit/wfcrot:      24.90 MB

     Dynamical RAM for           addusdens:     314.70 MB

     Dynamical RAM for          addusforce:     383.50 MB

     Dynamical RAM for         addusstress:     302.02 MB

     Estimated static dynamical RAM per process >     540.17 MB

     Estimated max dynamical RAM per process >     971.40 MB

     Estimated total dynamical RAM >       5.69 GB

     Check: negative core charge=   -0.000004
     Generating pointlists ...
     new r_m :   0.1358 (alat units)  1.3602 (a.u.) for type    1
     new r_m :   0.1564 (alat units)  1.5665 (a.u.) for type    2
     new r_m :   0.0752 (alat units)  0.7528 (a.u.) for type    3
     new r_m :   0.2118 (alat units)  2.1213 (a.u.) for type    4
     new r_m :   0.1575 (alat units)  1.5770 (a.u.) for type    5
     new r_m :   0.0752 (alat units)  0.7528 (a.u.) for type    6
     new r_m :   0.1259 (alat units)  1.2603 (a.u.) for type    7

     Initial potential from superposition of free atoms

     starting charge     261.9493, renormalised to     262.0000
     Starting wfcs are  183 randomized atomic wfcs
     Checking if some PAW data can be deallocated... 
       PAW data deallocated on    5 nodes for type:  1
       PAW data deallocated on    5 nodes for type:  2
       PAW data deallocated on    5 nodes for type:  3
       PAW data deallocated on    5 nodes for type:  4
       PAW data deallocated on    5 nodes for type:  5
       PAW data deallocated on    1 nodes for type:  6
       PAW data deallocated on    4 nodes for type:  7

     total cpu time spent up to now is      195.6 secs

     Self-consistent Calculation

     iteration #  1     ecut=    60.00 Ry     beta= 0.70
     Davidson diagonalization with overlap

---- Real-time Memory Report at c_bands before calling an iterative solver
           604 MiB given to the printing process from OS
             0 MiB allocation reported by mallinfo(arena+hblkhd)
          4231 MiB available memory on the node where the printing process lives
------------------
     ethr =  1.00E-02,  avg # of iterations =  5.9

     total cpu time spent up to now is      706.4 secs

     total energy              =   -2623.71584798 Ry
     estimated scf accuracy    <      12.42344399 Ry

     total magnetization       =     4.00 Bohr mag/cell
     absolute magnetization    =     4.05 Bohr mag/cell

     iteration #  2     ecut=    60.00 Ry     beta= 0.70
     Davidson diagonalization with overlap

---- Real-time Memory Report at c_bands before calling an iterative solver
           901 MiB given to the printing process from OS
             0 MiB allocation reported by mallinfo(arena+hblkhd)
          3158 MiB available memory on the node where the printing process lives
------------------
     ethr =  4.74E-03,  avg # of iterations =  5.0

     total cpu time spent up to now is     1488.8 secs

     total energy              =   -2628.89323058 Ry
     estimated scf accuracy    <      12.21210801 Ry

     total magnetization       =     3.70 Bohr mag/cell
     absolute magnetization    =     4.13 Bohr mag/cell

     iteration #  3     ecut=    60.00 Ry     beta= 0.70
     Davidson diagonalization with overlap

---- Real-time Memory Report at c_bands before calling an iterative solver
           904 MiB given to the printing process from OS
             0 MiB allocation reported by mallinfo(arena+hblkhd)
          3138 MiB available memory on the node where the printing process lives
------------------
     ethr =  4.66E-03,  avg # of iterations =  2.0

     negative rho (up, down):  0.000E+00 2.198E-06

     total cpu time spent up to now is     1897.4 secs

     total energy              =   -2629.69943525 Ry
     estimated scf accuracy    <       6.01433398 Ry

     total magnetization       =     4.13 Bohr mag/cell
     absolute magnetization    =     4.53 Bohr mag/cell

     iteration #  4     ecut=    60.00 Ry     beta= 0.70
     Davidson diagonalization with overlap

---- Real-time Memory Report at c_bands before calling an iterative solver
           906 MiB given to the printing process from OS
             0 MiB allocation reported by mallinfo(arena+hblkhd)
          3227 MiB available memory on the node where the printing process lives
------------------
     ethr =  2.30E-03,  avg # of iterations =  2.0

     negative rho (up, down):  0.000E+00 1.504E-04

     total cpu time spent up to now is     2346.4 secs

     total energy              =   -2630.72092406 Ry
     estimated scf accuracy    <       0.60306740 Ry

     total magnetization       =     4.00 Bohr mag/cell
     absolute magnetization    =     4.34 Bohr mag/cell

     iteration #  5     ecut=    60.00 Ry     beta= 0.70
     Davidson diagonalization with overlap

---- Real-time Memory Report at c_bands before calling an iterative solver
           908 MiB given to the printing process from OS
             0 MiB allocation reported by mallinfo(arena+hblkhd)
          3049 MiB available memory on the node where the printing process lives
------------------
     c_bands:  1 eigenvalues not converged
     c_bands:  1 eigenvalues not converged
     c_bands:  1 eigenvalues not converged
     ethr =  2.30E-04,  avg # of iterations = 14.0

     negative rho (up, down):  0.000E+00 3.058E-04

     total cpu time spent up to now is     3146.7 secs

     total energy              =   -2631.22581684 Ry
     estimated scf accuracy    <       0.08790242 Ry

     total magnetization       =     4.00 Bohr mag/cell
     absolute magnetization    =     4.12 Bohr mag/cell

     iteration #  6     ecut=    60.00 Ry     beta= 0.70
     Davidson diagonalization with overlap

---- Real-time Memory Report at c_bands before calling an iterative solver
           911 MiB given to the printing process from OS
             0 MiB allocation reported by mallinfo(arena+hblkhd)
          2970 MiB available memory on the node where the printing process lives
------------------
     c_bands:  2 eigenvalues not converged
     c_bands:  1 eigenvalues not converged
     c_bands:  1 eigenvalues not converged
     c_bands:  1 eigenvalues not converged
     c_bands:  1 eigenvalues not converged
     c_bands:  1 eigenvalues not converged
     c_bands:  1 eigenvalues not converged
     c_bands:  3 eigenvalues not converged
     c_bands:  1 eigenvalues not converged
     c_bands:  1 eigenvalues not converged
     c_bands:  2 eigenvalues not converged
     c_bands:  1 eigenvalues not converged
     c_bands:  2 eigenvalues not converged
     c_bands:  3 eigenvalues not converged
     c_bands:  1 eigenvalues not converged
     c_bands:  1 eigenvalues not converged
     ethr =  3.36E-05,  avg # of iterations = 15.8

     negative rho (up, down):  0.000E+00 3.538E-04

     total cpu time spent up to now is     3899.9 secs

     total energy              =   -2631.24664969 Ry
     estimated scf accuracy    <       0.03595522 Ry

     total magnetization       =     4.00 Bohr mag/cell
     absolute magnetization    =     4.09 Bohr mag/cell

     iteration #  7     ecut=    60.00 Ry     beta= 0.70
     Davidson diagonalization with overlap

---- Real-time Memory Report at c_bands before calling an iterative solver
           913 MiB given to the printing process from OS
             0 MiB allocation reported by mallinfo(arena+hblkhd)
          3145 MiB available memory on the node where the printing process lives
------------------
     c_bands:  1 eigenvalues not converged
     c_bands:  1 eigenvalues not converged
     c_bands:  1 eigenvalues not converged
     c_bands:  1 eigenvalues not converged
     c_bands:  1 eigenvalues not converged
     c_bands:  1 eigenvalues not converged
     ethr =  1.37E-05,  avg # of iterations = 11.1

     negative rho (up, down):  0.000E+00 3.548E-04

     total cpu time spent up to now is     4464.8 secs

     total energy              =   -2631.25169834 Ry
     estimated scf accuracy    <       0.01059848 Ry

     total magnetization       =     4.00 Bohr mag/cell
     absolute magnetization    =     4.08 Bohr mag/cell

     iteration #  8     ecut=    60.00 Ry     beta= 0.70
     Davidson diagonalization with overlap

---- Real-time Memory Report at c_bands before calling an iterative solver
           915 MiB given to the printing process from OS
             0 MiB allocation reported by mallinfo(arena+hblkhd)
          3018 MiB available memory on the node where the printing process lives
------------------
     c_bands:  1 eigenvalues not converged
     c_bands:  2 eigenvalues not converged
     c_bands:  1 eigenvalues not converged
     c_bands:  3 eigenvalues not converged
     c_bands:  2 eigenvalues not converged
     ethr =  4.05E-06,  avg # of iterations = 11.6

     negative rho (up, down):  0.000E+00 3.572E-04

     total cpu time spent up to now is     5113.5 secs

     total energy              =   -2631.25386716 Ry
     estimated scf accuracy    <       0.00333334 Ry

     total magnetization       =     4.00 Bohr mag/cell
     absolute magnetization    =     4.06 Bohr mag/cell

     iteration #  9     ecut=    60.00 Ry     beta= 0.70
     Davidson diagonalization with overlap

---- Real-time Memory Report at c_bands before calling an iterative solver
           917 MiB given to the printing process from OS
             0 MiB allocation reported by mallinfo(arena+hblkhd)
          2946 MiB available memory on the node where the printing process lives
------------------
     c_bands:  1 eigenvalues not converged
     c_bands:  1 eigenvalues not converged
     c_bands:  1 eigenvalues not converged
     c_bands:  2 eigenvalues not converged
     c_bands:  1 eigenvalues not converged
     c_bands:  1 eigenvalues not converged
     c_bands:  2 eigenvalues not converged
     c_bands:  1 eigenvalues not converged
     ethr =  1.27E-06,  avg # of iterations = 11.0

     negative rho (up, down):  0.000E+00 3.617E-04

     total cpu time spent up to now is     5677.4 secs

     total energy              =   -2631.25446358 Ry
     estimated scf accuracy    <       0.00117584 Ry

     total magnetization       =     4.00 Bohr mag/cell
     absolute magnetization    =     4.06 Bohr mag/cell

     iteration # 10     ecut=    60.00 Ry     beta= 0.70
     Davidson diagonalization with overlap

---- Real-time Memory Report at c_bands before calling an iterative solver
           920 MiB given to the printing process from OS
             0 MiB allocation reported by mallinfo(arena+hblkhd)
          3151 MiB available memory on the node where the printing process lives
------------------
     c_bands:  1 eigenvalues not converged
     c_bands:  2 eigenvalues not converged
     c_bands:  1 eigenvalues not converged
     ethr =  4.49E-07,  avg # of iterations =  7.0

     negative rho (up, down):  0.000E+00 3.658E-04

     total cpu time spent up to now is     6230.7 secs

     total energy              =   -2631.25475185 Ry
     estimated scf accuracy    <       0.00031229 Ry

     total magnetization       =     4.00 Bohr mag/cell
     absolute magnetization    =     4.05 Bohr mag/cell

     iteration # 11     ecut=    60.00 Ry     beta= 0.70
     Davidson diagonalization with overlap

---- Real-time Memory Report at c_bands before calling an iterative solver
           920 MiB given to the printing process from OS
             0 MiB allocation reported by mallinfo(arena+hblkhd)
          3090 MiB available memory on the node where the printing process lives
------------------
     c_bands:  2 eigenvalues not converged
     ethr =  1.19E-07,  avg # of iterations =  6.1

     negative rho (up, down):  0.000E+00 3.643E-04

     total cpu time spent up to now is     7174.1 secs

     total energy              =   -2631.25483646 Ry
     estimated scf accuracy    <       0.00005209 Ry

     total magnetization       =     4.00 Bohr mag/cell
     absolute magnetization    =     4.05 Bohr mag/cell

     iteration # 12     ecut=    60.00 Ry     beta= 0.70
     Davidson diagonalization with overlap

---- Real-time Memory Report at c_bands before calling an iterative solver
           920 MiB given to the printing process from OS
             0 MiB allocation reported by mallinfo(arena+hblkhd)
          1380 MiB available memory on the node where the printing process lives
------------------
     ethr =  1.99E-08,  avg # of iterations =  6.8

     negative rho (up, down):  0.000E+00 3.655E-04

     total cpu time spent up to now is     8443.0 secs

     total energy              =   -2631.25486949 Ry
     estimated scf accuracy    <       0.00002546 Ry

     total magnetization       =     4.00 Bohr mag/cell
     absolute magnetization    =     4.05 Bohr mag/cell

     iteration # 13     ecut=    60.00 Ry     beta= 0.70
     Davidson diagonalization with overlap

---- Real-time Memory Report at c_bands before calling an iterative solver
           920 MiB given to the printing process from OS
             0 MiB allocation reported by mallinfo(arena+hblkhd)
          5311 MiB available memory on the node where the printing process lives
------------------
     ethr =  9.72E-09,  avg # of iterations =  4.0

     negative rho (up, down):  0.000E+00 3.655E-04

     total cpu time spent up to now is     8911.6 secs

     total energy              =   -2631.25487206 Ry
     estimated scf accuracy    <       0.00000626 Ry

     total magnetization       =     4.00 Bohr mag/cell
     absolute magnetization    =     4.05 Bohr mag/cell

     iteration # 14     ecut=    60.00 Ry     beta= 0.70
     Davidson diagonalization with overlap

---- Real-time Memory Report at c_bands before calling an iterative solver
           920 MiB given to the printing process from OS
             0 MiB allocation reported by mallinfo(arena+hblkhd)
          5276 MiB available memory on the node where the printing process lives
------------------
     ethr =  2.39E-09,  avg # of iterations =  6.0

     negative rho (up, down):  0.000E+00 3.653E-04

     Magnetic moment per site  (integrated on atomic sphere of radius R)
     atom   1 (R=0.212)  charge=  7.4940  magn=  0.0001
     atom   2 (R=0.212)  charge=  7.4987  magn=  0.0001
     atom   3 (R=0.157)  charge=  8.1086  magn= -0.0002
     atom   4 (R=0.157)  charge=  8.1046  magn= -0.0001
     atom   5 (R=0.157)  charge=  8.1086  magn=  0.0007
     atom   6 (R=0.157)  charge=  8.1046  magn= -0.0000
     atom   7 (R=0.157)  charge=  8.1111  magn=  0.0006
     atom   8 (R=0.126)  charge=  0.5488  magn=  0.0008
     atom   9 (R=0.126)  charge=  0.5488  magn=  0.0008
     atom  10 (R=0.126)  charge=  0.5418  magn= -0.0000
     atom  11 (R=0.126)  charge=  0.5418  magn= -0.0000
     atom  12 (R=0.126)  charge=  0.5414  magn= -0.0000
     atom  13 (R=0.126)  charge=  0.5414  magn= -0.0000
     atom  14 (R=0.136)  charge=  0.3438  magn=  0.0014
     atom  15 (R=0.136)  charge=  0.3438  magn=  0.0014
     atom  16 (R=0.075)  charge=  1.9364  magn=  0.0159
     atom  17 (R=0.075)  charge=  1.9364  magn=  0.0159
     atom  18 (R=0.075)  charge=  1.9401  magn=  0.0004
     atom  19 (R=0.075)  charge=  1.9401  magn=  0.0004
     atom  20 (R=0.075)  charge=  1.9386  magn=  0.0004
     atom  21 (R=0.075)  charge=  1.9386  magn=  0.0004
     atom  22 (R=0.075)  charge=  1.9318  magn=  0.0280
     atom  23 (R=0.075)  charge=  1.9318  magn=  0.0280
     atom  24 (R=0.075)  charge=  1.9413  magn=  0.0010
     atom  25 (R=0.075)  charge=  1.9413  magn=  0.0010
     atom  26 (R=0.075)  charge=  1.9474  magn=  0.0008
     atom  27 (R=0.075)  charge=  1.9474  magn=  0.0008
     atom  28 (R=0.075)  charge=  1.9449  magn=  0.0001
     atom  29 (R=0.075)  charge=  1.9449  magn=  0.0001
     atom  30 (R=0.075)  charge=  1.9459  magn=  0.0002
     atom  31 (R=0.075)  charge=  1.9459  magn=  0.0002
     atom  32 (R=0.075)  charge=  1.9412  magn=  0.0006
     atom  33 (R=0.075)  charge=  1.9412  magn=  0.0006
     atom  34 (R=0.075)  charge=  1.9405  magn= -0.0000
     atom  35 (R=0.075)  charge=  1.9405  magn= -0.0000
     atom  36 (R=0.075)  charge=  1.9350  magn=  0.0214
     atom  37 (R=0.075)  charge=  1.9350  magn=  0.0214
     atom  38 (R=0.075)  charge=  1.9405  magn=  0.0003
     atom  39 (R=0.075)  charge=  1.9405  magn=  0.0003
     atom  40 (R=0.075)  charge=  0.4005  magn=  0.0000
     atom  41 (R=0.075)  charge=  0.4005  magn=  0.0000
     atom  42 (R=0.075)  charge=  0.3994  magn= -0.0000
     atom  43 (R=0.075)  charge=  0.3994  magn= -0.0000
     atom  44 (R=0.156)  charge= 13.2510  magn=  3.2689

     total cpu time spent up to now is     9588.5 secs

     End of self-consistent calculation

 ------ SPIN UP ------------


          k = 0.0000 0.0000 0.0000 ( 25927 PWs)   bands (ev):

   -81.1625 -67.5045 -67.5018 -67.2928 -67.1438 -66.9879 -48.1632 -46.8370
   -46.6606 -34.2792 -34.2640 -34.2611 -34.2516 -34.2404 -34.2375 -34.0589
   -34.0496 -34.0282 -33.9038 -33.8972 -33.8881 -33.7515 -33.7378 -33.7321
   -22.9567 -22.9392 -15.0021 -14.9479 -14.0650 -14.0146 -13.5420 -13.5171
   -13.3556 -13.2341 -13.1530 -13.0125 -12.8119 -12.7698 -12.7680 -12.7378
   -12.6425 -12.5510 -12.4368 -12.3718 -12.2570 -12.2334 -12.1587 -12.0555
   -11.4952 -11.2027  -6.5323  -6.5045  -6.4430  -6.4407  -6.4311  -6.4196
    -4.2120  -4.1528  -2.3197  -2.2203  -1.7563  -1.2618  -1.0911  -1.0689
    -0.9980  -0.9175  -0.5801  -0.5696  -0.4872  -0.3071  -0.2745  -0.0718
     0.0861   0.1505   0.2691   0.4936   0.6048   0.6247   0.7446   0.9436
     0.9633   1.1324   1.1568   1.2957   1.4480   1.5150   1.5402   1.7068
     1.7291   1.8960   1.9102   2.1123   2.1733   2.1886   2.2003   2.2910
     2.2992   2.5464   2.5676   2.6936   2.7064   2.7187   2.7814   2.8556
     2.9122   2.9207   3.0473   3.1091   3.1826   3.2486   3.2647   3.3602
     3.4219   3.4443   3.5096   3.5188   3.6167   3.6194   3.6477   3.7717
     3.8185   3.8406   3.9266   3.9492   3.9657   4.1664   4.3724   4.4218
     5.2551   5.5532   6.3800   6.8726   7.1233   9.1624  10.6944  11.3044
    11.6172  12.0038  12.1847  12.2163  12.5853  12.6317  13.0200  13.1218
    13.1389  13.2679  13.3577  13.5460  13.5886  13.6629  13.7581  13.8587
    13.8956  14.1355  14.2843  14.2992  14.3734

     occupation numbers 
     1.0000   1.0000   1.0000   1.0000   1.0000   1.0000   1.0000   1.0000
     1.0000   1.0000   1.0000   1.0000   1.0000   1.0000   1.0000   1.0000
     1.0000   1.0000   1.0000   1.0000   1.0000   1.0000   1.0000   1.0000
     1.0000   1.0000   1.0000   1.0000   1.0000   1.0000   1.0000   1.0000
     1.0000   1.0000   1.0000   1.0000   1.0000   1.0000   1.0000   1.0000
     1.0000   1.0000   1.0000   1.0000   1.0000   1.0000   1.0000   1.0000
     1.0000   1.0000   1.0000   1.0000   1.0000   1.0000   1.0000   1.0000
     1.0000   1.0000   1.0000   1.0000   1.0000   1.0000   1.0000   1.0000
     1.0000   1.0000   1.0000   1.0000   1.0000   1.0000   1.0000   1.0000
     1.0000   1.0000   1.0000   1.0000   1.0000   1.0000   1.0000   1.0000
     1.0000   1.0000   1.0000   1.0000   1.0000   1.0000   1.0000   1.0000
     1.0000   1.0000   1.0000   1.0000   1.0000   1.0000   1.0000   1.0000
     1.0000   1.0000   1.0000   1.0000   1.0000   1.0000   1.0000   1.0000
     1.0000   1.0000   1.0000   1.0000   1.0000   1.0000   1.0000   1.0000
     1.0000   1.0000   1.0000   1.0000   1.0000   1.0000   1.0000   1.0000
     1.0000   1.0000   1.0000   1.0000   1.0000   1.0000   1.0000   1.0000
     1.0000   1.0000   1.0000   1.0000   1.0000   0.0000   0.0000   0.0000
     0.0000   0.0000   0.0000   0.0000   0.0000   0.0000   0.0000   0.0000
     0.0000   0.0000   0.0000   0.0000   0.0000   0.0000   0.0000   0.0000
     0.0000   0.0000   0.0000   0.0000   0.0000

          k = 0.0000 0.0000 0.1758 ( 25971 PWs)   bands (ev):

   -81.1625 -67.5045 -67.5018 -67.2928 -67.1438 -66.9879 -48.1632 -46.8370
   -46.6606 -34.2792 -34.2641 -34.2611 -34.2516 -34.2404 -34.2375 -34.0589
   -34.0496 -34.0282 -33.9038 -33.8972 -33.8881 -33.7515 -33.7378 -33.7322
   -22.9567 -22.9392 -14.9891 -14.9618 -14.0535 -14.0269 -13.5424 -13.5167
   -13.3430 -13.2552 -13.1447 -13.0080 -12.8137 -12.7831 -12.7546 -12.7408
   -12.6361 -12.5551 -12.4294 -12.3792 -12.2601 -12.2299 -12.1522 -12.0625
   -11.4948 -11.2037  -6.5324  -6.5045  -6.4430  -6.4407  -6.4311  -6.4194
    -4.2086  -4.1568  -2.2970  -2.2473  -1.7229  -1.2479  -1.0993  -1.0569
    -0.9920  -0.9395  -0.5899  -0.5476  -0.5094  -0.3214  -0.2594  -0.1697
     0.1175   0.1717   0.2152   0.4406   0.5981   0.6097   0.7827   0.9673
     1.0100   1.1444   1.1937   1.2450   1.4516   1.5173   1.5781   1.6526
     1.8275   1.9137   2.0160   2.1484   2.1697   2.1906   2.2126   2.2799
     2.3406   2.4769   2.5627   2.6051   2.6909   2.6982   2.7526   2.7966
     2.8684   2.9489   3.0787   3.1373   3.1743   3.2271   3.2630   3.3924
     3.4133   3.4535   3.4773   3.5207   3.5846   3.6368   3.7001   3.7653
     3.8260   3.8558   3.8767   3.9250   3.9569   4.2087   4.3733   4.4167
     5.2565   5.5485   6.3800   6.8706   7.1255   9.4768  10.2067  11.4056
    11.6553  11.8365  12.1182  12.2437  12.7590  12.8829  13.0087  13.1612
    13.1848  13.2358  13.3667  13.4481  13.4696  13.6871  13.8082  13.8245
    13.9731  14.0656  14.1711  14.3612  14.3892

     occupation numbers 
     1.0000   1.0000   1.0000   1.0000   1.0000   1.0000   1.0000   1.0000
     1.0000   1.0000   1.0000   1.0000   1.0000   1.0000   1.0000   1.0000
     1.0000   1.0000   1.0000   1.0000   1.0000   1.0000   1.0000   1.0000
     1.0000   1.0000   1.0000   1.0000   1.0000   1.0000   1.0000   1.0000
     1.0000   1.0000   1.0000   1.0000   1.0000   1.0000   1.0000   1.0000
     1.0000   1.0000   1.0000   1.0000   1.0000   1.0000   1.0000   1.0000
     1.0000   1.0000   1.0000   1.0000   1.0000   1.0000   1.0000   1.0000
     1.0000   1.0000   1.0000   1.0000   1.0000   1.0000   1.0000   1.0000
     1.0000   1.0000   1.0000   1.0000   1.0000   1.0000   1.0000   1.0000
     1.0000   1.0000   1.0000   1.0000   1.0000   1.0000   1.0000   1.0000
     1.0000   1.0000   1.0000   1.0000   1.0000   1.0000   1.0000   1.0000
     1.0000   1.0000   1.0000   1.0000   1.0000   1.0000   1.0000   1.0000
     1.0000   1.0000   1.0000   1.0000   1.0000   1.0000   1.0000   1.0000
     1.0000   1.0000   1.0000   1.0000   1.0000   1.0000   1.0000   1.0000
     1.0000   1.0000   1.0000   1.0000   1.0000   1.0000   1.0000   1.0000
     1.0000   1.0000   1.0000   1.0000   1.0000   1.0000   1.0000   1.0000
     1.0000   1.0000   1.0000   1.0000   1.0000   0.0000   0.0000   0.0000
     0.0000   0.0000   0.0000   0.0000   0.0000   0.0000   0.0000   0.0000
     0.0000   0.0000   0.0000   0.0000   0.0000   0.0000   0.0000   0.0000
     0.0000   0.0000   0.0000   0.0000   0.0000

          k = 0.0000 0.1921 0.0000 ( 25933 PWs)   bands (ev):

   -81.1625 -67.5045 -67.5018 -67.2928 -67.1438 -66.9879 -48.1632 -46.8369
   -46.6606 -34.2792 -34.2640 -34.2611 -34.2516 -34.2404 -34.2375 -34.0589
   -34.0496 -34.0282 -33.9038 -33.8971 -33.8881 -33.7515 -33.7378 -33.7322
   -22.9566 -22.9392 -14.9969 -14.9427 -14.1016 -14.0470 -13.5421 -13.5172
   -13.2576 -13.1466 -13.1261 -13.0329 -12.8812 -12.8315 -12.7914 -12.7378
   -12.6550 -12.5488 -12.4237 -12.3685 -12.2565 -12.2331 -12.1532 -12.0512
   -11.4932 -11.2020  -6.5294  -6.5078  -6.4404  -6.4375  -6.4341  -6.4224
    -4.1730  -4.1132  -2.4690  -2.3625  -1.6966  -1.3362  -0.9912  -0.9881
    -0.9014  -0.8530  -0.6308  -0.5898  -0.5416  -0.2426  -0.2316  -0.0577
    -0.0116   0.2069   0.2863   0.4795   0.5585   0.5625   0.7539   0.9241
     0.9818   1.0624   1.1750   1.2358   1.3918   1.5583   1.6049   1.7355
     1.7407   1.9298   2.0056   2.1196   2.1297   2.2226   2.2834   2.3890
     2.3927   2.5143   2.5196   2.5933   2.7089   2.7135   2.8234   2.8593
     2.8960   2.9837   3.0503   3.0719   3.1387   3.1858   3.3099   3.3346
     3.4259   3.4584   3.4727   3.5420   3.5859   3.6560   3.6921   3.7446
     3.8133   3.8189   3.9130   3.9456   3.9540   4.1915   4.2086   4.3517
     5.2565   5.5445   6.3889   6.8419   7.1366   9.5671  10.4959  10.9387
    11.4951  11.8893  12.3387  12.5777  12.6649  12.7563  12.9216  13.1093
    13.1196  13.2886  13.3849  13.4824  13.4910  13.6787  13.7038  13.8306
    13.8651  13.8908  14.3284  14.3605  14.4895

     occupation numbers 
     1.0000   1.0000   1.0000   1.0000   1.0000   1.0000   1.0000   1.0000
     1.0000   1.0000   1.0000   1.0000   1.0000   1.0000   1.0000   1.0000
     1.0000   1.0000   1.0000   1.0000   1.0000   1.0000   1.0000   1.0000
     1.0000   1.0000   1.0000   1.0000   1.0000   1.0000   1.0000   1.0000
     1.0000   1.0000   1.0000   1.0000   1.0000   1.0000   1.0000   1.0000
     1.0000   1.0000   1.0000   1.0000   1.0000   1.0000   1.0000   1.0000
     1.0000   1.0000   1.0000   1.0000   1.0000   1.0000   1.0000   1.0000
     1.0000   1.0000   1.0000   1.0000   1.0000   1.0000   1.0000   1.0000
     1.0000   1.0000   1.0000   1.0000   1.0000   1.0000   1.0000   1.0000
     1.0000   1.0000   1.0000   1.0000   1.0000   1.0000   1.0000   1.0000
     1.0000   1.0000   1.0000   1.0000   1.0000   1.0000   1.0000   1.0000
     1.0000   1.0000   1.0000   1.0000   1.0000   1.0000   1.0000   1.0000
     1.0000   1.0000   1.0000   1.0000   1.0000   1.0000   1.0000   1.0000
     1.0000   1.0000   1.0000   1.0000   1.0000   1.0000   1.0000   1.0000
     1.0000   1.0000   1.0000   1.0000   1.0000   1.0000   1.0000   1.0000
     1.0000   1.0000   1.0000   1.0000   1.0000   1.0000   1.0000   1.0000
     1.0000   1.0000   1.0000   1.0000   1.0000   0.0000   0.0000   0.0000
     0.0000   0.0000   0.0000   0.0000   0.0000   0.0000   0.0000   0.0000
     0.0000   0.0000   0.0000   0.0000   0.0000   0.0000   0.0000   0.0000
     0.0000   0.0000   0.0000   0.0000   0.0000

          k = 0.0000 0.1921 0.1758 ( 25924 PWs)   bands (ev):

   -81.1625 -67.5045 -67.5018 -67.2928 -67.1438 -66.9879 -48.1632 -46.8369
   -46.6606 -34.2792 -34.2640 -34.2611 -34.2516 -34.2404 -34.2375 -34.0589
   -34.0496 -34.0282 -33.9038 -33.8971 -33.8881 -33.7515 -33.7378 -33.7321
   -22.9566 -22.9392 -14.9838 -14.9567 -14.0885 -14.0612 -13.5426 -13.5167
   -13.2484 -13.1512 -13.1341 -13.0228 -12.8961 -12.8155 -12.7944 -12.7393
   -12.6525 -12.5529 -12.4166 -12.3756 -12.2597 -12.2296 -12.1463 -12.0582
   -11.4928 -11.2029  -6.5294  -6.5078  -6.4404  -6.4374  -6.4341  -6.4222
    -4.1668  -4.1199  -2.4460  -2.3883  -1.6673  -1.3237  -0.9911  -0.9858
    -0.8979  -0.8609  -0.6354  -0.5877  -0.5512  -0.2895  -0.2012  -0.1436
     0.0383   0.2031   0.2156   0.4506   0.5487   0.5602   0.8004   0.9152
     1.0369   1.0701   1.1161   1.2931   1.4602   1.5485   1.6395   1.7238
     1.8474   1.9049   2.0502   2.0967   2.1642   2.1936   2.2891   2.3907
     2.4162   2.4799   2.5259   2.5887   2.6494   2.6912   2.7861   2.8380
     2.8916   2.9692   3.0299   3.0968   3.1193   3.1954   3.2616   3.3595
     3.3937   3.4800   3.4863   3.5493   3.6084   3.6416   3.6735   3.7611
     3.8021   3.8332   3.8797   3.9212   3.9751   4.2114   4.2373   4.3539
     5.2580   5.5389   6.3890   6.8373   7.1383   9.8421  10.4999  10.6874
    11.1882  11.8664  12.3252  12.6220  12.7875  12.9422  13.0892  13.1245
    13.2002  13.2692  13.4043  13.4663  13.5902  13.6267  13.6600  13.7761
    13.8310  14.0085  14.1969  14.3468  14.4144

     occupation numbers 
     1.0000   1.0000   1.0000   1.0000   1.0000   1.0000   1.0000   1.0000
     1.0000   1.0000   1.0000   1.0000   1.0000   1.0000   1.0000   1.0000
     1.0000   1.0000   1.0000   1.0000   1.0000   1.0000   1.0000   1.0000
     1.0000   1.0000   1.0000   1.0000   1.0000   1.0000   1.0000   1.0000
     1.0000   1.0000   1.0000   1.0000   1.0000   1.0000   1.0000   1.0000
     1.0000   1.0000   1.0000   1.0000   1.0000   1.0000   1.0000   1.0000
     1.0000   1.0000   1.0000   1.0000   1.0000   1.0000   1.0000   1.0000
     1.0000   1.0000   1.0000   1.0000   1.0000   1.0000   1.0000   1.0000
     1.0000   1.0000   1.0000   1.0000   1.0000   1.0000   1.0000   1.0000
     1.0000   1.0000   1.0000   1.0000   1.0000   1.0000   1.0000   1.0000
     1.0000   1.0000   1.0000   1.0000   1.0000   1.0000   1.0000   1.0000
     1.0000   1.0000   1.0000   1.0000   1.0000   1.0000   1.0000   1.0000
     1.0000   1.0000   1.0000   1.0000   1.0000   1.0000   1.0000   1.0000
     1.0000   1.0000   1.0000   1.0000   1.0000   1.0000   1.0000   1.0000
     1.0000   1.0000   1.0000   1.0000   1.0000   1.0000   1.0000   1.0000
     1.0000   1.0000   1.0000   1.0000   1.0000   1.0000   1.0000   1.0000
     1.0000   1.0000   1.0000   1.0000   1.0000   0.0000   0.0000   0.0000
     0.0000   0.0000   0.0000   0.0000   0.0000   0.0000   0.0000   0.0000
     0.0000   0.0000   0.0000   0.0000   0.0000   0.0000   0.0000   0.0000
     0.0000   0.0000   0.0000   0.0000   0.0000

          k = 0.1667 0.0000 0.0301 ( 25941 PWs)   bands (ev):

   -81.1625 -67.5044 -67.5019 -67.2928 -67.1438 -66.9879 -48.1632 -46.8370
   -46.6606 -34.2785 -34.2660 -34.2601 -34.2511 -34.2405 -34.2376 -34.0589
   -34.0495 -34.0282 -33.9039 -33.8971 -33.8881 -33.7516 -33.7379 -33.7321
   -22.9565 -22.9390 -14.9433 -14.8900 -14.0827 -14.0360 -13.6609 -13.6274
   -13.2808 -13.1597 -13.1066 -12.9973 -12.8316 -12.7745 -12.7610 -12.7479
   -12.6362 -12.5585 -12.4524 -12.3910 -12.3174 -12.2699 -12.1413 -12.0445
   -11.4786 -11.2187  -6.5337  -6.5075  -6.4394  -6.4393  -6.4291  -6.4194
    -4.0523  -3.9901  -2.2871  -2.1884  -1.7538  -1.3628  -1.3188  -1.2331
    -0.8061  -0.7330  -0.6505  -0.5809  -0.4576  -0.2754  -0.2452  -0.0617
     0.1054   0.1662   0.2610   0.4679   0.5623   0.6608   0.7119   0.8221
     1.0248   1.1469   1.1763   1.2625   1.3831   1.4705   1.5863   1.6325
     1.7150   1.8999   2.0015   2.0207   2.1118   2.2013   2.2765   2.3140
     2.4304   2.4826   2.5895   2.6716   2.6852   2.7242   2.7766   2.8765
     2.9238   2.9626   3.0222   3.1244   3.1541   3.2272   3.3014   3.3114
     3.3873   3.4207   3.4751   3.5178   3.5495   3.6467   3.6998   3.7674
     3.7881   3.8263   3.8911   3.9144   3.9501   4.1138   4.1889   4.3917
     5.3160   5.5206   6.3832   6.8724   7.1122   9.4924  10.8676  11.3842
    11.7601  12.0349  12.1983  12.3729  12.6001  12.7497  12.9536  13.0265
    13.1347  13.3110  13.3242  13.4911  13.5602  13.6651  13.7330  13.8015
    13.9247  14.1818  14.2068  14.2942  14.4050

     occupation numbers 
     1.0000   1.0000   1.0000   1.0000   1.0000   1.0000   1.0000   1.0000
     1.0000   1.0000   1.0000   1.0000   1.0000   1.0000   1.0000   1.0000
     1.0000   1.0000   1.0000   1.0000   1.0000   1.0000   1.0000   1.0000
     1.0000   1.0000   1.0000   1.0000   1.0000   1.0000   1.0000   1.0000
     1.0000   1.0000   1.0000   1.0000   1.0000   1.0000   1.0000   1.0000
     1.0000   1.0000   1.0000   1.0000   1.0000   1.0000   1.0000   1.0000
     1.0000   1.0000   1.0000   1.0000   1.0000   1.0000   1.0000   1.0000
     1.0000   1.0000   1.0000   1.0000   1.0000   1.0000   1.0000   1.0000
     1.0000   1.0000   1.0000   1.0000   1.0000   1.0000   1.0000   1.0000
     1.0000   1.0000   1.0000   1.0000   1.0000   1.0000   1.0000   1.0000
     1.0000   1.0000   1.0000   1.0000   1.0000   1.0000   1.0000   1.0000
     1.0000   1.0000   1.0000   1.0000   1.0000   1.0000   1.0000   1.0000
     1.0000   1.0000   1.0000   1.0000   1.0000   1.0000   1.0000   1.0000
     1.0000   1.0000   1.0000   1.0000   1.0000   1.0000   1.0000   1.0000
     1.0000   1.0000   1.0000   1.0000   1.0000   1.0000   1.0000   1.0000
     1.0000   1.0000   1.0000   1.0000   1.0000   1.0000   1.0000   1.0000
     1.0000   1.0000   1.0000   1.0000   1.0000   0.0000   0.0000   0.0000
     0.0000   0.0000   0.0000   0.0000   0.0000   0.0000   0.0000   0.0000
     0.0000   0.0000   0.0000   0.0000   0.0000   0.0000   0.0000   0.0000
     0.0000   0.0000   0.0000   0.0000   0.0000

          k = 0.1667 0.0000 0.2059 ( 25961 PWs)   bands (ev):

   -81.1625 -67.5044 -67.5019 -67.2928 -67.1438 -66.9879 -48.1632 -46.8370
   -46.6606 -34.2785 -34.2660 -34.2601 -34.2511 -34.2405 -34.2376 -34.0589
   -34.0495 -34.0282 -33.9039 -33.8971 -33.8881 -33.7516 -33.7379 -33.7321
   -22.9565 -22.9390 -14.9267 -14.9076 -14.0726 -14.0468 -13.6563 -13.6322
   -13.2682 -13.1826 -13.0967 -12.9920 -12.8299 -12.7879 -12.7599 -12.7415
   -12.6307 -12.5625 -12.4464 -12.3989 -12.3101 -12.2760 -12.1322 -12.0532
   -11.4778 -11.2199  -6.5338  -6.5074  -6.4394  -6.4393  -6.4291  -6.4193
    -4.0543  -3.9883  -2.2658  -2.2146  -1.7177  -1.4026  -1.2868  -1.2170
    -0.8009  -0.7432  -0.6503  -0.6030  -0.4341  -0.2810  -0.2387  -0.1756
     0.1433   0.1988   0.2137   0.4034   0.5536   0.6644   0.6855   0.8906
     1.0586   1.1493   1.1889   1.2525   1.3753   1.5143   1.5552   1.7052
     1.7229   1.9535   2.0268   2.0508   2.1365   2.2466   2.2855   2.3439
     2.3810   2.4727   2.5307   2.5948   2.6453   2.7368   2.7607   2.8142
     2.8749   3.0194   3.0348   3.0796   3.1851   3.2543   3.2670   3.3358
     3.3578   3.4052   3.4693   3.5157   3.5792   3.6763   3.7221   3.7456
     3.7993   3.8403   3.8548   3.8646   3.9504   4.1386   4.2279   4.3878
     5.3166   5.5159   6.3826   6.8712   7.1121   9.8704  10.3092  11.4737
    11.7809  11.8959  12.2397  12.2907  12.5525  12.8653  13.1113  13.1573
    13.2707  13.3405  13.3724  13.4381  13.5171  13.5867  13.6749  13.8239
    13.9232  13.9864  14.1929  14.3435  14.4103

     occupation numbers 
     1.0000   1.0000   1.0000   1.0000   1.0000   1.0000   1.0000   1.0000
     1.0000   1.0000   1.0000   1.0000   1.0000   1.0000   1.0000   1.0000
     1.0000   1.0000   1.0000   1.0000   1.0000   1.0000   1.0000   1.0000
     1.0000   1.0000   1.0000   1.0000   1.0000   1.0000   1.0000   1.0000
     1.0000   1.0000   1.0000   1.0000   1.0000   1.0000   1.0000   1.0000
     1.0000   1.0000   1.0000   1.0000   1.0000   1.0000   1.0000   1.0000
     1.0000   1.0000   1.0000   1.0000   1.0000   1.0000   1.0000   1.0000
     1.0000   1.0000   1.0000   1.0000   1.0000   1.0000   1.0000   1.0000
     1.0000   1.0000   1.0000   1.0000   1.0000   1.0000   1.0000   1.0000
     1.0000   1.0000   1.0000   1.0000   1.0000   1.0000   1.0000   1.0000
     1.0000   1.0000   1.0000   1.0000   1.0000   1.0000   1.0000   1.0000
     1.0000   1.0000   1.0000   1.0000   1.0000   1.0000   1.0000   1.0000
     1.0000   1.0000   1.0000   1.0000   1.0000   1.0000   1.0000   1.0000
     1.0000   1.0000   1.0000   1.0000   1.0000   1.0000   1.0000   1.0000
     1.0000   1.0000   1.0000   1.0000   1.0000   1.0000   1.0000   1.0000
     1.0000   1.0000   1.0000   1.0000   1.0000   1.0000   1.0000   1.0000
     1.0000   1.0000   1.0000   1.0000   1.0000   0.0000   0.0000   0.0000
     0.0000   0.0000   0.0000   0.0000   0.0000   0.0000   0.0000   0.0000
     0.0000   0.0000   0.0000   0.0000   0.0000   0.0000   0.0000   0.0000
     0.0000   0.0000   0.0000   0.0000   0.0000

          k = 0.1667 0.0000-0.1457 ( 25956 PWs)   bands (ev):

   -81.1625 -67.5044 -67.5019 -67.2928 -67.1438 -66.9879 -48.1632 -46.8370
   -46.6606 -34.2785 -34.2660 -34.2601 -34.2511 -34.2405 -34.2376 -34.0589
   -34.0496 -34.0282 -33.9039 -33.8971 -33.8881 -33.7516 -33.7379 -33.7321
   -22.9565 -22.9390 -14.9341 -14.8999 -14.0747 -14.0446 -13.6558 -13.6327
   -13.2729 -13.1719 -13.1042 -12.9925 -12.8309 -12.7809 -12.7642 -12.7410
   -12.6329 -12.5624 -12.4426 -12.4021 -12.2992 -12.2868 -12.1335 -12.0513
   -11.4779 -11.2197  -6.5339  -6.5075  -6.4394  -6.4393  -6.4291  -6.4193
    -4.0379  -4.0051  -2.2640  -2.2144  -1.7321  -1.3962  -1.2883  -1.2235
    -0.7912  -0.7554  -0.6417  -0.5685  -0.4652  -0.2703  -0.2529  -0.1517
     0.1078   0.1974   0.2254   0.4130   0.5770   0.6526   0.7589   0.8658
     1.0165   1.1567   1.1674   1.2610   1.3971   1.5064   1.5776   1.6297
     1.7734   1.9555   1.9797   2.0583   2.0965   2.1897   2.2785   2.3164
     2.3702   2.5054   2.5678   2.6178   2.6527   2.7308   2.7898   2.8117
     2.9134   2.9880   3.0662   3.1134   3.2172   3.2640   3.2778   3.3184
     3.3589   3.4195   3.4708   3.5482   3.5661   3.5900   3.7067   3.7546
     3.7826   3.8106   3.8269   3.9243   3.9624   4.1251   4.2187   4.3959
     5.3134   5.5205   6.3833   6.8709   7.1145   9.6706  10.5639  11.5038
    11.8356  11.8862  12.2565  12.3048  12.5945  12.9003  13.0078  13.0901
    13.1698  13.2559  13.3276  13.3610  13.5392  13.6258  13.6800  13.8287
    13.9439  14.1563  14.2049  14.3484  14.4076

     occupation numbers 
     1.0000   1.0000   1.0000   1.0000   1.0000   1.0000   1.0000   1.0000
     1.0000   1.0000   1.0000   1.0000   1.0000   1.0000   1.0000   1.0000
     1.0000   1.0000   1.0000   1.0000   1.0000   1.0000   1.0000   1.0000
     1.0000   1.0000   1.0000   1.0000   1.0000   1.0000   1.0000   1.0000
     1.0000   1.0000   1.0000   1.0000   1.0000   1.0000   1.0000   1.0000
     1.0000   1.0000   1.0000   1.0000   1.0000   1.0000   1.0000   1.0000
     1.0000   1.0000   1.0000   1.0000   1.0000   1.0000   1.0000   1.0000
     1.0000   1.0000   1.0000   1.0000   1.0000   1.0000   1.0000   1.0000
     1.0000   1.0000   1.0000   1.0000   1.0000   1.0000   1.0000   1.0000
     1.0000   1.0000   1.0000   1.0000   1.0000   1.0000   1.0000   1.0000
     1.0000   1.0000   1.0000   1.0000   1.0000   1.0000   1.0000   1.0000
     1.0000   1.0000   1.0000   1.0000   1.0000   1.0000   1.0000   1.0000
     1.0000   1.0000   1.0000   1.0000   1.0000   1.0000   1.0000   1.0000
     1.0000   1.0000   1.0000   1.0000   1.0000   1.0000   1.0000   1.0000
     1.0000   1.0000   1.0000   1.0000   1.0000   1.0000   1.0000   1.0000
     1.0000   1.0000   1.0000   1.0000   1.0000   1.0000   1.0000   1.0000
     1.0000   1.0000   1.0000   1.0000   1.0000   0.0000   0.0000   0.0000
     0.0000   0.0000   0.0000   0.0000   0.0000   0.0000   0.0000   0.0000
     0.0000   0.0000   0.0000   0.0000   0.0000   0.0000   0.0000   0.0000
     0.0000   0.0000   0.0000   0.0000   0.0000

          k = 0.1667 0.1921 0.0301 ( 25937 PWs)   bands (ev):

   -81.1625 -67.5044 -67.5019 -67.2928 -67.1438 -66.9879 -48.1632 -46.8370
   -46.6606 -34.2785 -34.2660 -34.2601 -34.2511 -34.2405 -34.2376 -34.0589
   -34.0495 -34.0282 -33.9039 -33.8971 -33.8881 -33.7516 -33.7379 -33.7321
   -22.9565 -22.9390 -14.9382 -14.8851 -14.1148 -14.0640 -13.6461 -13.6168
   -13.2147 -13.1233 -13.0720 -12.9970 -12.8616 -12.8418 -12.7905 -12.7488
   -12.6543 -12.5561 -12.4466 -12.3768 -12.3114 -12.2736 -12.1381 -12.0422
   -11.4772 -11.2183  -6.5320  -6.5097  -6.4386  -6.4355  -6.4316  -6.4213
    -4.0163  -3.9534  -2.4505  -2.3468  -1.6736  -1.3115  -1.2149  -1.1752
    -0.8008  -0.7451  -0.6794  -0.5900  -0.4413  -0.2304  -0.1904  -0.0415
     0.0563   0.1804   0.2591   0.4502   0.5128   0.6227   0.7284   0.7968
     1.0164   1.0939   1.1604   1.2519   1.3533   1.4858   1.6122   1.6552
     1.7343   1.9276   1.9810   2.0458   2.1404   2.1987   2.3300   2.3791
     2.4644   2.5320   2.5592   2.5988   2.6754   2.7719   2.8260   2.8644
     2.9318   2.9860   3.0404   3.0953   3.1626   3.2350   3.2785   3.3110
     3.4021   3.4183   3.4650   3.5098   3.5664   3.6080   3.6588   3.7363
     3.7544   3.8043   3.8792   3.9366   3.9536   4.0600   4.2049   4.3080
     5.3176   5.5104   6.3916   6.8431   7.1279   9.8471  10.6857  11.0869
    11.5963  11.9468  12.3177  12.6321  12.6655  12.8186  12.9623  13.0822
    13.1461  13.2691  13.3424  13.4423  13.5147  13.5937  13.7077  13.8122
    13.9239  14.0232  14.2892  14.4028  14.5670

     occupation numbers 
     1.0000   1.0000   1.0000   1.0000   1.0000   1.0000   1.0000   1.0000
     1.0000   1.0000   1.0000   1.0000   1.0000   1.0000   1.0000   1.0000
     1.0000   1.0000   1.0000   1.0000   1.0000   1.0000   1.0000   1.0000
     1.0000   1.0000   1.0000   1.0000   1.0000   1.0000   1.0000   1.0000
     1.0000   1.0000   1.0000   1.0000   1.0000   1.0000   1.0000   1.0000
     1.0000   1.0000   1.0000   1.0000   1.0000   1.0000   1.0000   1.0000
     1.0000   1.0000   1.0000   1.0000   1.0000   1.0000   1.0000   1.0000
     1.0000   1.0000   1.0000   1.0000   1.0000   1.0000   1.0000   1.0000
     1.0000   1.0000   1.0000   1.0000   1.0000   1.0000   1.0000   1.0000
     1.0000   1.0000   1.0000   1.0000   1.0000   1.0000   1.0000   1.0000
     1.0000   1.0000   1.0000   1.0000   1.0000   1.0000   1.0000   1.0000
     1.0000   1.0000   1.0000   1.0000   1.0000   1.0000   1.0000   1.0000
     1.0000   1.0000   1.0000   1.0000   1.0000   1.0000   1.0000   1.0000
     1.0000   1.0000   1.0000   1.0000   1.0000   1.0000   1.0000   1.0000
     1.0000   1.0000   1.0000   1.0000   1.0000   1.0000   1.0000   1.0000
     1.0000   1.0000   1.0000   1.0000   1.0000   1.0000   1.0000   1.0000
     1.0000   1.0000   1.0000   1.0000   1.0000   0.0000   0.0000   0.0000
     0.0000   0.0000   0.0000   0.0000   0.0000   0.0000   0.0000   0.0000
     0.0000   0.0000   0.0000   0.0000   0.0000   0.0000   0.0000   0.0000
     0.0000   0.0000   0.0000   0.0000   0.0000

          k = 0.1667 0.1921 0.2059 ( 25944 PWs)   bands (ev):

   -81.1625 -67.5044 -67.5019 -67.2928 -67.1438 -66.9879 -48.1632 -46.8370
   -46.6606 -34.2785 -34.2660 -34.2601 -34.2511 -34.2405 -34.2376 -34.0589
   -34.0495 -34.0282 -33.9039 -33.8971 -33.8881 -33.7516 -33.7379 -33.7321
   -22.9565 -22.9390 -14.9217 -14.9026 -14.1014 -14.0784 -13.6440 -13.6190
   -13.2053 -13.1218 -13.0885 -12.9841 -12.8773 -12.8344 -12.7846 -12.7490
   -12.6523 -12.5606 -12.4419 -12.3833 -12.3076 -12.2764 -12.1291 -12.0507
   -11.4765 -11.2194  -6.5321  -6.5097  -6.4386  -6.4354  -6.4315  -6.4211
    -4.0150  -3.9548  -2.4257  -2.3747  -1.6450  -1.2983  -1.2403  -1.1508
    -0.8067  -0.7409  -0.6849  -0.6007  -0.4178  -0.2887  -0.1681  -0.1099
     0.0947   0.1662   0.2305   0.4019   0.5105   0.6185   0.7163   0.8346
     1.0136   1.0869   1.2039   1.2681   1.3721   1.5319   1.6129   1.7075
     1.8063   1.8880   1.9546   2.0785   2.1749   2.2248   2.3510   2.3944
     2.4426   2.5143   2.5277   2.5876   2.6266   2.7305   2.7946   2.8732
     2.8938   2.9643   3.0211   3.1295   3.1571   3.2045   3.2529   3.3535
     3.3825   3.4080   3.4780   3.5174   3.5868   3.6229   3.6615   3.7347
     3.7542   3.8068   3.8438   3.8948   3.9683   4.1129   4.2276   4.3129
     5.3181   5.5051   6.3911   6.8402   7.1280  10.1727  10.5936  10.8976
    11.2702  11.9111  12.3016  12.6378  12.7460  12.8684  13.1226  13.2221
    13.2620  13.3548  13.4076  13.4568  13.4958  13.5898  13.6833  13.7413
    13.8351  14.0212  14.2145  14.3033  14.4305

     occupation numbers 
     1.0000   1.0000   1.0000   1.0000   1.0000   1.0000   1.0000   1.0000
     1.0000   1.0000   1.0000   1.0000   1.0000   1.0000   1.0000   1.0000
     1.0000   1.0000   1.0000   1.0000   1.0000   1.0000   1.0000   1.0000
     1.0000   1.0000   1.0000   1.0000   1.0000   1.0000   1.0000   1.0000
     1.0000   1.0000   1.0000   1.0000   1.0000   1.0000   1.0000   1.0000
     1.0000   1.0000   1.0000   1.0000   1.0000   1.0000   1.0000   1.0000
     1.0000   1.0000   1.0000   1.0000   1.0000   1.0000   1.0000   1.0000
     1.0000   1.0000   1.0000   1.0000   1.0000   1.0000   1.0000   1.0000
     1.0000   1.0000   1.0000   1.0000   1.0000   1.0000   1.0000   1.0000
     1.0000   1.0000   1.0000   1.0000   1.0000   1.0000   1.0000   1.0000
     1.0000   1.0000   1.0000   1.0000   1.0000   1.0000   1.0000   1.0000
     1.0000   1.0000   1.0000   1.0000   1.0000   1.0000   1.0000   1.0000
     1.0000   1.0000   1.0000   1.0000   1.0000   1.0000   1.0000   1.0000
     1.0000   1.0000   1.0000   1.0000   1.0000   1.0000   1.0000   1.0000
     1.0000   1.0000   1.0000   1.0000   1.0000   1.0000   1.0000   1.0000
     1.0000   1.0000   1.0000   1.0000   1.0000   1.0000   1.0000   1.0000
     1.0000   1.0000   1.0000   1.0000   1.0000   0.0000   0.0000   0.0000
     0.0000   0.0000   0.0000   0.0000   0.0000   0.0000   0.0000   0.0000
     0.0000   0.0000   0.0000   0.0000   0.0000   0.0000   0.0000   0.0000
     0.0000   0.0000   0.0000   0.0000   0.0000

          k = 0.1667 0.1921-0.1457 ( 25923 PWs)   bands (ev):

   -81.1625 -67.5044 -67.5019 -67.2928 -67.1438 -66.9879 -48.1632 -46.8369
   -46.6606 -34.2785 -34.2660 -34.2601 -34.2511 -34.2405 -34.2376 -34.0589
   -34.0495 -34.0282 -33.9039 -33.8971 -33.8881 -33.7516 -33.7379 -33.7321
   -22.9565 -22.9390 -14.9290 -14.8950 -14.1055 -14.0741 -13.6418 -13.6213
   -13.2088 -13.1206 -13.0830 -12.9895 -12.8761 -12.8297 -12.7922 -12.7479
   -12.6520 -12.5598 -12.4368 -12.3869 -12.2989 -12.2858 -12.1302 -12.0491
   -11.4764 -11.2192  -6.5321  -6.5098  -6.4386  -6.4355  -6.4315  -6.4211
    -3.9997  -3.9705  -2.4280  -2.3716  -1.6559  -1.3026  -1.2401  -1.1506
    -0.7838  -0.7666  -0.6514  -0.5933  -0.4623  -0.2508  -0.1852  -0.0914
     0.0629   0.1718   0.2232   0.4298   0.5244   0.6080   0.7732   0.8348
     0.9785   1.0854   1.1735   1.2832   1.3796   1.4878   1.6388   1.7088
     1.7704   1.9039   1.9512   2.1053   2.1321   2.2028   2.3056   2.3625
     2.4156   2.5174   2.5581   2.6104   2.6582   2.7461   2.8072   2.8836
     2.9412   2.9803   3.0428   3.0793   3.1786   3.2093   3.2387   3.3593
     3.4003   3.4350   3.4768   3.5491   3.5672   3.6005   3.6693   3.7076
     3.7519   3.8007   3.8440   3.9034   3.9434   4.1006   4.2217   4.3135
     5.3151   5.5106   6.3917   6.8391   7.1286  10.0155  10.8043  10.8283
    11.3903  11.9824  12.3441  12.6123  12.6956  12.8711  13.0798  13.1129
    13.1973  13.2598  13.3443  13.4145  13.5167  13.6413  13.7006  13.8244
    13.9380  13.9711  14.1600  14.3596  14.4889

     occupation numbers 
     1.0000   1.0000   1.0000   1.0000   1.0000   1.0000   1.0000   1.0000
     1.0000   1.0000   1.0000   1.0000   1.0000   1.0000   1.0000   1.0000
     1.0000   1.0000   1.0000   1.0000   1.0000   1.0000   1.0000   1.0000
     1.0000   1.0000   1.0000   1.0000   1.0000   1.0000   1.0000   1.0000
     1.0000   1.0000   1.0000   1.0000   1.0000   1.0000   1.0000   1.0000
     1.0000   1.0000   1.0000   1.0000   1.0000   1.0000   1.0000   1.0000
     1.0000   1.0000   1.0000   1.0000   1.0000   1.0000   1.0000   1.0000
     1.0000   1.0000   1.0000   1.0000   1.0000   1.0000   1.0000   1.0000
     1.0000   1.0000   1.0000   1.0000   1.0000   1.0000   1.0000   1.0000
     1.0000   1.0000   1.0000   1.0000   1.0000   1.0000   1.0000   1.0000
     1.0000   1.0000   1.0000   1.0000   1.0000   1.0000   1.0000   1.0000
     1.0000   1.0000   1.0000   1.0000   1.0000   1.0000   1.0000   1.0000
     1.0000   1.0000   1.0000   1.0000   1.0000   1.0000   1.0000   1.0000
     1.0000   1.0000   1.0000   1.0000   1.0000   1.0000   1.0000   1.0000
     1.0000   1.0000   1.0000   1.0000   1.0000   1.0000   1.0000   1.0000
     1.0000   1.0000   1.0000   1.0000   1.0000   1.0000   1.0000   1.0000
     1.0000   1.0000   1.0000   1.0000   1.0000   0.0000   0.0000   0.0000
     0.0000   0.0000   0.0000   0.0000   0.0000   0.0000   0.0000   0.0000
     0.0000   0.0000   0.0000   0.0000   0.0000   0.0000   0.0000   0.0000
     0.0000   0.0000   0.0000   0.0000   0.0000

          k = 0.3333 0.0000 0.0601 ( 25907 PWs)   bands (ev):

   -81.1625 -67.5042 -67.5021 -67.2928 -67.1438 -66.9879 -48.1632 -46.8370
   -46.6606 -34.2766 -34.2693 -34.2591 -34.2500 -34.2409 -34.2379 -34.0589
   -34.0495 -34.0282 -33.9039 -33.8970 -33.8881 -33.7517 -33.7380 -33.7319
   -22.9562 -22.9387 -14.7807 -14.7307 -14.2066 -14.1665 -13.7788 -13.7419
   -13.1687 -13.0518 -12.9920 -12.9655 -12.8873 -12.8155 -12.7747 -12.7594
   -12.6466 -12.5732 -12.5008 -12.4538 -12.3891 -12.3091 -12.1219 -12.0377
   -11.4411 -11.2581  -6.5377  -6.5129  -6.4363  -6.4325  -6.4248  -6.4187
    -3.6338  -3.5607  -2.4368  -2.3221  -1.7368  -1.5870  -1.3318  -1.1662
    -0.7892  -0.7536  -0.6778  -0.6148  -0.3186  -0.2130  -0.1529  -0.0268
     0.0180   0.1901   0.2982   0.4495   0.5448   0.6557   0.7252   0.7803
     0.9046   1.0492   1.1679   1.2213   1.4118   1.4554   1.5531   1.6219
     1.6525   1.7320   1.8742   1.9839   2.0864   2.2798   2.3666   2.4082
     2.4683   2.5260   2.6169   2.6901   2.7414   2.7490   2.7946   2.9110
     2.9499   2.9895   3.0083   3.1287   3.1690   3.2159   3.2183   3.2636
     3.3104   3.3450   3.4371   3.5151   3.5864   3.6061   3.6346   3.6967
     3.7313   3.7766   3.8484   3.8742   3.9224   3.9673   4.0843   4.3100
     5.4087   5.4526   6.3895   6.8730   7.1002  10.2796  11.2793  11.5244
    12.0125  12.0807  12.2191  12.3150  12.6896  12.7577  12.7680  13.0498
    13.1790  13.2490  13.2751  13.4828  13.5560  13.6164  13.7751  13.9428
    14.0439  14.1160  14.2247  14.3387  14.4468

     occupation numbers 
     1.0000   1.0000   1.0000   1.0000   1.0000   1.0000   1.0000   1.0000
     1.0000   1.0000   1.0000   1.0000   1.0000   1.0000   1.0000   1.0000
     1.0000   1.0000   1.0000   1.0000   1.0000   1.0000   1.0000   1.0000
     1.0000   1.0000   1.0000   1.0000   1.0000   1.0000   1.0000   1.0000
     1.0000   1.0000   1.0000   1.0000   1.0000   1.0000   1.0000   1.0000
     1.0000   1.0000   1.0000   1.0000   1.0000   1.0000   1.0000   1.0000
     1.0000   1.0000   1.0000   1.0000   1.0000   1.0000   1.0000   1.0000
     1.0000   1.0000   1.0000   1.0000   1.0000   1.0000   1.0000   1.0000
     1.0000   1.0000   1.0000   1.0000   1.0000   1.0000   1.0000   1.0000
     1.0000   1.0000   1.0000   1.0000   1.0000   1.0000   1.0000   1.0000
     1.0000   1.0000   1.0000   1.0000   1.0000   1.0000   1.0000   1.0000
     1.0000   1.0000   1.0000   1.0000   1.0000   1.0000   1.0000   1.0000
     1.0000   1.0000   1.0000   1.0000   1.0000   1.0000   1.0000   1.0000
     1.0000   1.0000   1.0000   1.0000   1.0000   1.0000   1.0000   1.0000
     1.0000   1.0000   1.0000   1.0000   1.0000   1.0000   1.0000   1.0000
     1.0000   1.0000   1.0000   1.0000   1.0000   1.0000   1.0000   1.0000
     1.0000   1.0000   1.0000   1.0000   1.0000   0.0000   0.0000   0.0000
     0.0000   0.0000   0.0000   0.0000   0.0000   0.0000   0.0000   0.0000
     0.0000   0.0000   0.0000   0.0000   0.0000   0.0000   0.0000   0.0000
     0.0000   0.0000   0.0000   0.0000   0.0000

          k = 0.3333 0.0000 0.2360 ( 25948 PWs)   bands (ev):

   -81.1625 -67.5042 -67.5021 -67.2928 -67.1438 -66.9879 -48.1631 -46.8370
   -46.6606 -34.2766 -34.2693 -34.2591 -34.2500 -34.2409 -34.2379 -34.0589
   -34.0495 -34.0282 -33.9039 -33.8970 -33.8881 -33.7517 -33.7380 -33.7320
   -22.9562 -22.9387 -14.7624 -14.7500 -14.2045 -14.1686 -13.7723 -13.7490
   -13.1585 -13.0663 -12.9933 -12.9590 -12.8839 -12.8113 -12.7915 -12.7488
   -12.6467 -12.5745 -12.4961 -12.4620 -12.3742 -12.3205 -12.1122 -12.0470
   -11.4397 -11.2597  -6.5378  -6.5128  -6.4363  -6.4323  -6.4248  -6.4187
    -3.6363  -3.5582  -2.4085  -2.3539  -1.7081  -1.6242  -1.3027  -1.1553
    -0.7968  -0.7607  -0.6595  -0.6196  -0.2816  -0.2182  -0.1591  -0.1426
     0.0717   0.1477   0.3018   0.4125   0.5555   0.6463   0.6997   0.8390
     0.9048   1.0939   1.1813   1.2202   1.3457   1.4839   1.5598   1.6257
     1.7132   1.7718   1.8260   2.0592   2.1409   2.2770   2.3191   2.4205
     2.4581   2.4737   2.5485   2.6732   2.7220   2.7858   2.8232   2.8342
     2.9303   2.9586   3.0744   3.0994   3.1121   3.2222   3.2361   3.2845
     3.3396   3.3981   3.4625   3.5292   3.5890   3.6043   3.6317   3.6943
     3.6993   3.7471   3.7979   3.8501   3.9393   4.0294   4.0989   4.3170
     5.4060   5.4523   6.3885   6.8729   7.1004  10.6129  10.8105  11.5798
    12.0044  12.0597  12.2101  12.3643  12.6243  12.6891  12.7962  12.9573
    13.3208  13.3358  13.3969  13.4714  13.5200  13.6180  13.7515  13.9619
    13.9782  13.9938  14.0806  14.5076  14.5987

     occupation numbers 
     1.0000   1.0000   1.0000   1.0000   1.0000   1.0000   1.0000   1.0000
     1.0000   1.0000   1.0000   1.0000   1.0000   1.0000   1.0000   1.0000
     1.0000   1.0000   1.0000   1.0000   1.0000   1.0000   1.0000   1.0000
     1.0000   1.0000   1.0000   1.0000   1.0000   1.0000   1.0000   1.0000
     1.0000   1.0000   1.0000   1.0000   1.0000   1.0000   1.0000   1.0000
     1.0000   1.0000   1.0000   1.0000   1.0000   1.0000   1.0000   1.0000
     1.0000   1.0000   1.0000   1.0000   1.0000   1.0000   1.0000   1.0000
     1.0000   1.0000   1.0000   1.0000   1.0000   1.0000   1.0000   1.0000
     1.0000   1.0000   1.0000   1.0000   1.0000   1.0000   1.0000   1.0000
     1.0000   1.0000   1.0000   1.0000   1.0000   1.0000   1.0000   1.0000
     1.0000   1.0000   1.0000   1.0000   1.0000   1.0000   1.0000   1.0000
     1.0000   1.0000   1.0000   1.0000   1.0000   1.0000   1.0000   1.0000
     1.0000   1.0000   1.0000   1.0000   1.0000   1.0000   1.0000   1.0000
     1.0000   1.0000   1.0000   1.0000   1.0000   1.0000   1.0000   1.0000
     1.0000   1.0000   1.0000   1.0000   1.0000   1.0000   1.0000   1.0000
     1.0000   1.0000   1.0000   1.0000   1.0000   1.0000   1.0000   1.0000
     1.0000   1.0000   1.0000   1.0000   1.0000   0.0000   0.0000   0.0000
     0.0000   0.0000   0.0000   0.0000   0.0000   0.0000   0.0000   0.0000
     0.0000   0.0000   0.0000   0.0000   0.0000   0.0000   0.0000   0.0000
     0.0000   0.0000   0.0000   0.0000   0.0000

          k = 0.3333 0.0000-0.1157 ( 25913 PWs)   bands (ev):

   -81.1625 -67.5042 -67.5021 -67.2928 -67.1438 -66.9879 -48.1631 -46.8370
   -46.6606 -34.2766 -34.2693 -34.2591 -34.2500 -34.2409 -34.2379 -34.0589
   -34.0495 -34.0282 -33.9039 -33.8970 -33.8881 -33.7517 -33.7380 -33.7319
   -22.9562 -22.9387 -14.7755 -14.7363 -14.1990 -14.1745 -13.7748 -13.7461
   -13.1659 -13.0485 -13.0051 -12.9601 -12.8823 -12.8197 -12.7816 -12.7501
   -12.6460 -12.5747 -12.4929 -12.4674 -12.3698 -12.3235 -12.1144 -12.0443
   -11.4402 -11.2591  -6.5378  -6.5130  -6.4363  -6.4324  -6.4248  -6.4187
    -3.6028  -3.5928  -2.4256  -2.3355  -1.7227  -1.6038  -1.3237  -1.1630
    -0.7807  -0.7537  -0.6544  -0.6146  -0.3244  -0.1966  -0.1695  -0.0869
     0.0171   0.1615   0.3300   0.3963   0.5719   0.6468   0.7649   0.7963
     0.8712   1.0922   1.1676   1.2851   1.3562   1.4832   1.5357   1.6242
     1.6829   1.7080   1.8871   2.0070   2.0753   2.2790   2.3322   2.3876
     2.4301   2.5005   2.6108   2.6661   2.7358   2.7746   2.8536   2.8676
     2.9500   3.0095   3.0311   3.1143   3.1551   3.2003   3.2427   3.3073
     3.3716   3.4054   3.4120   3.5149   3.5898   3.6087   3.6260   3.6460
     3.7125   3.7460   3.7593   3.8279   3.9595   4.0493   4.0871   4.3194
     5.4032   5.4567   6.3891   6.8728   7.1033  10.3191  11.1785  11.6390
    11.9295  12.1371  12.2639  12.3926  12.6151  12.6827  12.8523  12.9761
    13.1338  13.2525  13.3473  13.3931  13.5482  13.6154  13.6444  13.9336
    14.0595  14.1074  14.1944  14.3456  14.5034

     occupation numbers 
     1.0000   1.0000   1.0000   1.0000   1.0000   1.0000   1.0000   1.0000
     1.0000   1.0000   1.0000   1.0000   1.0000   1.0000   1.0000   1.0000
     1.0000   1.0000   1.0000   1.0000   1.0000   1.0000   1.0000   1.0000
     1.0000   1.0000   1.0000   1.0000   1.0000   1.0000   1.0000   1.0000
     1.0000   1.0000   1.0000   1.0000   1.0000   1.0000   1.0000   1.0000
     1.0000   1.0000   1.0000   1.0000   1.0000   1.0000   1.0000   1.0000
     1.0000   1.0000   1.0000   1.0000   1.0000   1.0000   1.0000   1.0000
[...]
     atom   11 type  7   force =    -0.00026997    0.00292192    0.01362684
     atom   12 type  7   force =    -0.00072898   -0.01085160    0.01055419
     atom   13 type  7   force =     0.00072894   -0.01085160   -0.01055415
     atom   14 type  1   force =    -0.00007438   -0.00187195   -0.00790031
     atom   15 type  1   force =     0.00007441   -0.00187195    0.00790027
     atom   16 type  6   force =    -0.00000457   -0.00061495    0.00638889
     atom   17 type  6   force =     0.00000456   -0.00061495   -0.00638889
     atom   18 type  6   force =    -0.00004734    0.00016399   -0.00706589
     atom   19 type  6   force =     0.00004734    0.00016399    0.00706590
     atom   20 type  6   force =     0.00002910   -0.00010010    0.00684817
     atom   21 type  6   force =    -0.00002912   -0.00010010   -0.00684817
     atom   22 type  6   force =     0.00153576    0.00002415   -0.00258928
     atom   23 type  6   force =    -0.00153575    0.00002414    0.00258926
     atom   24 type  6   force =     0.00456748   -0.00172954   -0.00577294
     atom   25 type  6   force =    -0.00456748   -0.00172953    0.00577292
     atom   26 type  6   force =    -0.00310860    0.00069184   -0.00737374
     atom   27 type  6   force =     0.00310860    0.00069184    0.00737376
     atom   28 type  6   force =    -0.00130086    0.00181065    0.00736676
     atom   29 type  6   force =     0.00130086    0.00181065   -0.00736676
     atom   30 type  6   force =     0.00062422   -0.00165033   -0.00751489
     atom   31 type  6   force =    -0.00062422   -0.00165033    0.00751489
     atom   32 type  6   force =    -0.00211710   -0.00341788   -0.00647955
     atom   33 type  6   force =     0.00211707   -0.00341788    0.00647955
     atom   34 type  6   force =     0.00096170    0.00423909    0.00628389
     atom   35 type  6   force =    -0.00096169    0.00423910   -0.00628389
     atom   36 type  6   force =     0.00024639    0.00298653    0.01082097
     atom   37 type  6   force =    -0.00024641    0.00298654   -0.01082099
     atom   38 type  6   force =     0.00023196   -0.00157687    0.01106754
     atom   39 type  6   force =    -0.00023194   -0.00157687   -0.01106754
     atom   40 type  3   force =     0.00000000    0.00000000    0.00000000
     atom   41 type  3   force =     0.00000000    0.00000000    0.00000000
     atom   42 type  3   force =     0.00000000    0.00000000    0.00000000
     atom   43 type  3   force =     0.00000000    0.00000000    0.00000000
     atom   44 type  2   force =    -0.00000000    0.00330418   -0.00000000
     The Hubbard contrib.    to forces
     atom    1 type  4   force =     0.00000000    0.00000000    0.00000000
     atom    2 type  4   force =     0.00000000    0.00000000    0.00000000
     atom    3 type  5   force =     0.00000000    0.00000000    0.00000000
     atom    4 type  5   force =     0.00000000    0.00000000    0.00000000
     atom    5 type  5   force =     0.00000000    0.00000000    0.00000000
     atom    6 type  5   force =     0.00000000    0.00000000    0.00000000
     atom    7 type  5   force =     0.00000000    0.00000000    0.00000000
     atom    8 type  7   force =     0.00000000    0.00000000    0.00000000
     atom    9 type  7   force =     0.00000000    0.00000000    0.00000000
     atom   10 type  7   force =     0.00000000    0.00000000    0.00000000
     atom   11 type  7   force =     0.00000000    0.00000000    0.00000000
     atom   12 type  7   force =     0.00000000    0.00000000    0.00000000
     atom   13 type  7   force =     0.00000000    0.00000000    0.00000000
     atom   14 type  1   force =     0.00000000    0.00000000    0.00000000
     atom   15 type  1   force =     0.00000000    0.00000000    0.00000000
     atom   16 type  6   force =     0.00000000    0.00000000    0.00000000
     atom   17 type  6   force =     0.00000000    0.00000000    0.00000000
     atom   18 type  6   force =     0.00000000    0.00000000    0.00000000
     atom   19 type  6   force =     0.00000000    0.00000000    0.00000000
     atom   20 type  6   force =     0.00000000    0.00000000    0.00000000
     atom   21 type  6   force =     0.00000000    0.00000000    0.00000000
     atom   22 type  6   force =     0.00000000    0.00000000    0.00000000
     atom   23 type  6   force =     0.00000000    0.00000000    0.00000000
     atom   24 type  6   force =     0.00000000    0.00000000    0.00000000
     atom   25 type  6   force =     0.00000000    0.00000000    0.00000000
     atom   26 type  6   force =     0.00000000    0.00000000    0.00000000
     atom   27 type  6   force =     0.00000000    0.00000000    0.00000000
     atom   28 type  6   force =     0.00000000    0.00000000    0.00000000
     atom   29 type  6   force =     0.00000000    0.00000000    0.00000000
     atom   30 type  6   force =     0.00000000    0.00000000    0.00000000
     atom   31 type  6   force =     0.00000000    0.00000000    0.00000000
     atom   32 type  6   force =     0.00000000    0.00000000    0.00000000
     atom   33 type  6   force =     0.00000000    0.00000000    0.00000000
     atom   34 type  6   force =     0.00000000    0.00000000    0.00000000
     atom   35 type  6   force =     0.00000000    0.00000000    0.00000000
     atom   36 type  6   force =     0.00000000    0.00000000    0.00000000
     atom   37 type  6   force =     0.00000000    0.00000000    0.00000000
     atom   38 type  6   force =     0.00000000    0.00000000    0.00000000
     atom   39 type  6   force =     0.00000000    0.00000000    0.00000000
     atom   40 type  3   force =     0.00000000    0.00000000    0.00000000
     atom   41 type  3   force =     0.00000000    0.00000000    0.00000000
     atom   42 type  3   force =     0.00000000    0.00000000    0.00000000
     atom   43 type  3   force =     0.00000000    0.00000000    0.00000000
     atom   44 type  2   force =     0.00000000    0.00000000    0.00000000
     The SCF correction term to forces
     atom    1 type  4   force =     0.00000000   -0.00000509   -0.00000000
     atom    2 type  4   force =    -0.00000000    0.00000373   -0.00000000
     atom    3 type  5   force =     0.00000000   -0.00000933   -0.00000000
     atom    4 type  5   force =     0.00000000    0.00000187    0.00000000
     atom    5 type  5   force =    -0.00000000    0.00000007    0.00000000
     atom    6 type  5   force =    -0.00000000   -0.00000412    0.00000000
     atom    7 type  5   force =    -0.00000000    0.00000686    0.00000000
     atom    8 type  7   force =     0.00000129    0.00000444   -0.00000759
     atom    9 type  7   force =    -0.00000129    0.00000444    0.00000759
     atom   10 type  7   force =    -0.00000005    0.00000113   -0.00000460
     atom   11 type  7   force =     0.00000005    0.00000113    0.00000460
     atom   12 type  7   force =    -0.00000113   -0.00000448    0.00000318
     atom   13 type  7   force =     0.00000113   -0.00000448   -0.00000318
     atom   14 type  1   force =    -0.00000029   -0.00000026    0.00000196
     atom   15 type  1   force =     0.00000029   -0.00000026   -0.00000196
     atom   16 type  6   force =    -0.00000295   -0.00000092    0.00000207
     atom   17 type  6   force =     0.00000295   -0.00000092   -0.00000207
     atom   18 type  6   force =     0.00000266   -0.00000227    0.00000360
     atom   19 type  6   force =    -0.00000266   -0.00000227   -0.00000360
     atom   20 type  6   force =     0.00000269    0.00000427    0.00000543
     atom   21 type  6   force =    -0.00000269    0.00000427   -0.00000543
     atom   22 type  6   force =    -0.00000045    0.00000180   -0.00001430
     atom   23 type  6   force =     0.00000045    0.00000180    0.00001430
     atom   24 type  6   force =    -0.00000719   -0.00000974   -0.00002044
     atom   25 type  6   force =     0.00000719   -0.00000974    0.00002044
     atom   26 type  6   force =     0.00000193   -0.00000786   -0.00000690
     atom   27 type  6   force =    -0.00000193   -0.00000786    0.00000690
     atom   28 type  6   force =     0.00000442    0.00000269    0.00000301
     atom   29 type  6   force =    -0.00000442    0.00000269   -0.00000301
     atom   30 type  6   force =     0.00000375    0.00000604   -0.00000096
     atom   31 type  6   force =    -0.00000375    0.00000604    0.00000096
     atom   32 type  6   force =    -0.00000360    0.00001093   -0.00001755
     atom   33 type  6   force =     0.00000360    0.00001093    0.00001755
     atom   34 type  6   force =    -0.00001163   -0.00000094    0.00002066
     atom   35 type  6   force =     0.00001163   -0.00000094   -0.00002066
     atom   36 type  6   force =    -0.00000246    0.00000396    0.00000339
     atom   37 type  6   force =     0.00000246    0.00000396   -0.00000339
     atom   38 type  6   force =     0.00000321   -0.00000680   -0.00000246
     atom   39 type  6   force =    -0.00000321   -0.00000680    0.00000246
     atom   40 type  3   force =    -0.00000013    0.00000092    0.00000231
     atom   41 type  3   force =     0.00000013    0.00000092   -0.00000231
     atom   42 type  3   force =     0.00000029   -0.00000146    0.00000432
     atom   43 type  3   force =    -0.00000029   -0.00000146   -0.00000432
     atom   44 type  2   force =     0.00000000    0.00000793   -0.00000000

     DFT-D3 dispersion contribution to forces:
     atom    1 type  4   force =    -0.00000000    0.00103743   -0.00000000
     atom    2 type  4   force =    -0.00000000   -0.00055739   -0.00000000
     atom    3 type  5   force =     0.00000000    0.00045339    0.00000000
     atom    4 type  5   force =    -0.00000000   -0.00135239    0.00000000
     atom    5 type  5   force =     0.00000000   -0.00049797    0.00000000
     atom    6 type  5   force =     0.00000000    0.00118336   -0.00000000
     atom    7 type  5   force =     0.00000000   -0.00032567   -0.00000000
     atom    8 type  7   force =    -0.00001262   -0.00006067   -0.00012150
     atom    9 type  7   force =     0.00001262   -0.00006067    0.00012150
     atom   10 type  7   force =     0.00004127    0.00001477    0.00024583
     atom   11 type  7   force =    -0.00004127    0.00001477   -0.00024583
     atom   12 type  7   force =     0.00002291    0.00026277   -0.00024641
     atom   13 type  7   force =    -0.00002291    0.00026277    0.00024641
     atom   14 type  1   force =    -0.00013051    0.00003095   -0.00094046
     atom   15 type  1   force =     0.00013051    0.00003095    0.00094046
     atom   16 type  6   force =    -0.00005099    0.00012419    0.00051008
     atom   17 type  6   force =     0.00005099    0.00012419   -0.00051009
     atom   18 type  6   force =     0.00000080    0.00000543   -0.00037842
     atom   19 type  6   force =    -0.00000080    0.00000543    0.00037842
     atom   20 type  6   force =    -0.00001829   -0.00000254    0.00038153
     atom   21 type  6   force =     0.00001829   -0.00000254   -0.00038153
     atom   22 type  6   force =    -0.00008007   -0.00000999    0.00001374
     atom   23 type  6   force =     0.00008007   -0.00000999   -0.00001374
     atom   24 type  6   force =    -0.00019396    0.00107693    0.00023370
     atom   25 type  6   force =     0.00019396    0.00107693   -0.00023370
     atom   26 type  6   force =     0.00080633    0.00006562    0.00021869
     atom   27 type  6   force =    -0.00080633    0.00006562   -0.00021869
     atom   28 type  6   force =     0.00032956   -0.00047149   -0.00004403
     atom   29 type  6   force =    -0.00032956   -0.00047149    0.00004403
     atom   30 type  6   force =    -0.00014980    0.00024121    0.00002618
     atom   31 type  6   force =     0.00014980    0.00024121   -0.00002618
     atom   32 type  6   force =     0.00087473   -0.00042864    0.00040313
     atom   33 type  6   force =    -0.00087473   -0.00042864   -0.00040313
     atom   34 type  6   force =     0.00070000   -0.00066079   -0.00039642
     atom   35 type  6   force =    -0.00070000   -0.00066079    0.00039642
     atom   36 type  6   force =    -0.00011309   -0.00017165   -0.00035819
     atom   37 type  6   force =     0.00011309   -0.00017165    0.00035819
     atom   38 type  6   force =     0.00001774   -0.00000466   -0.00051613
     atom   39 type  6   force =    -0.00001774   -0.00000466    0.00051613
     atom   40 type  3   force =    -0.00008257    0.00018062   -0.00009818
     atom   41 type  3   force =     0.00008257    0.00018062    0.00009818
     atom   42 type  3   force =     0.00012134   -0.00049080   -0.00027168
     atom   43 type  3   force =    -0.00012134   -0.00049080    0.00027168
     atom   44 type  2   force =    -0.00000000    0.00065669    0.00000000

     Total force =     0.002523     Total SCF correction =     0.000070

     DFT-D3 dispersion Force =     0.004443


     Computing stress (Cartesian axis) and pressure


     negative rho (up, down):  0.000E+00 3.809E-04
          total   stress  (Ry/bohr**3)                   (kbar)     P=       -0.63
  -0.00000294   0.00000000   0.00000005           -0.43        0.00        0.01
   0.00000000  -0.00000407   0.00000000            0.00       -0.60        0.00
   0.00000005   0.00000000  -0.00000576            0.01        0.00       -0.85

     kinetic stress (kbar)  20080.28      0.00    -54.78
                                0.00  20167.98      0.00
                              -54.78      0.00  19862.22

     local   stress (kbar) -40660.50      0.00   -300.18
                                0.00 -39860.52     -0.00
                             -300.18     -0.00  19213.00

     nonloc. stress (kbar)   3807.66      0.00      7.06
                                0.00   3796.90      0.00
                                7.06      0.00   3785.38

     hartree stress (kbar)  22881.86      0.00    110.55
                                0.00  22557.61     -0.00
                              110.55     -0.00  -6361.59

     exc-cor stress (kbar)  -2822.73     -0.00     -0.03
                               -0.00  -2822.60     -0.00
                               -0.03     -0.00  -2819.58

     corecor stress (kbar)  -1858.82      0.00      0.49
                                0.00  -1859.55      0.00
                                0.49      0.00  -1860.80

     ewald   stress (kbar)  -1413.52     -0.00    236.92
                               -0.00  -1965.69      0.00
                              236.92      0.00 -31808.50

     hubbard stress (kbar)      0.00      0.00      0.00
                                0.00      0.00      0.00
                                0.00      0.00      0.00

     DFT-D   stress (kbar)    -14.65      0.00     -0.03
                                0.00    -14.72     -0.00
                               -0.03     -0.00    -10.98

     XDM     stress (kbar)      0.00      0.00      0.00
                                0.00      0.00      0.00
                                0.00      0.00      0.00

     dft-nl  stress (kbar)      0.00      0.00      0.00
                                0.00      0.00      0.00
                                0.00      0.00      0.00

     TS-vdW  stress (kbar)      0.00      0.00      0.00
                                0.00      0.00      0.00
                                0.00      0.00      0.00

     MDB     stress (kbar)      0.00      0.00      0.00
                                0.00      0.00      0.00
                                0.00      0.00      0.00

     3D-RISM stress (kbar)      0.00      0.00      0.00
                                0.00      0.00      0.00
                                0.00      0.00      0.00


     Writing all to output data dir ./temp/phl-fe1-fe2.save/ :
     XML data file, charge density, pseudopotentials, collected wavefunctions

     init_run     :    351.68s CPU    354.76s WALL (       2 calls)
     electrons    : 129722.51s CPU 130720.98s WALL (      21 calls)
     update_pot   :     56.71s CPU     57.20s WALL (      19 calls)
     forces       :   2605.31s CPU   2619.41s WALL (      21 calls)
     force_dftd3  :     85.86s CPU     86.05s WALL (      21 calls)
     stress       :   8812.90s CPU   8886.47s WALL (      21 calls)
     stres_dftd3  :     85.72s CPU     85.89s WALL (      21 calls)

     Called by init_run:
     wfcinit      :    334.96s CPU    336.79s WALL (       2 calls)
     wfcinit:atom :      0.57s CPU      0.58s WALL (      80 calls)
     wfcinit:wfcr :    329.94s CPU    331.74s WALL (      80 calls)
     potinit      :      6.35s CPU      6.43s WALL (       2 calls)
     hinit0       :      2.81s CPU      2.88s WALL (       2 calls)

     Called by electrons:
     c_bands      : 119803.30s CPU 120552.11s WALL (     197 calls)
     sum_band     :   8685.64s CPU   8846.55s WALL (     197 calls)
     v_of_rho     :     78.75s CPU     81.81s WALL (     204 calls)
     v_h          :      2.51s CPU      2.63s WALL (     204 calls)
     v_xc         :     91.79s CPU     95.43s WALL (     246 calls)
     newd         :    707.79s CPU    802.33s WALL (     204 calls)
     PAW_pot      :    541.69s CPU    541.81s WALL (     223 calls)
     mix_rho      :     10.00s CPU     10.48s WALL (     197 calls)
     energy_dftd3 :     65.91s CPU     65.93s WALL (      21 calls)

     Called by c_bands:
     init_us_2    :    299.59s CPU    300.02s WALL (   18280 calls)
     cegterg      : 119228.98s CPU 119975.72s WALL (    7924 calls)

     Called by sum_band:
     sum_band:wei :      0.10s CPU      0.10s WALL (     197 calls)
     sum_band:loo :   7347.76s CPU   7399.99s WALL (     197 calls)
     sum_band:buf :     34.53s CPU     34.63s WALL (    7880 calls)
     sum_band:ini :    131.35s CPU    131.45s WALL (    7880 calls)
     sum_band:cal :   5849.78s CPU   5854.28s WALL (    8640 calls)
     sum_band:bec :     14.79s CPU     14.83s WALL (    8640 calls)
     addusdens    :   1321.22s CPU   1429.08s WALL (     197 calls)
                                        0.00s GPU  (     197 calls)
     addusd:skk   :      4.56s CPU      7.23s WALL (    1379 calls)
                                        0.00s GPU  (    1379 calls)

     Called by *egterg:
     cdiaghg      :   4168.68s CPU   4214.98s WALL (   58185 calls)
     cegterg:over :  15726.32s CPU  15737.97s WALL (   51625 calls)
     cegterg:upda :   9457.10s CPU   9504.03s WALL (   51625 calls)
     cegterg:last :  24776.41s CPU  24798.53s WALL (   23195 calls)
     cdiaghg:chol :     97.25s CPU     97.49s WALL (   58185 calls)
     cdiaghg:inve :     94.65s CPU     94.81s WALL (   58185 calls)
     cdiaghg:para :   1870.72s CPU   1891.91s WALL (  116370 calls)
     h_psi        :  44379.46s CPU  44843.47s WALL (   59629 calls)
     s_psi        :  17733.95s CPU  17743.31s WALL (   59629 calls)
     g_psi        :     87.51s CPU     87.76s WALL (   51625 calls)

     Called by h_psi:
     h_psi:calbec :  17450.37s CPU  17471.84s WALL (   59629 calls)
     vloc_psi     :   9102.07s CPU   9479.78s WALL (   59629 calls)
     add_vuspsi   :  17746.82s CPU  17756.32s WALL (   59629 calls)

     General routines
     calbec       :  26208.19s CPU  26236.87s WALL (   72469 calls)
     fft          :     43.11s CPU     47.29s WALL (    5945 calls)
     ffts         :      1.21s CPU      1.32s WALL (     802 calls)
     fftw         :   7590.58s CPU   7860.89s WALL ( 9357264 calls)
     interpolate  :      4.69s CPU      4.98s WALL (     408 calls)

     Parallel routines

     PAW routines
     PAW_pot      :    541.69s CPU    541.81s WALL (     223 calls)
     PAW_symme    :      0.15s CPU      0.16s WALL (     420 calls)

     PWSCF        :   1d15h30m CPU   1d15h48m WALL


   This run was terminated on:   7:20:19  17Sep2025            

=------------------------------------------------------------------------------=
   JOB DONE.
=------------------------------------------------------------------------------=
