
     Program PWSCF v.7.3.1 starts on 15Jan2025 at  1: 6:50 

     This program is part of the open-source Quantum ESPRESSO suite
     for quantum simulation of materials; please cite
         "P. Giannozzi et al., J. Phys.:Condens. Matter 21 395502 (2009);
         "P. Giannozzi et al., J. Phys.:Condens. Matter 29 465901 (2017);
         "P. Giannozzi et al., J. Chem. Phys. 152 154105 (2020);
          URL http://www.quantum-espresso.org", 
     in publications or presentations arising from this work. More details at
     http://www.quantum-espresso.org/quote

     Parallel version (MPI), running on     6 processors

     MPI processes distributed on     1 nodes
     693 MiB available memory on the printing compute node when the environment starts

     Reading input from vc_relax.in

     Current dimensions of program PWSCF are:
     Max number of different atomic species (ntypx) = 10
     Max number of k-points (npk) =  40000
     Max angular momentum in pseudopotentials (lmaxx) =  4
     file Al.pbe-n-kjpaw_psl.1.0.0.UPF: wavefunction(s)  3S 3P renormalized
     file Fe.pbe-spn-kjpaw_psl.1.0.0.UPF: wavefunction(s)  3P 3D renormalized
     file H.pbe-kjpaw_psl.1.0.0.UPF: wavefunction(s)  1S renormalized
     file K.pbe-spn-kjpaw_psl.1.0.0.UPF: wavefunction(s)  3S renormalized
     file Mg.pbe-spnl-kjpaw_psl.1.0.0.UPF: wavefunction(s)  2P renormalized
     file O.pbe-n-kjpaw_psl.1.0.0.UPF: wavefunction(s)  2S 2P renormalized
     file Si.pbe-n-kjpaw_psl.1.0.0.UPF: wavefunction(s)  3S 3P renormalized

     R & G space division:  proc/nbgrp/npool/nimage =       6
     Subspace diagonalization in iterative solution of the eigenvalue problem:
     one sub-group per band group will be used
     custom distributed-memory algorithm (size of sub-group:  2*  2 procs)


     Parallelization info
     --------------------
     sticks:   dense  smooth     PW     G-vecs:    dense   smooth      PW
     Min        1105     554    150                97744    34578    4918
     Max        1106     555    151                97745    34580    4920
     Sum        6633    3329    905               586467   207475   29511

     Using Slab Decomposition



     bravais-lattice index     =          -12
     lattice parameter (alat)  =      10.0136  a.u.
     unit-cell volume          =    3303.4414 (a.u.)^3
     number of atoms/cell      =           44
     number of atomic types    =            7
     number of electrons       =       262.00
     number of Kohn-Sham states=          157
     kinetic-energy cutoff     =      60.0000  Ry
     charge density cutoff     =     480.0000  Ry
     scf convergence threshold =      1.0E-06
     mixing beta               =       0.7000
     number of iterations used =            8  plain     mixing
     energy convergence thresh.=      1.0E-04
     force convergence thresh. =      1.0E-03
     press convergence thresh. =      5.0E-01
     Exchange-correlation= SLA  PW   PBX  PBC
                           (   1   4   3   4   0   0   0)
     nstep                     =           50


     celldm(1)=  10.013640  celldm(2)=   1.735306  celldm(3)=   1.926511
     celldm(4)=   0.000000  celldm(5)=  -0.177565  celldm(6)=   0.000000

     crystal axes: (cart. coord. in units of alat)
               a(1) = (   1.000000   0.000000   0.000000 )  
               a(2) = (   0.000000   1.735306   0.000000 )  
               a(3) = (  -0.342081   0.000000   1.895896 )  

     reciprocal axes: (cart. coord. in units 2 pi/alat)
               b(1) = (  1.000000 -0.000000  0.180432 )  
               b(2) = (  0.000000  0.576267 -0.000000 )  
               b(3) = (  0.000000  0.000000  0.527455 )  


     PseudoPot. # 1 for Al read from file:
     ./../../../pseudos/Al.pbe-n-kjpaw_psl.1.0.0.UPF
     MD5 check sum: 502b6b27b9c6270cab5dd1084b96fa6d
     Pseudo is Projector augmented-wave + core cor, Zval =  3.0
     Generated using &quot;atomic&quot; code by A. Dal Corso  v.6.3
     Shape of augmentation charge: PSQ
     Using radial grid of 1135 points,  6 beta functions with: 
                l(1) =   0
                l(2) =   0
                l(3) =   1
                l(4) =   1
                l(5) =   2
                l(6) =   2
     Q(r) pseudized with 0 coefficients 


     PseudoPot. # 2 for Fe read from file:
     ./../../../pseudos/Fe.pbe-spn-kjpaw_psl.1.0.0.UPF
     MD5 check sum: fc81f059e5c5069939230b1155715ae8
     Pseudo is Projector augmented-wave + core cor, Zval = 16.0
     Generated using &quot;atomic&quot; code by A. Dal Corso  v.6.3
     Shape of augmentation charge: PSQ
     Using radial grid of 1191 points,  6 beta functions with: 
                l(1) =   0
                l(2) =   0
                l(3) =   1
                l(4) =   1
                l(5) =   2
                l(6) =   2
     Q(r) pseudized with 0 coefficients 


     PseudoPot. # 3 for H  read from file:
     ./../../../pseudos/H.pbe-kjpaw_psl.1.0.0.UPF
     MD5 check sum: d81a744832360e4a8af0b0b5b123bc2a
     Pseudo is Projector augmented-wave, Zval =  1.0
     Generated using &quot;atomic&quot; code by A. Dal Corso  v.6.3MaX
     Shape of augmentation charge: PSQ
     Using radial grid of  929 points,  2 beta functions with: 
                l(1) =   0
                l(2) =   0
     Q(r) pseudized with 0 coefficients 


     PseudoPot. # 4 for K  read from file:
     ./../../../pseudos/K.pbe-spn-kjpaw_psl.1.0.0.UPF
     MD5 check sum: 34cc42130a09071ebe376fd42eb21491
     Pseudo is Projector augmented-wave + core cor, Zval =  9.0
     Generated using &quot;atomic&quot; code by A. Dal Corso  v.6.2.2
     Shape of augmentation charge: PSQ
     Using radial grid of 1165 points,  6 beta functions with: 
                l(1) =   0
                l(2) =   0
                l(3) =   1
                l(4) =   1
                l(5) =   2
                l(6) =   2
     Q(r) pseudized with 0 coefficients 


     PseudoPot. # 5 for Mg read from file:
     ./../../../pseudos/Mg.pbe-spnl-kjpaw_psl.1.0.0.UPF
     MD5 check sum: fda14e0d92a6a9a5ebed782e5a4b3067
     Pseudo is Projector augmented-wave + core cor, Zval = 10.0
     Generated using &quot;atomic&quot; code by A. Dal Corso  v.6.3
     Shape of augmentation charge: PSQ
     Using radial grid of 1129 points,  4 beta functions with: 
                l(1) =   0
                l(2) =   0
                l(3) =   1
                l(4) =   1
     Q(r) pseudized with 0 coefficients 


     PseudoPot. # 6 for O  read from file:
     ./../../../pseudos/O.pbe-n-kjpaw_psl.1.0.0.UPF
     MD5 check sum: e99d9cef9b487d1ca56f5b95ecd0fd7a
     Pseudo is Projector augmented-wave + core cor, Zval =  6.0
     Generated using &quot;atomic&quot; code by A. Dal Corso  v.6.3
     Shape of augmentation charge: PSQ
     Using radial grid of 1095 points,  4 beta functions with: 
                l(1) =   0
                l(2) =   0
                l(3) =   1
                l(4) =   1
     Q(r) pseudized with 0 coefficients 


     PseudoPot. # 7 for Si read from file:
     ./../../../pseudos/Si.pbe-n-kjpaw_psl.1.0.0.UPF
     MD5 check sum: c39c59da582df4a0d9f10159256ea34e
     Pseudo is Projector augmented-wave + core cor, Zval =  4.0
     Generated using &quot;atomic&quot; code by A. Dal Corso  v.6.3
     Shape of augmentation charge: PSQ
     Using radial grid of 1141 points,  6 beta functions with: 
                l(1) =   0
                l(2) =   0
                l(3) =   1
                l(4) =   1
                l(5) =   2
                l(6) =   2
     Q(r) pseudized with 0 coefficients 


     atomic species   valence    mass     pseudopotential
     Al                3.00    26.98154     Al( 1.00)
     Fe               16.00    55.84500     Fe( 1.00)
     H                 1.00     1.00794     H ( 1.00)
     K                 9.00    39.09830     K ( 1.00)
     Mg               10.00    24.30500     Mg( 1.00)
     O                 6.00    15.99940     O ( 1.00)
     Si                4.00    28.08550     Si( 1.00)

     Starting magnetic structure 
     atomic species   magnetization
     Al              0.000
     Fe              0.300
     H               0.000
     K               0.000
     Mg              0.000
     O               0.000
     Si              0.000

      2 Sym. Ops. (no inversion) found


                                    s                        frac. trans.

      isym =  1     identity                                     

 cryst.   s( 1) = (     1          0          0      )
                  (     0          1          0      )
                  (     0          0          1      )

 cart.    s( 1) = (  1.0000000  0.0000000 -0.0000000 )
                  (  0.0000000  1.0000000  0.0000000 )
                  (  0.0000000  0.0000000  1.0000000 )


      isym =  2     180 deg rotation - cart. axis [0,1,0]        

 cryst.   s( 2) = (    -1          0          0      )
                  (     0          1          0      )
                  (     0          0         -1      )

 cart.    s( 2) = ( -1.0000000  0.0000000  0.0000000 )
                  (  0.0000000  1.0000000  0.0000000 )
                  (  0.0000000  0.0000000 -1.0000000 )


     point group C_2  (2)   
     there are  2 classes
     the character table:

       E     C2   
A      1.00  1.00
B      1.00 -1.00

     the symmetry operations in each class and the name of the first element:

     E        1
          identity                                               
     C2       2
          180 deg rotation - cart. axis [0,1,0]                  

   Cartesian axes

     site n.     atom                  positions (alat units)
         1        K      tau(   1) = (   0.0000000   0.8598077   0.0000000  )
         2        K      tau(   2) = (   0.5000000   0.0043668   0.0000000  )
         3        Mg     tau(   3) = (  -0.1710407   0.0076791   0.9479482  )
         4        Mg     tau(   4) = (  -0.1710407   0.5783231   0.9479482  )
         5        Mg     tau(   5) = (  -0.1710407   1.1545860   0.9479482  )
         6        Mg     tau(   6) = (   0.3289593   0.8590031   0.9479482  )
         7        Mg     tau(   7) = (   0.3289593   1.4451986   0.9479482  )
         8        Si     tau(   8) = (   0.0039965   0.2858686   0.4185352  )
         9        Si     tau(   9) = (   0.6539221   0.2858686   1.4773612  )
        10        Si     tau(  10) = (   0.6713238   1.4475106   1.4634320  )
        11        Si     tau(  11) = (  -0.0134051   1.4475106   0.4324643  )
        12        Si     tau(  12) = (   0.4858593   1.1561739   0.4283342  )
        13        Si     tau(  13) = (   0.1720594   1.1561739   1.4675622  )
        14        Al     tau(  14) = (   0.1510599   0.5744342   1.4735571  )
        15        Al     tau(  15) = (   0.5068587   0.5744342   0.4223392  )
        16        O      tau(  16) = (  -0.0176263   0.2844768   0.7255972  )
        17        O      tau(  17) = (   0.6755449   0.2844768   1.1702992  )
        18        O      tau(  18) = (   0.6656058   1.4459498   1.1579710  )
        19        O      tau(  19) = (  -0.0076871   1.4459498   0.7379255  )
        20        O      tau(  20) = (   0.4922717   1.1598425   0.7351438  )
        21        O      tau(  21) = (   0.1656470   1.1598425   1.1607526  )
        22        O      tau(  22) = (   0.1527565   0.5847988   1.1461901  )
        23        O      tau(  23) = (   0.5051622   0.5847988   0.7497063  )
        24        O      tau(  24) = (   0.2856841   0.3496439   0.3148955  )
        25        O      tau(  25) = (   0.3722346   0.3496439   1.5810008  )
        26        O      tau(  26) = (   0.9377301   1.7293492   0.3141948  )
        27        O      tau(  27) = (  -0.2798114   1.7293492   1.5817016  )
        28        O      tau(  28) = (   0.3992122   1.3449275   1.5770283  )
        29        O      tau(  29) = (   0.2587065   1.3449275   0.3188681  )
        30        O      tau(  30) = (   0.7580252   1.2688640   0.3174384  )
        31        O      tau(  31) = (  -0.1001065   1.2688640   1.5784580  )
        32        O      tau(  32) = (   0.4391389   0.8811634   0.3045157  )
        33        O      tau(  33) = (   0.2187798   0.8811634   1.5913807  )
        34        O      tau(  34) = (  -0.1426817   0.4800403   1.6003568  )
        35        O      tau(  35) = (   0.8006004   0.4800403   0.2955396  )
        36        O      tau(  36) = (  -0.0041670   0.8752553   0.7461898  )
        37        O      tau(  37) = (   0.6620857   0.8752553   1.1497065  )
        38        O      tau(  38) = (   0.4980971   1.7259068   0.7508455  )
        39        O      tau(  39) = (   0.1598215   1.7259068   1.1450509  )
        40        H      tau(  40) = (  -0.0033200   0.8598643   0.5646772  )
        41        H      tau(  41) = (   0.6612388   0.8598643   1.3312191  )
        42        H      tau(  42) = (   0.4835091   0.0299521   0.5731999  )
        43        H      tau(  43) = (   0.1744096   0.0299521   1.3226965  )
        44        Fe     tau(  44) = (   0.3289593   0.2997186   0.9479482  )

     --------------------------------------------
     DFT-D3 Dispersion Correction (3-body terms):
     --------------------------------------------
       Reference C6 values for interpolation: 

         atom   Coordination number   C6
         H          0.912             6.05
         H          0.000            15.18
         O          0.000            31.01
         O          0.993            25.63
         O          1.989            20.74
         Mg         0.000          1366.75
         Mg         0.963           902.54
         Mg         1.950           351.12
         Al         0.000          1081.08
         Al         0.965           875.51
         Al         1.931           513.50
         Al         2.915           307.19
         Si         0.000           635.71
         Si         0.951           540.53
         Si         1.944           466.25
         Si         2.941           443.01
         Si         3.868           299.55
         K          0.000          9967.00
         K          0.977           676.04
         Fe         0.000           982.67
         Fe         1.648           409.99
         Fe         9.138           219.01

       Values used:

         atom   Coordination number  R0_AB[au]  C6      C8
         K         13.775            4.007    676.04 129074.98
         K         13.987            4.007    676.04 129074.98
         Mg        11.176            3.292    351.12  31436.69
         Mg        11.571            3.292    351.12  31436.69
         Mg        11.800            3.292    351.12  31436.69
         Mg        11.830            3.292    351.12  31436.69
         Mg        11.428            3.292    351.12  31436.69
         Si         6.759            3.583    299.55  21425.58
         Si         6.759            3.583    299.55  21425.58
         Si         6.574            3.583    299.55  21425.58
         Si         6.574            3.583    299.55  21425.58
         Si         6.643            3.583    299.55  21425.58
         Si         6.643            3.583    299.55  21425.58
         Al         7.572            3.789    307.19  29441.29
         Al         7.572            3.789    307.19  29441.29
         O          3.565            2.345     20.74    418.58
         O          3.565            2.345     20.74    418.58
         O          3.924            2.345     20.74    418.58
         O          3.924            2.345     20.74    418.58
         O          3.921            2.345     20.74    418.58
         O          3.921            2.345     20.74    418.58
         O          3.797            2.345     20.74    418.58
         O          3.797            2.345     20.74    418.58
         O          3.154            2.345     20.74    418.58
         O          3.154            2.345     20.74    418.58
         O          3.169            2.345     20.74    418.58
         O          3.169            2.345     20.74    418.58
         O          3.099            2.345     20.74    418.58
         O          3.099            2.345     20.74    418.58
         O          3.105            2.345     20.74    418.58
         O          3.105            2.345     20.74    418.58
         O          3.203            2.345     20.74    418.58
         O          3.203            2.345     20.74    418.58
         O          3.260            2.345     20.74    418.58
         O          3.260            2.345     20.74    418.58
         O          3.998            2.345     20.74    418.58
         O          3.998            2.345     20.74    418.58
         O          3.703            2.345     20.74    418.58
         O          3.703            2.345     20.74    418.58
         H          1.329            2.062      6.07     73.32
         H          1.329            2.062      6.07     73.32
         H          1.263            2.062      6.07     73.41
         H          1.263            2.062      6.07     73.41
         Fe         7.580            3.252    219.01  20487.87

         Molecular C6 ( Ry / a.u.^6 ) =    165305.54


   Crystallographic axes

     site n.     atom                  positions (cryst. coord.)
         1        K      tau(   1) = (  0.0000000  0.4954790  0.0000000  )
         2        K      tau(   2) = (  0.5000000  0.0025165  0.0000000  )
         3        Mg     tau(   3) = (  0.0000000  0.0044252  0.5000000  )
         4        Mg     tau(   4) = (  0.0000000  0.3332686  0.5000000  )
         5        Mg     tau(   5) = (  0.0000000  0.6653500  0.5000000  )
         6        Mg     tau(   6) = (  0.5000000  0.4950153  0.5000000  )
         7        Mg     tau(   7) = (  0.5000000  0.8328205  0.5000000  )
         8        Si     tau(   8) = (  0.0795139  0.1647367  0.2207585  )
         9        Si     tau(   9) = (  0.9204861  0.1647367  0.7792415  )
        10        Si     tau(  10) = (  0.9353744  0.8341529  0.7718945  )
        11        Si     tau(  11) = (  0.0646255  0.8341529  0.2281055  )
        12        Si     tau(  12) = (  0.5631447  0.6662651  0.2259270  )
        13        Si     tau(  13) = (  0.4368553  0.6662651  0.7740730  )
        14        Al     tau(  14) = (  0.4169375  0.3310276  0.7772350  )
        15        Al     tau(  15) = (  0.5830625  0.3310276  0.2227649  )
        16        O      tau(  16) = (  0.1132951  0.1639346  0.3827199  )
        17        O      tau(  17) = (  0.8867049  0.1639346  0.6172801  )
        18        O      tau(  18) = (  0.8745414  0.8332534  0.6107776  )
        19        O      tau(  19) = (  0.1254586  0.8332534  0.3892225  )
        20        O      tau(  20) = (  0.6249155  0.6683792  0.3877552  )
        21        O      tau(  21) = (  0.3750845  0.6683792  0.6122447  )
        22        O      tau(  22) = (  0.3595664  0.3370004  0.6045637  )
        23        O      tau(  23) = (  0.6404336  0.3370004  0.3954363  )
        24        O      tau(  24) = (  0.3425015  0.2014883  0.1660932  )
        25        O      tau(  25) = (  0.6574985  0.2014883  0.8339068  )
        26        O      tau(  26) = (  0.9944211  0.9965672  0.1657236  )
        27        O      tau(  27) = (  0.0055790  0.9965672  0.8342764  )
        28        O      tau(  28) = (  0.6837593  0.7750376  0.8318114  )
        29        O      tau(  29) = (  0.3162407  0.7750376  0.1681886  )
        30        O      tau(  30) = (  0.8153014  0.7312047  0.1674345  )
        31        O      tau(  31) = (  0.1846986  0.7312047  0.8325655  )
        32        O      tau(  32) = (  0.4940834  0.5077856  0.1606183  )
        33        O      tau(  33) = (  0.5059165  0.5077856  0.8393817  )
        34        O      tau(  34) = (  0.1460747  0.2766314  0.8441162  )
        35        O      tau(  35) = (  0.8539253  0.2766314  0.1558838  )
        36        O      tau(  36) = (  0.1304699  0.5043809  0.3935815  )
        37        O      tau(  37) = (  0.8695301  0.5043809  0.6064184  )
        38        O      tau(  38) = (  0.6335741  0.9945834  0.3960372  )
        39        O      tau(  39) = (  0.3664259  0.9945834  0.6039628  )
        40        H      tau(  40) = (  0.0985661  0.4955116  0.2978418  )
        41        H      tau(  41) = (  0.9014339  0.4955116  0.7021582  )
        42        H      tau(  42) = (  0.5869330  0.0172604  0.3023371  )
        43        H      tau(  43) = (  0.4130670  0.0172604  0.6976628  )
        44        Fe     tau(  44) = (  0.5000000  0.1727180  0.5000000  )

     number of k points=    20  Gaussian smearing, width (Ry)=  0.0010
                       cart. coord. in units 2pi/alat
        k(    1) = (   0.0000000   0.0000000   0.0000000), wk =   0.0185185
        k(    2) = (   0.0000000   0.0000000   0.1758183), wk =   0.0370370
        k(    3) = (   0.0000000   0.1920891   0.0000000), wk =   0.0370370
        k(    4) = (   0.0000000   0.1920891   0.1758183), wk =   0.0740741
        k(    5) = (   0.1666667   0.0000000   0.0300721), wk =   0.0370370
        k(    6) = (   0.1666667   0.0000000   0.2058904), wk =   0.0370370
        k(    7) = (   0.1666667   0.0000000  -0.1457462), wk =   0.0370370
        k(    8) = (   0.1666667   0.1920891   0.0300721), wk =   0.0740741
        k(    9) = (   0.1666667   0.1920891   0.2058904), wk =   0.0740741
        k(   10) = (   0.1666667   0.1920891  -0.1457462), wk =   0.0740741
        k(   11) = (   0.3333333   0.0000000   0.0601442), wk =   0.0370370
        k(   12) = (   0.3333333   0.0000000   0.2359625), wk =   0.0370370
        k(   13) = (   0.3333333   0.0000000  -0.1156742), wk =   0.0370370
        k(   14) = (   0.3333333   0.1920891   0.0601442), wk =   0.0740741
        k(   15) = (   0.3333333   0.1920891   0.2359625), wk =   0.0740741
        k(   16) = (   0.3333333   0.1920891  -0.1156742), wk =   0.0740741
        k(   17) = (  -0.5000000   0.0000000  -0.0902162), wk =   0.0185185
        k(   18) = (  -0.5000000   0.0000000   0.0856021), wk =   0.0370370
        k(   19) = (  -0.5000000   0.1920891  -0.0902162), wk =   0.0370370
        k(   20) = (  -0.5000000   0.1920891   0.0856021), wk =   0.0740741

                       cryst. coord.
        k(    1) = (   0.0000000   0.0000000   0.0000000), wk =   0.0185185
        k(    2) = (   0.0000000   0.0000000   0.3333333), wk =   0.0370370
        k(    3) = (   0.0000000   0.3333333   0.0000000), wk =   0.0370370
        k(    4) = (   0.0000000   0.3333333   0.3333333), wk =   0.0740741
        k(    5) = (   0.1666667   0.0000000  -0.0000000), wk =   0.0370370
        k(    6) = (   0.1666667   0.0000000   0.3333333), wk =   0.0370370
        k(    7) = (   0.1666667   0.0000000  -0.3333333), wk =   0.0370370
        k(    8) = (   0.1666667   0.3333333  -0.0000000), wk =   0.0740741
        k(    9) = (   0.1666667   0.3333333   0.3333333), wk =   0.0740741
        k(   10) = (   0.1666667   0.3333333  -0.3333333), wk =   0.0740741
        k(   11) = (   0.3333333   0.0000000  -0.0000000), wk =   0.0370370
        k(   12) = (   0.3333333   0.0000000   0.3333333), wk =   0.0370370
        k(   13) = (   0.3333333   0.0000000  -0.3333333), wk =   0.0370370
        k(   14) = (   0.3333333   0.3333333  -0.0000000), wk =   0.0740741
        k(   15) = (   0.3333333   0.3333333   0.3333333), wk =   0.0740741
        k(   16) = (   0.3333333   0.3333333  -0.3333333), wk =   0.0740741
        k(   17) = (  -0.5000000   0.0000000   0.0000000), wk =   0.0185185
        k(   18) = (  -0.5000000   0.0000000   0.3333333), wk =   0.0370370
        k(   19) = (  -0.5000000   0.3333333   0.0000000), wk =   0.0370370
        k(   20) = (  -0.5000000   0.3333333   0.3333333), wk =   0.0740741

     Dense  grid:   586467 G-vectors     FFT dimensions: (  72, 125, 135)

     Smooth grid:   207475 G-vectors     FFT dimensions: (  50,  90,  96)

     Dynamical RAM for                 wfc:      10.35 MB

     Dynamical RAM for     wfc (w. buffer):     424.41 MB

     Dynamical RAM for           str. fact:      10.44 MB

     Dynamical RAM for           local pot:       0.00 MB

     Dynamical RAM for          nlocal pot:      28.88 MB

     Dynamical RAM for                qrad:      24.61 MB

     Dynamical RAM for          rho,v,vnew:      18.42 MB

     Dynamical RAM for               rhoin:       6.14 MB

     Dynamical RAM for            rho*nmix:      47.73 MB

     Dynamical RAM for           G-vectors:       5.86 MB

     Dynamical RAM for          h,s,v(r/c):       1.13 MB

     Dynamical RAM for          <psi|beta>:       1.05 MB

     Dynamical RAM for                 psi:      20.70 MB

     Dynamical RAM for                hpsi:      20.70 MB

     Dynamical RAM for                spsi:      20.70 MB

     Dynamical RAM for      wfcinit/wfcrot:      24.90 MB

     Dynamical RAM for           addusdens:     314.70 MB

     Dynamical RAM for          addusforce:     383.50 MB

     Dynamical RAM for         addusstress:     302.02 MB

     Estimated static dynamical RAM per process >     540.17 MB

     Estimated max dynamical RAM per process >     971.40 MB

     Estimated total dynamical RAM >       5.69 GB

     Check: negative core charge=   -0.000004
     Generating pointlists ...
     new r_m :   0.1351 (alat units)  1.3529 (a.u.) for type    1
     new r_m :   0.1606 (alat units)  1.6084 (a.u.) for type    2
     new r_m :   0.0751 (alat units)  0.7525 (a.u.) for type    3
     new r_m :   0.2121 (alat units)  2.1236 (a.u.) for type    4
     new r_m :   0.1566 (alat units)  1.5685 (a.u.) for type    5
     new r_m :   0.0751 (alat units)  0.7525 (a.u.) for type    6
     new r_m :   0.1259 (alat units)  1.2607 (a.u.) for type    7

     Initial potential from superposition of free atoms

     starting charge     261.9493, renormalised to     262.0000
     Starting wfcs are  183 randomized atomic wfcs
     Checking if some PAW data can be deallocated... 
       PAW data deallocated on    5 nodes for type:  1
       PAW data deallocated on    5 nodes for type:  2
       PAW data deallocated on    5 nodes for type:  3
       PAW data deallocated on    5 nodes for type:  4
       PAW data deallocated on    5 nodes for type:  5
       PAW data deallocated on    1 nodes for type:  6
       PAW data deallocated on    4 nodes for type:  7

     total cpu time spent up to now is       83.7 secs

     Self-consistent Calculation

     iteration #  1     ecut=    60.00 Ry     beta= 0.70
     Davidson diagonalization with overlap

---- Real-time Memory Report at c_bands before calling an iterative solver
           615 MiB given to the printing process from OS
             0 MiB allocation reported by mallinfo(arena+hblkhd)
           412 MiB available memory on the node where the printing process lives
------------------
     ethr =  1.00E-02,  avg # of iterations =  6.0

     total cpu time spent up to now is      346.7 secs

     total energy              =   -2623.68035669 Ry
     estimated scf accuracy    <      12.41562841 Ry

     total magnetization       =     4.00 Bohr mag/cell
     absolute magnetization    =     4.04 Bohr mag/cell

     iteration #  2     ecut=    60.00 Ry     beta= 0.70
     Davidson diagonalization with overlap

---- Real-time Memory Report at c_bands before calling an iterative solver
           890 MiB given to the printing process from OS
             0 MiB allocation reported by mallinfo(arena+hblkhd)
          1747 MiB available memory on the node where the printing process lives
------------------
     ethr =  4.74E-03,  avg # of iterations =  5.1

     total cpu time spent up to now is      714.5 secs

     total energy              =   -2628.41854556 Ry
     estimated scf accuracy    <      13.41953191 Ry

     total magnetization       =     2.03 Bohr mag/cell
     absolute magnetization    =     3.22 Bohr mag/cell

     iteration #  3     ecut=    60.00 Ry     beta= 0.70
     Davidson diagonalization with overlap

---- Real-time Memory Report at c_bands before calling an iterative solver
           893 MiB given to the printing process from OS
             0 MiB allocation reported by mallinfo(arena+hblkhd)
          1733 MiB available memory on the node where the printing process lives
------------------
     ethr =  4.74E-03,  avg # of iterations =  2.0

     total cpu time spent up to now is      915.4 secs

     total energy              =   -2628.07766055 Ry
     estimated scf accuracy    <      31.64870009 Ry

     total magnetization       =     0.14 Bohr mag/cell
     absolute magnetization    =     0.94 Bohr mag/cell

     iteration #  4     ecut=    60.00 Ry     beta= 0.70
     Davidson diagonalization with overlap

---- Real-time Memory Report at c_bands before calling an iterative solver
           895 MiB given to the printing process from OS
             0 MiB allocation reported by mallinfo(arena+hblkhd)
          1748 MiB available memory on the node where the printing process lives
------------------
     ethr =  4.74E-03,  avg # of iterations =  2.0

     total cpu time spent up to now is     1114.2 secs

     total energy              =   -2630.61204908 Ry
     estimated scf accuracy    <       0.95770881 Ry

     total magnetization       =     4.00 Bohr mag/cell
     absolute magnetization    =     4.43 Bohr mag/cell

     iteration #  5     ecut=    60.00 Ry     beta= 0.70
     Davidson diagonalization with overlap

---- Real-time Memory Report at c_bands before calling an iterative solver
           898 MiB given to the printing process from OS
             0 MiB allocation reported by mallinfo(arena+hblkhd)
          1730 MiB available memory on the node where the printing process lives
------------------
     c_bands:  2 eigenvalues not converged
     ethr =  3.66E-04,  avg # of iterations =  9.9

     total cpu time spent up to now is     1482.7 secs

     total energy              =   -2631.20164273 Ry
     estimated scf accuracy    <       0.10595647 Ry

     total magnetization       =     4.00 Bohr mag/cell
     absolute magnetization    =     4.14 Bohr mag/cell

     iteration #  6     ecut=    60.00 Ry     beta= 0.70
     Davidson diagonalization with overlap

---- Real-time Memory Report at c_bands before calling an iterative solver
           900 MiB given to the printing process from OS
             0 MiB allocation reported by mallinfo(arena+hblkhd)
          1729 MiB available memory on the node where the printing process lives
------------------
     c_bands:  2 eigenvalues not converged
     c_bands:  1 eigenvalues not converged
     c_bands:  2 eigenvalues not converged
     c_bands:  2 eigenvalues not converged
     c_bands:  1 eigenvalues not converged
     c_bands:  2 eigenvalues not converged
     c_bands:  1 eigenvalues not converged
     c_bands:  2 eigenvalues not converged
     c_bands:  1 eigenvalues not converged
     c_bands:  1 eigenvalues not converged
     c_bands:  1 eigenvalues not converged
     c_bands:  1 eigenvalues not converged
     c_bands:  1 eigenvalues not converged
     c_bands:  1 eigenvalues not converged
     c_bands:  2 eigenvalues not converged
     ethr =  4.04E-05,  avg # of iterations = 17.4

     negative rho (up, down):  0.000E+00 2.773E-06

     total cpu time spent up to now is     1895.6 secs

     total energy              =   -2631.23467477 Ry
     estimated scf accuracy    <       0.04255257 Ry

     total magnetization       =     4.00 Bohr mag/cell
     absolute magnetization    =     4.09 Bohr mag/cell

     iteration #  7     ecut=    60.00 Ry     beta= 0.70
     Davidson diagonalization with overlap

---- Real-time Memory Report at c_bands before calling an iterative solver
           902 MiB given to the printing process from OS
             0 MiB allocation reported by mallinfo(arena+hblkhd)
          1733 MiB available memory on the node where the printing process lives
------------------
     c_bands:  1 eigenvalues not converged
     c_bands:  1 eigenvalues not converged
     c_bands:  1 eigenvalues not converged
     c_bands:  1 eigenvalues not converged
     c_bands:  1 eigenvalues not converged
     c_bands:  1 eigenvalues not converged
     ethr =  1.62E-05,  avg # of iterations = 12.3

     negative rho (up, down):  0.000E+00 5.135E-05

     total cpu time spent up to now is     2211.5 secs

     total energy              =   -2631.24299438 Ry
     estimated scf accuracy    <       0.01086173 Ry

     total magnetization       =     4.00 Bohr mag/cell
     absolute magnetization    =     4.07 Bohr mag/cell

     iteration #  8     ecut=    60.00 Ry     beta= 0.70
     Davidson diagonalization with overlap

---- Real-time Memory Report at c_bands before calling an iterative solver
           905 MiB given to the printing process from OS
             0 MiB allocation reported by mallinfo(arena+hblkhd)
          1709 MiB available memory on the node where the printing process lives
------------------
     c_bands:  1 eigenvalues not converged
     c_bands:  1 eigenvalues not converged
     c_bands:  1 eigenvalues not converged
     c_bands:  1 eigenvalues not converged
     c_bands:  1 eigenvalues not converged
     c_bands:  2 eigenvalues not converged
     ethr =  4.15E-06,  avg # of iterations = 11.2

     negative rho (up, down):  0.000E+00 7.222E-05

     total cpu time spent up to now is     2525.0 secs

     total energy              =   -2631.24524505 Ry
     estimated scf accuracy    <       0.00470897 Ry

     total magnetization       =     4.00 Bohr mag/cell
     absolute magnetization    =     4.06 Bohr mag/cell

     iteration #  9     ecut=    60.00 Ry     beta= 0.70
     Davidson diagonalization with overlap

---- Real-time Memory Report at c_bands before calling an iterative solver
           907 MiB given to the printing process from OS
             0 MiB allocation reported by mallinfo(arena+hblkhd)
          1733 MiB available memory on the node where the printing process lives
------------------
     c_bands:  1 eigenvalues not converged
     c_bands:  1 eigenvalues not converged
     ethr =  1.80E-06,  avg # of iterations =  4.4

     negative rho (up, down):  0.000E+00 8.548E-05

     total cpu time spent up to now is     2762.7 secs

     total energy              =   -2631.24559338 Ry
     estimated scf accuracy    <       0.00267191 Ry

     total magnetization       =     4.00 Bohr mag/cell
     absolute magnetization    =     4.06 Bohr mag/cell

     iteration # 10     ecut=    60.00 Ry     beta= 0.70
     Davidson diagonalization with overlap

---- Real-time Memory Report at c_bands before calling an iterative solver
           909 MiB given to the printing process from OS
             0 MiB allocation reported by mallinfo(arena+hblkhd)
          1744 MiB available memory on the node where the printing process lives
------------------
     ethr =  1.02E-06,  avg # of iterations =  2.0

     negative rho (up, down):  0.000E+00 9.337E-05

     total cpu time spent up to now is     2974.6 secs

     total energy              =   -2631.24564954 Ry
     estimated scf accuracy    <       0.00146743 Ry

     total magnetization       =     4.00 Bohr mag/cell
     absolute magnetization    =     4.05 Bohr mag/cell

     iteration # 11     ecut=    60.00 Ry     beta= 0.70
     Davidson diagonalization with overlap

---- Real-time Memory Report at c_bands before calling an iterative solver
           909 MiB given to the printing process from OS
             0 MiB allocation reported by mallinfo(arena+hblkhd)
          1731 MiB available memory on the node where the printing process lives
------------------
     c_bands:  1 eigenvalues not converged
     c_bands:  1 eigenvalues not converged
     ethr =  5.60E-07,  avg # of iterations =  5.9

     negative rho (up, down):  0.000E+00 1.109E-04

     total cpu time spent up to now is     3216.0 secs

     total energy              =   -2631.24566298 Ry
     estimated scf accuracy    <       0.00054443 Ry

     total magnetization       =     4.00 Bohr mag/cell
     absolute magnetization    =     4.05 Bohr mag/cell

     iteration # 12     ecut=    60.00 Ry     beta= 0.70
     Davidson diagonalization with overlap

---- Real-time Memory Report at c_bands before calling an iterative solver
           909 MiB given to the printing process from OS
             0 MiB allocation reported by mallinfo(arena+hblkhd)
          1730 MiB available memory on the node where the printing process lives
------------------
     ethr =  2.08E-07,  avg # of iterations =  6.2

     negative rho (up, down):  0.000E+00 1.113E-04

     total cpu time spent up to now is     3524.7 secs

     total energy              =   -2631.24603846 Ry
     estimated scf accuracy    <       0.00010634 Ry

     total magnetization       =     4.00 Bohr mag/cell
     absolute magnetization    =     4.05 Bohr mag/cell

     iteration # 13     ecut=    60.00 Ry     beta= 0.70
     Davidson diagonalization with overlap

---- Real-time Memory Report at c_bands before calling an iterative solver
           909 MiB given to the printing process from OS
             0 MiB allocation reported by mallinfo(arena+hblkhd)
          1728 MiB available memory on the node where the printing process lives
------------------
     ethr =  4.06E-08,  avg # of iterations =  5.5

     negative rho (up, down):  0.000E+00 1.117E-04

     total cpu time spent up to now is     3812.0 secs

     total energy              =   -2631.24607172 Ry
     estimated scf accuracy    <       0.00002436 Ry

     total magnetization       =     4.00 Bohr mag/cell
     absolute magnetization    =     4.05 Bohr mag/cell

     iteration # 14     ecut=    60.00 Ry     beta= 0.70
     Davidson diagonalization with overlap

---- Real-time Memory Report at c_bands before calling an iterative solver
           909 MiB given to the printing process from OS
             0 MiB allocation reported by mallinfo(arena+hblkhd)
          1736 MiB available memory on the node where the printing process lives
------------------
     ethr =  9.30E-09,  avg # of iterations =  6.2

     negative rho (up, down):  0.000E+00 1.119E-04

     total cpu time spent up to now is     4191.8 secs

     total energy              =   -2631.24609087 Ry
     estimated scf accuracy    <       0.00002910 Ry

     total magnetization       =     4.00 Bohr mag/cell
     absolute magnetization    =     4.05 Bohr mag/cell

     iteration # 15     ecut=    60.00 Ry     beta= 0.70
     Davidson diagonalization with overlap

---- Real-time Memory Report at c_bands before calling an iterative solver
           909 MiB given to the printing process from OS
             0 MiB allocation reported by mallinfo(arena+hblkhd)
          1723 MiB available memory on the node where the printing process lives
------------------
     ethr =  9.30E-09,  avg # of iterations =  2.0

     negative rho (up, down):  0.000E+00 1.127E-04

     total cpu time spent up to now is     4397.7 secs

     total energy              =   -2631.24609207 Ry
     estimated scf accuracy    <       0.00000902 Ry

     total magnetization       =     4.00 Bohr mag/cell
     absolute magnetization    =     4.05 Bohr mag/cell

     iteration # 16     ecut=    60.00 Ry     beta= 0.70
     Davidson diagonalization with overlap

---- Real-time Memory Report at c_bands before calling an iterative solver
           909 MiB given to the printing process from OS
             0 MiB allocation reported by mallinfo(arena+hblkhd)
          1737 MiB available memory on the node where the printing process lives
------------------
     ethr =  3.44E-09,  avg # of iterations =  6.2

     negative rho (up, down):  0.000E+00 1.142E-04

     total cpu time spent up to now is     4779.2 secs

     total energy              =   -2631.24609867 Ry
     estimated scf accuracy    <       0.00001953 Ry

     total magnetization       =     4.00 Bohr mag/cell
     absolute magnetization    =     4.05 Bohr mag/cell

     iteration # 17     ecut=    60.00 Ry     beta= 0.70
     Davidson diagonalization with overlap

---- Real-time Memory Report at c_bands before calling an iterative solver
           909 MiB given to the printing process from OS
             0 MiB allocation reported by mallinfo(arena+hblkhd)
          1726 MiB available memory on the node where the printing process lives
------------------
     ethr =  3.44E-09,  avg # of iterations =  4.7

     negative rho (up, down):  0.000E+00 1.143E-04

     total cpu time spent up to now is     5007.0 secs

     total energy              =   -2631.24610506 Ry
     estimated scf accuracy    <       0.00000595 Ry

     total magnetization       =     4.00 Bohr mag/cell
     absolute magnetization    =     4.05 Bohr mag/cell

     iteration # 18     ecut=    60.00 Ry     beta= 0.70
     Davidson diagonalization with overlap

---- Real-time Memory Report at c_bands before calling an iterative solver
           909 MiB given to the printing process from OS
             0 MiB allocation reported by mallinfo(arena+hblkhd)
          1731 MiB available memory on the node where the printing process lives
------------------
     ethr =  2.27E-09,  avg # of iterations =  5.6

     negative rho (up, down):  0.000E+00 1.142E-04

     Magnetic moment per site  (integrated on atomic sphere of radius R)
     atom   1 (R=0.212)  charge=  7.4991  magn=  0.0001
     atom   2 (R=0.212)  charge=  7.5015  magn=  0.0000
     atom   3 (R=0.157)  charge=  8.0988  magn= -0.0000
     atom   4 (R=0.157)  charge=  8.1019  magn=  0.0001
     atom   5 (R=0.157)  charge=  8.0954  magn= -0.0000
     atom   6 (R=0.157)  charge=  8.1022  magn=  0.0005
     atom   7 (R=0.157)  charge=  8.0985  magn=  0.0003
     atom   8 (R=0.126)  charge=  0.5495  magn=  0.0007
     atom   9 (R=0.126)  charge=  0.5495  magn=  0.0007
     atom  10 (R=0.126)  charge=  0.5424  magn=  0.0000
     atom  11 (R=0.126)  charge=  0.5424  magn=  0.0000
     atom  12 (R=0.126)  charge=  0.5415  magn= -0.0000
     atom  13 (R=0.126)  charge=  0.5415  magn= -0.0000
     atom  14 (R=0.135)  charge=  0.3376  magn=  0.0011
     atom  15 (R=0.135)  charge=  0.3376  magn=  0.0011
     atom  16 (R=0.075)  charge=  1.9349  magn=  0.0176
     atom  17 (R=0.075)  charge=  1.9349  magn=  0.0176
     atom  18 (R=0.075)  charge=  1.9388  magn=  0.0003
     atom  19 (R=0.075)  charge=  1.9388  magn=  0.0003
     atom  20 (R=0.075)  charge=  1.9375  magn=  0.0006
     atom  21 (R=0.075)  charge=  1.9375  magn=  0.0006
     atom  22 (R=0.075)  charge=  1.9315  magn=  0.0253
     atom  23 (R=0.075)  charge=  1.9315  magn=  0.0253
     atom  24 (R=0.075)  charge=  1.9398  magn= -0.0001
     atom  25 (R=0.075)  charge=  1.9398  magn= -0.0001
     atom  26 (R=0.075)  charge=  1.9425  magn=  0.0005
     atom  27 (R=0.075)  charge=  1.9425  magn=  0.0005
     atom  28 (R=0.075)  charge=  1.9430  magn=  0.0001
     atom  29 (R=0.075)  charge=  1.9430  magn=  0.0001
     atom  30 (R=0.075)  charge=  1.9422  magn=  0.0001
     atom  31 (R=0.075)  charge=  1.9422  magn=  0.0001
     atom  32 (R=0.075)  charge=  1.9345  magn=  0.0006
     atom  33 (R=0.075)  charge=  1.9345  magn=  0.0006
     atom  34 (R=0.075)  charge=  1.9377  magn=  0.0013
     atom  35 (R=0.075)  charge=  1.9377  magn=  0.0013
     atom  36 (R=0.075)  charge=  1.9381  magn=  0.0004
     atom  37 (R=0.075)  charge=  1.9381  magn=  0.0004
     atom  38 (R=0.075)  charge=  1.9343  magn=  0.0200
     atom  39 (R=0.075)  charge=  1.9343  magn=  0.0200
     atom  40 (R=0.075)  charge=  0.4009  magn=  0.0000
     atom  41 (R=0.075)  charge=  0.4009  magn=  0.0000
     atom  42 (R=0.075)  charge=  0.3975  magn=  0.0006
     atom  43 (R=0.075)  charge=  0.3975  magn=  0.0006
     atom  44 (R=0.161)  charge= 13.3739  magn=  3.3152

     total cpu time spent up to now is     5282.9 secs

     End of self-consistent calculation

 ------ SPIN UP ------------


          k = 0.0000 0.0000 0.0000 ( 25927 PWs)   bands (ev):

   -81.1243 -67.5383 -67.5159 -67.3682 -67.0412 -66.9206 -48.1142 -47.0537
   -46.3776 -34.3084 -34.2920 -34.2850 -34.2737 -34.2672 -34.2525 -34.1309
   -34.1295 -34.1016 -33.7973 -33.7973 -33.7888 -33.6906 -33.6836 -33.6450
   -22.9456 -22.9192 -15.0184 -14.9635 -14.0805 -14.0313 -13.5643 -13.5400
   -13.3488 -13.2296 -13.2255 -13.0116 -12.8854 -12.7712 -12.7617 -12.7403
   -12.6951 -12.5843 -12.4422 -12.3734 -12.2474 -12.2391 -12.1818 -12.0548
   -11.2702 -11.0471  -6.5187  -6.4909  -6.4417  -6.4357  -6.4001  -6.3949
    -4.2165  -4.1544  -2.3591  -2.2407  -1.7886  -1.2861  -1.0926  -1.0854
    -1.0250  -0.9367  -0.6460  -0.5809  -0.4059  -0.3599  -0.2954  -0.1179
     0.0455   0.1199   0.2900   0.5224   0.6255   0.6882   0.7203   0.9329
     0.9580   1.1865   1.2197   1.2740   1.4214   1.5236   1.5637   1.7115
     1.7685   1.8500   2.0011   2.0942   2.1129   2.1399   2.2526   2.3471
     2.3528   2.3920   2.6392   2.6957   2.7142   2.7386   2.8357   2.8901
     2.9152   2.9164   3.0469   3.1057   3.1366   3.2037   3.2049   3.3302
     3.3939   3.4241   3.4759   3.4980   3.5632   3.6665   3.7814   3.7815
     3.8054   3.8827   3.9310   3.9739   4.0411   4.1159   4.3806   4.4514
     5.3890   5.4023   6.5498   6.9115   7.1909   9.1383  10.6668  11.2641
    11.6084  11.9594  12.1947  12.2063  12.6107  12.6308  13.0926  13.1012
    13.1180  13.2569  13.3500  13.4920  13.6512  13.6575  13.7403  13.8316
    13.8550  14.0885  14.2662  14.2938  14.3638

     occupation numbers 
     1.0000   1.0000   1.0000   1.0000   1.0000   1.0000   1.0000   1.0000
     1.0000   1.0000   1.0000   1.0000   1.0000   1.0000   1.0000   1.0000
     1.0000   1.0000   1.0000   1.0000   1.0000   1.0000   1.0000   1.0000
     1.0000   1.0000   1.0000   1.0000   1.0000   1.0000   1.0000   1.0000
     1.0000   1.0000   1.0000   1.0000   1.0000   1.0000   1.0000   1.0000
     1.0000   1.0000   1.0000   1.0000   1.0000   1.0000   1.0000   1.0000
     1.0000   1.0000   1.0000   1.0000   1.0000   1.0000   1.0000   1.0000
     1.0000   1.0000   1.0000   1.0000   1.0000   1.0000   1.0000   1.0000
     1.0000   1.0000   1.0000   1.0000   1.0000   1.0000   1.0000   1.0000
     1.0000   1.0000   1.0000   1.0000   1.0000   1.0000   1.0000   1.0000
     1.0000   1.0000   1.0000   1.0000   1.0000   1.0000   1.0000   1.0000
     1.0000   1.0000   1.0000   1.0000   1.0000   1.0000   1.0000   1.0000
     1.0000   1.0000   1.0000   1.0000   1.0000   1.0000   1.0000   1.0000
     1.0000   1.0000   1.0000   1.0000   1.0000   1.0000   1.0000   1.0000
     1.0000   1.0000   1.0000   1.0000   1.0000   1.0000   1.0000   1.0000
     1.0000   1.0000   1.0000   1.0000   1.0000   1.0000   1.0000   1.0000
     1.0000   1.0000   1.0000   1.0000   1.0000   0.0000   0.0000   0.0000
     0.0000   0.0000   0.0000   0.0000   0.0000   0.0000   0.0000   0.0000
     0.0000   0.0000   0.0000   0.0000   0.0000   0.0000   0.0000   0.0000
     0.0000   0.0000   0.0000   0.0000   0.0000

          k = 0.0000 0.0000 0.1758 ( 25971 PWs)   bands (ev):

   -81.1243 -67.5383 -67.5159 -67.3682 -67.0412 -66.9206 -48.1142 -47.0537
   -46.3776 -34.3084 -34.2920 -34.2850 -34.2738 -34.2672 -34.2526 -34.1309
   -34.1295 -34.1017 -33.7973 -33.7973 -33.7888 -33.6907 -33.6836 -33.6450
   -22.9456 -22.9192 -15.0052 -14.9776 -14.0689 -14.0437 -13.5649 -13.5394
   -13.3376 -13.2488 -13.2189 -13.0068 -12.8862 -12.7810 -12.7549 -12.7411
   -12.6891 -12.5885 -12.4342 -12.3812 -12.2588 -12.2145 -12.1867 -12.0621
   -11.2698 -11.0480  -6.5188  -6.4909  -6.4417  -6.4357  -6.4000  -6.3949
    -4.2113  -4.1601  -2.3324  -2.2723  -1.7570  -1.2686  -1.1102  -1.0622
    -1.0203  -0.9624  -0.6592  -0.5537  -0.4360  -0.3250  -0.3045  -0.2224
     0.0832   0.1317   0.2390   0.4660   0.6180   0.6432   0.7520   0.9579
     1.0032   1.2048   1.2314   1.2631   1.4392   1.5105   1.6152   1.7190
     1.8169   1.8840   2.0890   2.1090   2.1220   2.1626   2.2587   2.3018
     2.3671   2.4021   2.6024   2.6363   2.7108   2.7311   2.7701   2.7972
     2.8309   3.0415   3.0487   3.0869   3.1290   3.1471   3.2613   3.3685
     3.4070   3.4281   3.4756   3.5024   3.5881   3.6561   3.7097   3.7352
     3.8608   3.8845   3.9336   3.9680   3.9933   4.1860   4.3702   4.4466
     5.3853   5.4043   6.5499   6.9133   7.1891   9.4538  10.1822  11.3712
    11.6365  11.7856  12.1284  12.2700  12.7549  12.8853  13.0018  13.1067
    13.2253  13.2603  13.3680  13.4489  13.5281  13.6618  13.7804  13.7975
    13.9276  14.0231  14.1473  14.3324  14.3575

     occupation numbers 
     1.0000   1.0000   1.0000   1.0000   1.0000   1.0000   1.0000   1.0000
     1.0000   1.0000   1.0000   1.0000   1.0000   1.0000   1.0000   1.0000
     1.0000   1.0000   1.0000   1.0000   1.0000   1.0000   1.0000   1.0000
     1.0000   1.0000   1.0000   1.0000   1.0000   1.0000   1.0000   1.0000
     1.0000   1.0000   1.0000   1.0000   1.0000   1.0000   1.0000   1.0000
     1.0000   1.0000   1.0000   1.0000   1.0000   1.0000   1.0000   1.0000
     1.0000   1.0000   1.0000   1.0000   1.0000   1.0000   1.0000   1.0000
     1.0000   1.0000   1.0000   1.0000   1.0000   1.0000   1.0000   1.0000
     1.0000   1.0000   1.0000   1.0000   1.0000   1.0000   1.0000   1.0000
     1.0000   1.0000   1.0000   1.0000   1.0000   1.0000   1.0000   1.0000
     1.0000   1.0000   1.0000   1.0000   1.0000   1.0000   1.0000   1.0000
     1.0000   1.0000   1.0000   1.0000   1.0000   1.0000   1.0000   1.0000
     1.0000   1.0000   1.0000   1.0000   1.0000   1.0000   1.0000   1.0000
     1.0000   1.0000   1.0000   1.0000   1.0000   1.0000   1.0000   1.0000
     1.0000   1.0000   1.0000   1.0000   1.0000   1.0000   1.0000   1.0000
     1.0000   1.0000   1.0000   1.0000   1.0000   1.0000   1.0000   1.0000
     1.0000   1.0000   1.0000   1.0000   1.0000   0.0000   0.0000   0.0000
     0.0000   0.0000   0.0000   0.0000   0.0000   0.0000   0.0000   0.0000
     0.0000   0.0000   0.0000   0.0000   0.0000   0.0000   0.0000   0.0000
     0.0000   0.0000   0.0000   0.0000   0.0000

          k = 0.0000 0.1921 0.0000 ( 25933 PWs)   bands (ev):

   -81.1243 -67.5383 -67.5159 -67.3682 -67.0412 -66.9206 -48.1142 -47.0537
   -46.3776 -34.3084 -34.2920 -34.2850 -34.2737 -34.2672 -34.2525 -34.1309
   -34.1295 -34.1017 -33.7973 -33.7973 -33.7888 -33.6906 -33.6836 -33.6450
   -22.9456 -22.9192 -15.0134 -14.9585 -14.1146 -14.0617 -13.5643 -13.5401
   -13.2806 -13.1915 -13.1214 -13.0369 -12.8963 -12.8570 -12.8363 -12.7215
   -12.7000 -12.5849 -12.4343 -12.3697 -12.2426 -12.2388 -12.1788 -12.0510
   -11.2686 -11.0465  -6.5150  -6.4949  -6.4412  -6.4339  -6.4015  -6.3957
    -4.1775  -4.1151  -2.5023  -2.3774  -1.7416  -1.3339  -1.0227  -1.0217
    -0.9199  -0.8678  -0.6776  -0.6617  -0.4266  -0.3024  -0.2493  -0.0840
    -0.0278   0.1624   0.2782   0.4989   0.5832   0.6649   0.7263   0.9205
     0.9761   1.0742   1.1553   1.2974   1.4175   1.5777   1.5946   1.7503
     1.8088   1.8939   2.0158   2.1074   2.1648   2.2154   2.2380   2.3842
     2.4280   2.4965   2.5559   2.6066   2.6918   2.7111   2.8143   2.8347
     2.9267   2.9497   3.0515   3.0674   3.1704   3.1858   3.2426   3.3455
     3.4010   3.4310   3.4778   3.4979   3.5973   3.6117   3.7399   3.7598
     3.8577   3.8650   3.9022   3.9874   4.0149   4.1366   4.1829   4.4321
     5.3830   5.4111   6.5507   6.9205   7.1511   9.5466  10.4800  10.9037
    11.4758  11.8711  12.3357  12.5604  12.6486  12.8163  12.9554  13.0910
    13.1728  13.2375  13.3746  13.4470  13.4712  13.6511  13.6867  13.8073
    13.8097  13.8565  14.3377  14.3505  14.5232

     occupation numbers 
     1.0000   1.0000   1.0000   1.0000   1.0000   1.0000   1.0000   1.0000
     1.0000   1.0000   1.0000   1.0000   1.0000   1.0000   1.0000   1.0000
     1.0000   1.0000   1.0000   1.0000   1.0000   1.0000   1.0000   1.0000
     1.0000   1.0000   1.0000   1.0000   1.0000   1.0000   1.0000   1.0000
     1.0000   1.0000   1.0000   1.0000   1.0000   1.0000   1.0000   1.0000
     1.0000   1.0000   1.0000   1.0000   1.0000   1.0000   1.0000   1.0000
     1.0000   1.0000   1.0000   1.0000   1.0000   1.0000   1.0000   1.0000
     1.0000   1.0000   1.0000   1.0000   1.0000   1.0000   1.0000   1.0000
     1.0000   1.0000   1.0000   1.0000   1.0000   1.0000   1.0000   1.0000
     1.0000   1.0000   1.0000   1.0000   1.0000   1.0000   1.0000   1.0000
     1.0000   1.0000   1.0000   1.0000   1.0000   1.0000   1.0000   1.0000
     1.0000   1.0000   1.0000   1.0000   1.0000   1.0000   1.0000   1.0000
     1.0000   1.0000   1.0000   1.0000   1.0000   1.0000   1.0000   1.0000
     1.0000   1.0000   1.0000   1.0000   1.0000   1.0000   1.0000   1.0000
     1.0000   1.0000   1.0000   1.0000   1.0000   1.0000   1.0000   1.0000
     1.0000   1.0000   1.0000   1.0000   1.0000   1.0000   1.0000   1.0000
     1.0000   1.0000   1.0000   1.0000   1.0000   0.0000   0.0000   0.0000
     0.0000   0.0000   0.0000   0.0000   0.0000   0.0000   0.0000   0.0000
     0.0000   0.0000   0.0000   0.0000   0.0000   0.0000   0.0000   0.0000
     0.0000   0.0000   0.0000   0.0000   0.0000

          k = 0.0000 0.1921 0.1758 ( 25924 PWs)   bands (ev):

   -81.1243 -67.5383 -67.5159 -67.3682 -67.0412 -66.9206 -48.1142 -47.0537
   -46.3776 -34.3084 -34.2920 -34.2850 -34.2737 -34.2671 -34.2525 -34.1309
   -34.1294 -34.1017 -33.7973 -33.7972 -33.7888 -33.6906 -33.6836 -33.6450
   -22.9456 -22.9192 -15.0001 -14.9727 -14.1019 -14.0754 -13.5650 -13.5394
   -13.2755 -13.1809 -13.1413 -13.0269 -12.9044 -12.8668 -12.8199 -12.7241
   -12.6968 -12.5891 -12.4272 -12.3773 -12.2559 -12.2131 -12.1825 -12.0582
   -11.2682 -11.0473  -6.5150  -6.4950  -6.4412  -6.4337  -6.4014  -6.3957
    -4.1700  -4.1232  -2.4728  -2.4103  -1.7147  -1.3197  -1.0237  -1.0166
    -0.9157  -0.8784  -0.7008  -0.6276  -0.4564  -0.3061  -0.2507  -0.1686
     0.0249   0.1655   0.2042   0.4785   0.5815   0.6189   0.7698   0.9162
     1.0242   1.0719   1.1107   1.3493   1.5131   1.5683   1.6663   1.7319
     1.8598   1.9017   2.0502   2.0818   2.1594   2.2326   2.3117   2.3430
     2.4187   2.4646   2.5264   2.6267   2.6719   2.6990   2.7585   2.8133
     2.8577   2.9797   3.0332   3.0839   3.1457   3.1957   3.2660   3.3504
     3.3773   3.4541   3.4776   3.5162   3.5580   3.6262   3.6867   3.7314
     3.8617   3.8999   3.9150   3.9549   4.0128   4.1676   4.2184   4.4278
     5.3783   5.4132   6.5510   6.9229   7.1462   9.8209  10.4726  10.6723
    11.1676  11.8531  12.3354  12.6063  12.7733  12.9546  13.0861  13.1330
    13.2308  13.2816  13.3834  13.4286  13.5692  13.6076  13.6509  13.7460
    13.8005  13.9612  14.2114  14.3384  14.4262

     occupation numbers 
     1.0000   1.0000   1.0000   1.0000   1.0000   1.0000   1.0000   1.0000
     1.0000   1.0000   1.0000   1.0000   1.0000   1.0000   1.0000   1.0000
     1.0000   1.0000   1.0000   1.0000   1.0000   1.0000   1.0000   1.0000
     1.0000   1.0000   1.0000   1.0000   1.0000   1.0000   1.0000   1.0000
     1.0000   1.0000   1.0000   1.0000   1.0000   1.0000   1.0000   1.0000
     1.0000   1.0000   1.0000   1.0000   1.0000   1.0000   1.0000   1.0000
     1.0000   1.0000   1.0000   1.0000   1.0000   1.0000   1.0000   1.0000
     1.0000   1.0000   1.0000   1.0000   1.0000   1.0000   1.0000   1.0000
     1.0000   1.0000   1.0000   1.0000   1.0000   1.0000   1.0000   1.0000
     1.0000   1.0000   1.0000   1.0000   1.0000   1.0000   1.0000   1.0000
     1.0000   1.0000   1.0000   1.0000   1.0000   1.0000   1.0000   1.0000
     1.0000   1.0000   1.0000   1.0000   1.0000   1.0000   1.0000   1.0000
     1.0000   1.0000   1.0000   1.0000   1.0000   1.0000   1.0000   1.0000
     1.0000   1.0000   1.0000   1.0000   1.0000   1.0000   1.0000   1.0000
     1.0000   1.0000   1.0000   1.0000   1.0000   1.0000   1.0000   1.0000
     1.0000   1.0000   1.0000   1.0000   1.0000   1.0000   1.0000   1.0000
     1.0000   1.0000   1.0000   1.0000   1.0000   0.0000   0.0000   0.0000
     0.0000   0.0000   0.0000   0.0000   0.0000   0.0000   0.0000   0.0000
     0.0000   0.0000   0.0000   0.0000   0.0000   0.0000   0.0000   0.0000
     0.0000   0.0000   0.0000   0.0000   0.0000

          k = 0.1667 0.0000 0.0301 ( 25941 PWs)   bands (ev):

   -81.1243 -67.5383 -67.5159 -67.3682 -67.0412 -66.9206 -48.1142 -47.0537
   -46.3776 -34.3077 -34.2935 -34.2839 -34.2745 -34.2667 -34.2526 -34.1310
   -34.1294 -34.1017 -33.7977 -33.7968 -33.7888 -33.6905 -33.6837 -33.6452
   -22.9454 -22.9190 -14.9600 -14.9062 -14.0985 -14.0525 -13.6796 -13.6468
   -13.2876 -13.1886 -13.1412 -12.9971 -12.8923 -12.7957 -12.7632 -12.7287
   -12.6884 -12.5930 -12.4594 -12.3890 -12.3108 -12.2568 -12.1816 -12.0439
   -11.2674 -11.0506  -6.5185  -6.4952  -6.4401  -6.4340  -6.4002  -6.3913
    -4.0595  -3.9948  -2.3257  -2.2110  -1.7812  -1.3689  -1.3567  -1.2336
    -0.8457  -0.7385  -0.6818  -0.5827  -0.4105  -0.3420  -0.2517  -0.1113
     0.0744   0.1293   0.2743   0.5027   0.5747   0.6870   0.7031   0.8160
     1.0883   1.1884   1.1955   1.2785   1.3676   1.4679   1.5632   1.6456
     1.7225   1.9443   1.9843   2.0342   2.0965   2.1527   2.3165   2.3664
     2.3851   2.4717   2.6005   2.6675   2.7186   2.7332   2.8110   2.8598
     2.8871   2.9936   3.0522   3.0944   3.1403   3.1858   3.2381   3.3008
     3.3393   3.3848   3.4568   3.4942   3.6333   3.6594   3.7173   3.7985
     3.8142   3.8510   3.8964   3.9371   4.0330   4.0925   4.2986   4.3631
     5.3492   5.4013   6.5541   6.9163   7.1913   9.4638  10.8394  11.3421
    11.7343  11.9979  12.2097  12.3644  12.6036  12.7576  12.9573  13.0509
    13.1041  13.2884  13.3290  13.4985  13.5919  13.6266  13.7069  13.8101
    13.8846  14.1130  14.1597  14.2991  14.4284

     occupation numbers 
     1.0000   1.0000   1.0000   1.0000   1.0000   1.0000   1.0000   1.0000
     1.0000   1.0000   1.0000   1.0000   1.0000   1.0000   1.0000   1.0000
     1.0000   1.0000   1.0000   1.0000   1.0000   1.0000   1.0000   1.0000
     1.0000   1.0000   1.0000   1.0000   1.0000   1.0000   1.0000   1.0000
     1.0000   1.0000   1.0000   1.0000   1.0000   1.0000   1.0000   1.0000
     1.0000   1.0000   1.0000   1.0000   1.0000   1.0000   1.0000   1.0000
     1.0000   1.0000   1.0000   1.0000   1.0000   1.0000   1.0000   1.0000
     1.0000   1.0000   1.0000   1.0000   1.0000   1.0000   1.0000   1.0000
     1.0000   1.0000   1.0000   1.0000   1.0000   1.0000   1.0000   1.0000
     1.0000   1.0000   1.0000   1.0000   1.0000   1.0000   1.0000   1.0000
     1.0000   1.0000   1.0000   1.0000   1.0000   1.0000   1.0000   1.0000
     1.0000   1.0000   1.0000   1.0000   1.0000   1.0000   1.0000   1.0000
     1.0000   1.0000   1.0000   1.0000   1.0000   1.0000   1.0000   1.0000
     1.0000   1.0000   1.0000   1.0000   1.0000   1.0000   1.0000   1.0000
     1.0000   1.0000   1.0000   1.0000   1.0000   1.0000   1.0000   1.0000
     1.0000   1.0000   1.0000   1.0000   1.0000   1.0000   1.0000   1.0000
     1.0000   1.0000   1.0000   1.0000   1.0000   0.0000   0.0000   0.0000
     0.0000   0.0000   0.0000   0.0000   0.0000   0.0000   0.0000   0.0000
     0.0000   0.0000   0.0000   0.0000   0.0000   0.0000   0.0000   0.0000
     0.0000   0.0000   0.0000   0.0000   0.0000

          k = 0.1667 0.0000 0.2059 ( 25961 PWs)   bands (ev):

   -81.1243 -67.5383 -67.5159 -67.3682 -67.0412 -66.9206 -48.1142 -47.0537
   -46.3776 -34.3077 -34.2935 -34.2839 -34.2745 -34.2667 -34.2526 -34.1310
   -34.1294 -34.1017 -33.7977 -33.7968 -33.7888 -33.6905 -33.6837 -33.6452
   -22.9454 -22.9190 -14.9434 -14.9238 -14.0883 -14.0633 -13.6756 -13.6509
   -13.2784 -13.1907 -13.1506 -12.9915 -12.8924 -12.7950 -12.7722 -12.7244
   -12.6827 -12.5972 -12.4533 -12.3966 -12.3060 -12.2593 -12.1718 -12.0536
   -11.2669 -11.0516  -6.5186  -6.4952  -6.4400  -6.4340  -6.4001  -6.3913
    -4.0596  -3.9950  -2.3029  -2.2391  -1.7469  -1.4114  -1.3204  -1.2195
    -0.8428  -0.7477  -0.6959  -0.5619  -0.4106  -0.3065  -0.2714  -0.2304
     0.1150   0.1673   0.2177   0.4328   0.5506   0.6760   0.6874   0.8701
     1.1447   1.1590   1.2251   1.2600   1.3737   1.5183   1.5739   1.6948
     1.7533   1.9492   2.0163   2.0342   2.1589   2.2278   2.2716   2.3468
     2.4048   2.4627   2.5829   2.6167   2.6674   2.7303   2.7591   2.7783
     2.9014   3.0169   3.0274   3.0926   3.1506   3.2107   3.2149   3.3039
     3.3209   3.3921   3.4925   3.5299   3.5603   3.6826   3.7304   3.7448
     3.8336   3.8690   3.8821   3.9402   3.9886   4.1628   4.3024   4.3609
     5.3452   5.4009   6.5542   6.9165   7.1901   9.8350  10.2913  11.4391
    11.7508  11.8449  12.2647  12.2989  12.5563  12.8628  13.0701  13.1792
    13.2218  13.3554  13.3888  13.3932  13.5432  13.6575  13.6797  13.7959
    13.8993  13.9015  14.1673  14.3620  14.4128

     occupation numbers 
     1.0000   1.0000   1.0000   1.0000   1.0000   1.0000   1.0000   1.0000
     1.0000   1.0000   1.0000   1.0000   1.0000   1.0000   1.0000   1.0000
     1.0000   1.0000   1.0000   1.0000   1.0000   1.0000   1.0000   1.0000
     1.0000   1.0000   1.0000   1.0000   1.0000   1.0000   1.0000   1.0000
     1.0000   1.0000   1.0000   1.0000   1.0000   1.0000   1.0000   1.0000
     1.0000   1.0000   1.0000   1.0000   1.0000   1.0000   1.0000   1.0000
     1.0000   1.0000   1.0000   1.0000   1.0000   1.0000   1.0000   1.0000
     1.0000   1.0000   1.0000   1.0000   1.0000   1.0000   1.0000   1.0000
     1.0000   1.0000   1.0000   1.0000   1.0000   1.0000   1.0000   1.0000
     1.0000   1.0000   1.0000   1.0000   1.0000   1.0000   1.0000   1.0000
     1.0000   1.0000   1.0000   1.0000   1.0000   1.0000   1.0000   1.0000
     1.0000   1.0000   1.0000   1.0000   1.0000   1.0000   1.0000   1.0000
     1.0000   1.0000   1.0000   1.0000   1.0000   1.0000   1.0000   1.0000
     1.0000   1.0000   1.0000   1.0000   1.0000   1.0000   1.0000   1.0000
     1.0000   1.0000   1.0000   1.0000   1.0000   1.0000   1.0000   1.0000
     1.0000   1.0000   1.0000   1.0000   1.0000   1.0000   1.0000   1.0000
     1.0000   1.0000   1.0000   1.0000   1.0000   0.0000   0.0000   0.0000
     0.0000   0.0000   0.0000   0.0000   0.0000   0.0000   0.0000   0.0000
     0.0000   0.0000   0.0000   0.0000   0.0000   0.0000   0.0000   0.0000
     0.0000   0.0000   0.0000   0.0000   0.0000

          k = 0.1667 0.0000-0.1457 ( 25956 PWs)   bands (ev):

   -81.1243 -67.5383 -67.5159 -67.3682 -67.0412 -66.9206 -48.1142 -47.0537
   -46.3776 -34.3077 -34.2935 -34.2839 -34.2745 -34.2667 -34.2526 -34.1310
   -34.1294 -34.1017 -33.7977 -33.7968 -33.7888 -33.6905 -33.6837 -33.6451
   -22.9454 -22.9190 -14.9506 -14.9163 -14.0895 -14.0621 -13.6742 -13.6523
   -13.2825 -13.1742 -13.1634 -12.9934 -12.8919 -12.7864 -12.7787 -12.7229
   -12.6856 -12.5979 -12.4480 -12.4009 -12.2885 -12.2805 -12.1688 -12.0524
   -11.2666 -11.0515  -6.5187  -6.4953  -6.4401  -6.4340  -6.4001  -6.3913
    -4.0434  -4.0116  -2.3008  -2.2393  -1.7612  -1.4042  -1.3248  -1.2222
    -0.8343  -0.7615  -0.6826  -0.5441  -0.4215  -0.3328  -0.2617  -0.2042
     0.0777   0.1569   0.2393   0.4524   0.5864   0.6731   0.7328   0.8621
     1.0927   1.1677   1.2030   1.2645   1.3839   1.5502   1.5638   1.6348
     1.7594   1.9379   1.9833   2.0713   2.0947   2.1718   2.2931   2.3701
     2.3969   2.4485   2.5906   2.6178   2.7152   2.7329   2.7512   2.8381
     2.9341   2.9592   3.0534   3.0670   3.1578   3.2279   3.2604   3.2793
     3.3666   3.4153   3.4937   3.5271   3.5820   3.6490   3.6958   3.7618
     3.8142   3.8470   3.8710   3.9326   4.0229   4.1219   4.3068   4.3609
     5.3487   5.4025   6.5546   6.9159   7.1901   9.6528  10.5258  11.4669
    11.7980  11.8547  12.2545  12.3070  12.6114  12.9339  12.9763  13.0701
    13.1664  13.2517  13.3454  13.3985  13.5323  13.6323  13.6658  13.8090
    13.9069  14.1264  14.1947  14.2834  14.3950

     occupation numbers 
     1.0000   1.0000   1.0000   1.0000   1.0000   1.0000   1.0000   1.0000
     1.0000   1.0000   1.0000   1.0000   1.0000   1.0000   1.0000   1.0000
     1.0000   1.0000   1.0000   1.0000   1.0000   1.0000   1.0000   1.0000
     1.0000   1.0000   1.0000   1.0000   1.0000   1.0000   1.0000   1.0000
     1.0000   1.0000   1.0000   1.0000   1.0000   1.0000   1.0000   1.0000
     1.0000   1.0000   1.0000   1.0000   1.0000   1.0000   1.0000   1.0000
     1.0000   1.0000   1.0000   1.0000   1.0000   1.0000   1.0000   1.0000
     1.0000   1.0000   1.0000   1.0000   1.0000   1.0000   1.0000   1.0000
     1.0000   1.0000   1.0000   1.0000   1.0000   1.0000   1.0000   1.0000
     1.0000   1.0000   1.0000   1.0000   1.0000   1.0000   1.0000   1.0000
     1.0000   1.0000   1.0000   1.0000   1.0000   1.0000   1.0000   1.0000
     1.0000   1.0000   1.0000   1.0000   1.0000   1.0000   1.0000   1.0000
     1.0000   1.0000   1.0000   1.0000   1.0000   1.0000   1.0000   1.0000
     1.0000   1.0000   1.0000   1.0000   1.0000   1.0000   1.0000   1.0000
     1.0000   1.0000   1.0000   1.0000   1.0000   1.0000   1.0000   1.0000
     1.0000   1.0000   1.0000   1.0000   1.0000   1.0000   1.0000   1.0000
     1.0000   1.0000   1.0000   1.0000   1.0000   0.0000   0.0000   0.0000
     0.0000   0.0000   0.0000   0.0000   0.0000   0.0000   0.0000   0.0000
     0.0000   0.0000   0.0000   0.0000   0.0000   0.0000   0.0000   0.0000
     0.0000   0.0000   0.0000   0.0000   0.0000

          k = 0.1667 0.1921 0.0301 ( 25937 PWs)   bands (ev):

   -81.1243 -67.5383 -67.5159 -67.3682 -67.0412 -66.9206 -48.1142 -47.0537
   -46.3776 -34.3077 -34.2935 -34.2838 -34.2745 -34.2667 -34.2526 -34.1310
   -34.1294 -34.1017 -33.7977 -33.7968 -33.7888 -33.6905 -33.6837 -33.6451
   -22.9454 -22.9190 -14.9552 -14.9015 -14.1284 -14.0788 -13.6665 -13.6375
   -13.2500 -13.1555 -13.0695 -13.0022 -12.8976 -12.8497 -12.8336 -12.7233
   -12.7043 -12.5933 -12.4549 -12.3778 -12.3038 -12.2597 -12.1786 -12.0419
   -11.2662 -11.0502  -6.5157  -6.4986  -6.4399  -6.4325  -6.4011  -6.3918
    -4.0236  -3.9587  -2.4818  -2.3622  -1.7158  -1.3098  -1.2381  -1.2037
    -0.8444  -0.7440  -0.7156  -0.5896  -0.4109  -0.2751  -0.2248  -0.0646
     0.0431   0.1431   0.2461   0.4671   0.5560   0.6640   0.7063   0.7929
     1.0497   1.0947   1.1973   1.3213   1.3599   1.4773   1.6009   1.6629
     1.7438   1.9189   1.9664   2.0686   2.1485   2.2187   2.2790   2.3852
     2.4659   2.5096   2.5747   2.6366   2.6738   2.7735   2.8412   2.8700
     2.9189   2.9869   3.0191   3.0871   3.1332   3.1769   3.2597   3.3282
     3.3645   3.4347   3.4587   3.4828   3.5675   3.6239   3.7161   3.7629
     3.7841   3.8240   3.8822   3.9319   4.0118   4.0869   4.2142   4.3714
     5.3420   5.4103   6.5548   6.9280   7.1532   9.8226  10.6630  11.0530
    11.5761  11.9252  12.3134  12.6260  12.6568  12.8240  13.0063  13.0488
    13.1572  13.2798  13.3184  13.4136  13.4901  13.5761  13.6739  13.7714
    13.9269  14.0128  14.2755  14.3865  14.5684

     occupation numbers 
     1.0000   1.0000   1.0000   1.0000   1.0000   1.0000   1.0000   1.0000
     1.0000   1.0000   1.0000   1.0000   1.0000   1.0000   1.0000   1.0000
     1.0000   1.0000   1.0000   1.0000   1.0000   1.0000   1.0000   1.0000
     1.0000   1.0000   1.0000   1.0000   1.0000   1.0000   1.0000   1.0000
     1.0000   1.0000   1.0000   1.0000   1.0000   1.0000   1.0000   1.0000
     1.0000   1.0000   1.0000   1.0000   1.0000   1.0000   1.0000   1.0000
     1.0000   1.0000   1.0000   1.0000   1.0000   1.0000   1.0000   1.0000
     1.0000   1.0000   1.0000   1.0000   1.0000   1.0000   1.0000   1.0000
     1.0000   1.0000   1.0000   1.0000   1.0000   1.0000   1.0000   1.0000
     1.0000   1.0000   1.0000   1.0000   1.0000   1.0000   1.0000   1.0000
     1.0000   1.0000   1.0000   1.0000   1.0000   1.0000   1.0000   1.0000
     1.0000   1.0000   1.0000   1.0000   1.0000   1.0000   1.0000   1.0000
     1.0000   1.0000   1.0000   1.0000   1.0000   1.0000   1.0000   1.0000
     1.0000   1.0000   1.0000   1.0000   1.0000   1.0000   1.0000   1.0000
     1.0000   1.0000   1.0000   1.0000   1.0000   1.0000   1.0000   1.0000
     1.0000   1.0000   1.0000   1.0000   1.0000   1.0000   1.0000   1.0000
     1.0000   1.0000   1.0000   1.0000   1.0000   0.0000   0.0000   0.0000
     0.0000   0.0000   0.0000   0.0000   0.0000   0.0000   0.0000   0.0000
     0.0000   0.0000   0.0000   0.0000   0.0000   0.0000   0.0000   0.0000
     0.0000   0.0000   0.0000   0.0000   0.0000

          k = 0.1667 0.1921 0.2059 ( 25944 PWs)   bands (ev):

   -81.1243 -67.5383 -67.5159 -67.3682 -67.0412 -66.9206 -48.1142 -47.0537
   -46.3776 -34.3077 -34.2935 -34.2839 -34.2745 -34.2667 -34.2526 -34.1310
   -34.1294 -34.1017 -33.7977 -33.7968 -33.7888 -33.6905 -33.6837 -33.6452
   -22.9454 -22.9190 -14.9386 -14.9190 -14.1156 -14.0925 -13.6647 -13.6394
   -13.2452 -13.1446 -13.0914 -12.9897 -12.9006 -12.8663 -12.8167 -12.7234
   -12.7022 -12.5976 -12.4501 -12.3846 -12.3026 -12.2585 -12.1690 -12.0513
   -11.2657 -11.0511  -6.5157  -6.4986  -6.4399  -6.4325  -6.4009  -6.3917
    -4.0209  -3.9616  -2.4516  -2.3960  -1.6895  -1.2934  -1.2609  -1.1845
    -0.8430  -0.7658  -0.7043  -0.5702  -0.4114  -0.3173  -0.2231  -0.1265
     0.0821   0.1561   0.1941   0.4297   0.5366   0.6433   0.7034   0.8237
     1.0385   1.0856   1.2217   1.3533   1.3994   1.5335   1.6101   1.7164
     1.7991   1.8805   1.9535   2.0866   2.1746   2.2604   2.3129   2.3634
     2.4417   2.5032   2.5558   2.6405   2.6549   2.7048   2.7908   2.8314
     2.9189   2.9697   3.0478   3.0972   3.1265   3.1784   3.2388   3.2978
     3.3938   3.4289   3.4486   3.5239   3.5582   3.6135   3.6907   3.7238
     3.7952   3.8290   3.8902   3.9464   3.9936   4.1649   4.2036   4.3765
     5.3373   5.4101   6.5550   6.9290   7.1501  10.1398  10.5743  10.8745
    11.2491  11.8958  12.3091  12.6349  12.7273  12.8671  13.0967  13.2179
    13.2591  13.3199  13.4113  13.4307  13.5183  13.5896  13.6768  13.7124
    13.8498  13.9930  14.1914  14.2911  14.4762

     occupation numbers 
     1.0000   1.0000   1.0000   1.0000   1.0000   1.0000   1.0000   1.0000
     1.0000   1.0000   1.0000   1.0000   1.0000   1.0000   1.0000   1.0000
     1.0000   1.0000   1.0000   1.0000   1.0000   1.0000   1.0000   1.0000
     1.0000   1.0000   1.0000   1.0000   1.0000   1.0000   1.0000   1.0000
     1.0000   1.0000   1.0000   1.0000   1.0000   1.0000   1.0000   1.0000
     1.0000   1.0000   1.0000   1.0000   1.0000   1.0000   1.0000   1.0000
     1.0000   1.0000   1.0000   1.0000   1.0000   1.0000   1.0000   1.0000
     1.0000   1.0000   1.0000   1.0000   1.0000   1.0000   1.0000   1.0000
     1.0000   1.0000   1.0000   1.0000   1.0000   1.0000   1.0000   1.0000
     1.0000   1.0000   1.0000   1.0000   1.0000   1.0000   1.0000   1.0000
     1.0000   1.0000   1.0000   1.0000   1.0000   1.0000   1.0000   1.0000
     1.0000   1.0000   1.0000   1.0000   1.0000   1.0000   1.0000   1.0000
     1.0000   1.0000   1.0000   1.0000   1.0000   1.0000   1.0000   1.0000
     1.0000   1.0000   1.0000   1.0000   1.0000   1.0000   1.0000   1.0000
     1.0000   1.0000   1.0000   1.0000   1.0000   1.0000   1.0000   1.0000
     1.0000   1.0000   1.0000   1.0000   1.0000   1.0000   1.0000   1.0000
     1.0000   1.0000   1.0000   1.0000   1.0000   0.0000   0.0000   0.0000
     0.0000   0.0000   0.0000   0.0000   0.0000   0.0000   0.0000   0.0000
     0.0000   0.0000   0.0000   0.0000   0.0000   0.0000   0.0000   0.0000
     0.0000   0.0000   0.0000   0.0000   0.0000

          k = 0.1667 0.1921-0.1457 ( 25923 PWs)   bands (ev):

   -81.1243 -67.5383 -67.5159 -67.3682 -67.0412 -66.9206 -48.1142 -47.0537
   -46.3776 -34.3077 -34.2935 -34.2839 -34.2745 -34.2667 -34.2526 -34.1310
   -34.1294 -34.1017 -33.7977 -33.7968 -33.7888 -33.6905 -33.6837 -33.6451
   -22.9454 -22.9190 -14.9458 -14.9116 -14.1184 -14.0896 -13.6619 -13.6423
   -13.2472 -13.1453 -13.0858 -12.9954 -12.8996 -12.8622 -12.8207 -12.7255
   -12.7002 -12.5977 -12.4443 -12.3888 -12.2853 -12.2797 -12.1664 -12.0503
   -11.2654 -11.0511  -6.5158  -6.4987  -6.4399  -6.4324  -6.4009  -6.3917
    -4.0059  -3.9771  -2.4553  -2.3916  -1.6998  -1.3005  -1.2587  -1.1825
    -0.8288  -0.7726  -0.6935  -0.5739  -0.4304  -0.2815  -0.2402  -0.1115
     0.0520   0.1407   0.2051   0.4644   0.5566   0.6480   0.7383   0.8229
     1.0375   1.0590   1.1962   1.3312   1.4219   1.5096   1.6216   1.7098
     1.7610   1.8980   1.9316   2.1177   2.1436   2.2234   2.2863   2.3443
     2.4635   2.4962   2.5687   2.6382   2.6623   2.7317   2.8210   2.8296
     2.9260   3.0014   3.0653   3.0929   3.1317   3.1769   3.2374   3.3180
     3.3929   3.4361   3.4689   3.5126   3.5906   3.6181   3.6713   3.7361
     3.7899   3.8165   3.8507   3.9299   4.0180   4.1182   4.2142   4.3695
     5.3414   5.4119   6.5553   6.9274   7.1488   9.9993  10.7595  10.8169
    11.3623  11.9629  12.3423  12.5880  12.7038  12.8844  13.0375  13.1468
    13.2056  13.2679  13.3481  13.4133  13.5034  13.6127  13.6516  13.8590
    13.9088  13.9279  14.1414  14.3310  14.4753

     occupation numbers 
     1.0000   1.0000   1.0000   1.0000   1.0000   1.0000   1.0000   1.0000
     1.0000   1.0000   1.0000   1.0000   1.0000   1.0000   1.0000   1.0000
     1.0000   1.0000   1.0000   1.0000   1.0000   1.0000   1.0000   1.0000
     1.0000   1.0000   1.0000   1.0000   1.0000   1.0000   1.0000   1.0000
     1.0000   1.0000   1.0000   1.0000   1.0000   1.0000   1.0000   1.0000
     1.0000   1.0000   1.0000   1.0000   1.0000   1.0000   1.0000   1.0000
     1.0000   1.0000   1.0000   1.0000   1.0000   1.0000   1.0000   1.0000
     1.0000   1.0000   1.0000   1.0000   1.0000   1.0000   1.0000   1.0000
     1.0000   1.0000   1.0000   1.0000   1.0000   1.0000   1.0000   1.0000
     1.0000   1.0000   1.0000   1.0000   1.0000   1.0000   1.0000   1.0000
     1.0000   1.0000   1.0000   1.0000   1.0000   1.0000   1.0000   1.0000
     1.0000   1.0000   1.0000   1.0000   1.0000   1.0000   1.0000   1.0000
     1.0000   1.0000   1.0000   1.0000   1.0000   1.0000   1.0000   1.0000
     1.0000   1.0000   1.0000   1.0000   1.0000   1.0000   1.0000   1.0000
     1.0000   1.0000   1.0000   1.0000   1.0000   1.0000   1.0000   1.0000
     1.0000   1.0000   1.0000   1.0000   1.0000   1.0000   1.0000   1.0000
     1.0000   1.0000   1.0000   1.0000   1.0000   0.0000   0.0000   0.0000
     0.0000   0.0000   0.0000   0.0000   0.0000   0.0000   0.0000   0.0000
     0.0000   0.0000   0.0000   0.0000   0.0000   0.0000   0.0000   0.0000
     0.0000   0.0000   0.0000   0.0000   0.0000

          k = 0.3333 0.0000 0.0601 ( 25907 PWs)   bands (ev):

   -81.1242 -67.5383 -67.5159 -67.3682 -67.0412 -66.9206 -48.1142 -47.0536
   -46.3776 -34.3060 -34.2963 -34.2817 -34.2761 -34.2659 -34.2527 -34.1312
   -34.1292 -34.1017 -33.7978 -33.7966 -33.7888 -33.6901 -33.6840 -33.6454
   -22.9451 -22.9187 -14.7993 -14.7490 -14.2209 -14.1809 -13.7985 -13.7604
   -13.2018 -13.0832 -13.0136 -12.9828 -12.8896 -12.8570 -12.7818 -12.7334
   -12.6962 -12.6011 -12.5117 -12.4495 -12.3816 -12.3025 -12.1631 -12.0409
   -11.2634 -11.0579  -6.5184  -6.5041  -6.4365  -6.4308  -6.4004  -6.3836
    -3.6498  -3.5760  -2.4595  -2.3426  -1.7644  -1.5899  -1.3669  -1.1855
    -0.8804  -0.6694  -0.6636  -0.6066  -0.3176  -0.3060  -0.1670  -0.0665
    -0.0181   0.1904   0.2996   0.4557   0.5496   0.6571   0.7213   0.7510
     1.0039   1.1110   1.1356   1.2256   1.4306   1.4686   1.5744   1.6153
     1.6860   1.7092   1.8612   1.9899   2.0809   2.2643   2.3088   2.4153
     2.4487   2.5430   2.6580   2.7164   2.7243   2.7656   2.8300   2.8696
     2.9169   2.9927   3.0286   3.0437   3.1366   3.1915   3.2287   3.2415
     3.2856   3.3364   3.4803   3.5468   3.5712   3.6439   3.6688   3.6805
     3.7400   3.8109   3.9026   3.9308   3.9610   4.0773   4.1779   4.2765
     5.2733   5.3909   6.5593   6.9308   7.1921  10.2418  11.2436  11.4869
    11.9707  12.0570  12.2279  12.3009  12.6990  12.7471  12.7573  13.0265
    13.1579  13.1956  13.3465  13.4850  13.5432  13.6035  13.7455  13.8941
    14.0364  14.1485  14.2159  14.3293  14.4158

     occupation numbers 
     1.0000   1.0000   1.0000   1.0000   1.0000   1.0000   1.0000   1.0000
     1.0000   1.0000   1.0000   1.0000   1.0000   1.0000   1.0000   1.0000
     1.0000   1.0000   1.0000   1.0000   1.0000   1.0000   1.0000   1.0000
     1.0000   1.0000   1.0000   1.0000   1.0000   1.0000   1.0000   1.0000
     1.0000   1.0000   1.0000   1.0000   1.0000   1.0000   1.0000   1.0000
     1.0000   1.0000   1.0000   1.0000   1.0000   1.0000   1.0000   1.0000
     1.0000   1.0000   1.0000   1.0000   1.0000   1.0000   1.0000   1.0000
     1.0000   1.0000   1.0000   1.0000   1.0000   1.0000   1.0000   1.0000
     1.0000   1.0000   1.0000   1.0000   1.0000   1.0000   1.0000   1.0000
     1.0000   1.0000   1.0000   1.0000   1.0000   1.0000   1.0000   1.0000
     1.0000   1.0000   1.0000   1.0000   1.0000   1.0000   1.0000   1.0000
     1.0000   1.0000   1.0000   1.0000   1.0000   1.0000   1.0000   1.0000
     1.0000   1.0000   1.0000   1.0000   1.0000   1.0000   1.0000   1.0000
     1.0000   1.0000   1.0000   1.0000   1.0000   1.0000   1.0000   1.0000
     1.0000   1.0000   1.0000   1.0000   1.0000   1.0000   1.0000   1.0000
     1.0000   1.0000   1.0000   1.0000   1.0000   1.0000   1.0000   1.0000
     1.0000   1.0000   1.0000   1.0000   1.0000   0.0000   0.0000   0.0000
     0.0000   0.0000   0.0000   0.0000   0.0000   0.0000   0.0000   0.0000
     0.0000   0.0000   0.0000   0.0000   0.0000   0.0000   0.0000   0.0000
     0.0000   0.0000   0.0000   0.0000   0.0000

          k = 0.3333 0.0000 0.2360 ( 25948 PWs)   bands (ev):

   -81.1243 -67.5383 -67.5159 -67.3682 -67.0412 -66.9206 -48.1142 -47.0537
   -46.3776 -34.3060 -34.2963 -34.2817 -34.2761 -34.2659 -34.2527 -34.1312
   -34.1292 -34.1017 -33.7978 -33.7966 -33.7888 -33.6901 -33.6840 -33.6454
   -22.9451 -22.9187 -14.7809 -14.7683 -14.2185 -14.1833 -13.7916 -13.7678
   -13.1969 -13.0762 -13.0294 -12.9821 -12.8846 -12.8502 -12.7964 -12.7273
   -12.6936 -12.6045 -12.5054 -12.4592 -12.3659 -12.3143 -12.1510 -12.0518
   -11.2624 -11.0591  -6.5186  -6.5042  -6.4364  -6.4308  -6.4003  -6.3836
    -3.6506  -3.5754  -2.4321  -2.3739  -1.7357  -1.6282  -1.3394  -1.1737
    -0.8892  -0.6729  -0.6514  -0.5948  -0.2927  -0.2816  -0.2170  -0.1580
     0.0319   0.1496   0.3066   0.4117   0.5516   0.6496   0.6925   0.8092
     1.0290   1.1073   1.1627   1.2273   1.3588   1.4937   1.6128   1.6358
     1.7112   1.7723   1.8041   2.0347   2.1539   2.2321   2.3020   2.4212
     2.4324   2.4929   2.6028   2.6689   2.7588   2.7879   2.8329   2.8540
     2.8829   2.9444   3.0228   3.0725   3.1373   3.1841   3.1906   3.2679
     3.3382   3.3738   3.4981   3.5347   3.5658   3.6500   3.6716   3.6980
     3.7281   3.7708   3.8637   3.9517   4.0016   4.0412   4.2030   4.2833
     5.2718   5.3881   6.5598   6.9302   7.1920  10.5697  10.7854  11.5495
    11.9590  12.0248  12.2148  12.3678  12.6165  12.6761  12.7843  12.9379
    13.2906  13.3287  13.4297  13.4546  13.5250  13.6102  13.7826  13.9016
    13.9489  14.0243  14.0909  14.5059  14.5596

     occupation numbers 
     1.0000   1.0000   1.0000   1.0000   1.0000   1.0000   1.0000   1.0000
     1.0000   1.0000   1.0000   1.0000   1.0000   1.0000   1.0000   1.0000
     1.0000   1.0000   1.0000   1.0000   1.0000   1.0000   1.0000   1.0000
     1.0000   1.0000   1.0000   1.0000   1.0000   1.0000   1.0000   1.0000
     1.0000   1.0000   1.0000   1.0000   1.0000   1.0000   1.0000   1.0000
     1.0000   1.0000   1.0000   1.0000   1.0000   1.0000   1.0000   1.0000
     1.0000   1.0000   1.0000   1.0000   1.0000   1.0000   1.0000   1.0000
     1.0000   1.0000   1.0000   1.0000   1.0000   1.0000   1.0000   1.0000
     1.0000   1.0000   1.0000   1.0000   1.0000   1.0000   1.0000   1.0000
     1.0000   1.0000   1.0000   1.0000   1.0000   1.0000   1.0000   1.0000
     1.0000   1.0000   1.0000   1.0000   1.0000   1.0000   1.0000   1.0000
     1.0000   1.0000   1.0000   1.0000   1.0000   1.0000   1.0000   1.0000
     1.0000   1.0000   1.0000   1.0000   1.0000   1.0000   1.0000   1.0000
     1.0000   1.0000   1.0000   1.0000   1.0000   1.0000   1.0000   1.0000
[...]
     atom   11 type  7   force =    -0.00006555    0.00325607    0.01357624
     atom   12 type  7   force =    -0.00131439   -0.01167860    0.01070106
     atom   13 type  7   force =     0.00131442   -0.01167860   -0.01070106
     atom   14 type  1   force =    -0.00052480   -0.00176354   -0.00917771
     atom   15 type  1   force =     0.00052478   -0.00176354    0.00917765
     atom   16 type  6   force =    -0.00114566    0.00024343    0.00629819
     atom   17 type  6   force =     0.00114566    0.00024343   -0.00629819
     atom   18 type  6   force =    -0.00012980    0.00010820   -0.00701335
     atom   19 type  6   force =     0.00012981    0.00010820    0.00701336
     atom   20 type  6   force =     0.00016742   -0.00020323    0.00677918
     atom   21 type  6   force =    -0.00016741   -0.00020323   -0.00677918
     atom   22 type  6   force =    -0.00057011    0.00115853   -0.00270850
     atom   23 type  6   force =     0.00057010    0.00115853    0.00270848
     atom   24 type  6   force =     0.00455521   -0.00164213   -0.00565603
     atom   25 type  6   force =    -0.00455521   -0.00164213    0.00565602
     atom   26 type  6   force =    -0.00304096    0.00071894   -0.00720780
     atom   27 type  6   force =     0.00304097    0.00071894    0.00720781
     atom   28 type  6   force =    -0.00142602    0.00203789    0.00728885
     atom   29 type  6   force =     0.00142602    0.00203790   -0.00728887
     atom   30 type  6   force =     0.00078498   -0.00191273   -0.00741211
     atom   31 type  6   force =    -0.00078498   -0.00191274    0.00741211
     atom   32 type  6   force =    -0.00222675   -0.00345375   -0.00649425
     atom   33 type  6   force =     0.00222673   -0.00345375    0.00649426
     atom   34 type  6   force =     0.00120610    0.00392522    0.00658208
     atom   35 type  6   force =    -0.00120609    0.00392522   -0.00658210
     atom   36 type  6   force =    -0.00004464    0.00041496    0.01141648
     atom   37 type  6   force =     0.00004465    0.00041495   -0.01141645
     atom   38 type  6   force =     0.00122704   -0.00311175    0.01060957
     atom   39 type  6   force =    -0.00122706   -0.00311175   -0.01060957
     atom   40 type  3   force =     0.00000000    0.00000000    0.00000000
     atom   41 type  3   force =     0.00000000    0.00000000    0.00000000
     atom   42 type  3   force =     0.00000000    0.00000000    0.00000000
     atom   43 type  3   force =     0.00000000    0.00000000    0.00000000
     atom   44 type  2   force =    -0.00000000    0.00419919    0.00000000
     The Hubbard contrib.    to forces
     atom    1 type  4   force =     0.00000000    0.00000000    0.00000000
     atom    2 type  4   force =     0.00000000    0.00000000    0.00000000
     atom    3 type  5   force =     0.00000000    0.00000000    0.00000000
     atom    4 type  5   force =     0.00000000    0.00000000    0.00000000
     atom    5 type  5   force =     0.00000000    0.00000000    0.00000000
     atom    6 type  5   force =     0.00000000    0.00000000    0.00000000
     atom    7 type  5   force =     0.00000000    0.00000000    0.00000000
     atom    8 type  7   force =     0.00000000    0.00000000    0.00000000
     atom    9 type  7   force =     0.00000000    0.00000000    0.00000000
     atom   10 type  7   force =     0.00000000    0.00000000    0.00000000
     atom   11 type  7   force =     0.00000000    0.00000000    0.00000000
     atom   12 type  7   force =     0.00000000    0.00000000    0.00000000
     atom   13 type  7   force =     0.00000000    0.00000000    0.00000000
     atom   14 type  1   force =     0.00000000    0.00000000    0.00000000
     atom   15 type  1   force =     0.00000000    0.00000000    0.00000000
     atom   16 type  6   force =     0.00000000    0.00000000    0.00000000
     atom   17 type  6   force =     0.00000000    0.00000000    0.00000000
     atom   18 type  6   force =     0.00000000    0.00000000    0.00000000
     atom   19 type  6   force =     0.00000000    0.00000000    0.00000000
     atom   20 type  6   force =     0.00000000    0.00000000    0.00000000
     atom   21 type  6   force =     0.00000000    0.00000000    0.00000000
     atom   22 type  6   force =     0.00000000    0.00000000    0.00000000
     atom   23 type  6   force =     0.00000000    0.00000000    0.00000000
     atom   24 type  6   force =     0.00000000    0.00000000    0.00000000
     atom   25 type  6   force =     0.00000000    0.00000000    0.00000000
     atom   26 type  6   force =     0.00000000    0.00000000    0.00000000
     atom   27 type  6   force =     0.00000000    0.00000000    0.00000000
     atom   28 type  6   force =     0.00000000    0.00000000    0.00000000
     atom   29 type  6   force =     0.00000000    0.00000000    0.00000000
     atom   30 type  6   force =     0.00000000    0.00000000    0.00000000
     atom   31 type  6   force =     0.00000000    0.00000000    0.00000000
     atom   32 type  6   force =     0.00000000    0.00000000    0.00000000
     atom   33 type  6   force =     0.00000000    0.00000000    0.00000000
     atom   34 type  6   force =     0.00000000    0.00000000    0.00000000
     atom   35 type  6   force =     0.00000000    0.00000000    0.00000000
     atom   36 type  6   force =     0.00000000    0.00000000    0.00000000
     atom   37 type  6   force =     0.00000000    0.00000000    0.00000000
     atom   38 type  6   force =     0.00000000    0.00000000    0.00000000
     atom   39 type  6   force =     0.00000000    0.00000000    0.00000000
     atom   40 type  3   force =     0.00000000    0.00000000    0.00000000
     atom   41 type  3   force =     0.00000000    0.00000000    0.00000000
     atom   42 type  3   force =     0.00000000    0.00000000    0.00000000
     atom   43 type  3   force =     0.00000000    0.00000000    0.00000000
     atom   44 type  2   force =     0.00000000    0.00000000    0.00000000
     The SCF correction term to forces
     atom    1 type  4   force =    -0.00000000   -0.00000430   -0.00000000
     atom    2 type  4   force =     0.00000000    0.00000814   -0.00000000
     atom    3 type  5   force =    -0.00000000    0.00002345   -0.00000000
     atom    4 type  5   force =    -0.00000000   -0.00001245   -0.00000000
     atom    5 type  5   force =    -0.00000000   -0.00001755    0.00000000
     atom    6 type  5   force =     0.00000000   -0.00001753    0.00000000
     atom    7 type  5   force =     0.00000000    0.00000930    0.00000000
     atom    8 type  7   force =     0.00000324   -0.00000124    0.00000334
     atom    9 type  7   force =    -0.00000324   -0.00000124   -0.00000334
     atom   10 type  7   force =     0.00000365   -0.00000010    0.00000772
     atom   11 type  7   force =    -0.00000365   -0.00000010   -0.00000772
     atom   12 type  7   force =     0.00000374   -0.00000149    0.00000106
     atom   13 type  7   force =    -0.00000374   -0.00000149   -0.00000106
     atom   14 type  1   force =     0.00000235   -0.00000038   -0.00000331
     atom   15 type  1   force =    -0.00000235   -0.00000038    0.00000331
     atom   16 type  6   force =     0.00000987    0.00000414    0.00000672
     atom   17 type  6   force =    -0.00000987    0.00000414   -0.00000672
     atom   18 type  6   force =    -0.00000271    0.00000222    0.00000326
     atom   19 type  6   force =     0.00000271    0.00000222   -0.00000326
     atom   20 type  6   force =    -0.00000141   -0.00000697   -0.00000488
     atom   21 type  6   force =     0.00000141   -0.00000697    0.00000488
     atom   22 type  6   force =     0.00001077   -0.00001067   -0.00001603
     atom   23 type  6   force =    -0.00001077   -0.00001067    0.00001603
     atom   24 type  6   force =     0.00000164    0.00000173   -0.00000316
     atom   25 type  6   force =    -0.00000164    0.00000173    0.00000316
     atom   26 type  6   force =    -0.00000084    0.00000727   -0.00000314
     atom   27 type  6   force =     0.00000084    0.00000727    0.00000314
     atom   28 type  6   force =    -0.00000375   -0.00000415    0.00000011
     atom   29 type  6   force =     0.00000375   -0.00000415   -0.00000011
     atom   30 type  6   force =    -0.00000205   -0.00000763   -0.00000496
     atom   31 type  6   force =     0.00000205   -0.00000763    0.00000496
     atom   32 type  6   force =    -0.00000084   -0.00000089   -0.00000016
     atom   33 type  6   force =     0.00000084   -0.00000089    0.00000016
     atom   34 type  6   force =    -0.00000136    0.00000186    0.00000224
     atom   35 type  6   force =     0.00000136    0.00000186   -0.00000224
     atom   36 type  6   force =     0.00000291   -0.00000528   -0.00000500
     atom   37 type  6   force =    -0.00000291   -0.00000528    0.00000500
     atom   38 type  6   force =    -0.00000708    0.00001178    0.00000565
     atom   39 type  6   force =     0.00000708    0.00001178   -0.00000565
     atom   40 type  3   force =     0.00000028   -0.00000042   -0.00000150
     atom   41 type  3   force =    -0.00000028   -0.00000042    0.00000150
     atom   42 type  3   force =    -0.00000046    0.00000086    0.00000185
     atom   43 type  3   force =     0.00000046    0.00000086   -0.00000185
     atom   44 type  2   force =     0.00000000    0.00002615    0.00000000

     DFT-D3 dispersion contribution to forces:
     atom    1 type  4   force =    -0.00000000    0.00110699    0.00000000
     atom    2 type  4   force =     0.00000000   -0.00112214   -0.00000000
     atom    3 type  5   force =    -0.00000000    0.00039508   -0.00000000
     atom    4 type  5   force =     0.00000000    0.00066815   -0.00000000
     atom    5 type  5   force =     0.00000000   -0.00112810   -0.00000000
     atom    6 type  5   force =    -0.00000000   -0.00051203    0.00000000
     atom    7 type  5   force =     0.00000000    0.00110350   -0.00000000
     atom    8 type  7   force =     0.00015737   -0.00007513   -0.00014905
     atom    9 type  7   force =    -0.00015737   -0.00007513    0.00014905
     atom   10 type  7   force =     0.00007850   -0.00003427    0.00024385
     atom   11 type  7   force =    -0.00007850   -0.00003427   -0.00024385
     atom   12 type  7   force =    -0.00001366    0.00017129   -0.00021159
     atom   13 type  7   force =     0.00001366    0.00017129    0.00021159
     atom   14 type  1   force =     0.00016840    0.00006442   -0.00103328
     atom   15 type  1   force =    -0.00016840    0.00006442    0.00103328
     atom   16 type  6   force =     0.00010645    0.00002675    0.00052279
     atom   17 type  6   force =    -0.00010645    0.00002675   -0.00052279
     atom   18 type  6   force =     0.00001408   -0.00002015   -0.00037718
     atom   19 type  6   force =    -0.00001408   -0.00002015    0.00037718
     atom   20 type  6   force =    -0.00001801   -0.00005314    0.00043148
     atom   21 type  6   force =     0.00001801   -0.00005314   -0.00043148
     atom   22 type  6   force =    -0.00000490   -0.00007291    0.00003624
     atom   23 type  6   force =     0.00000490   -0.00007291   -0.00003624
     atom   24 type  6   force =    -0.00022668    0.00107399    0.00030519
     atom   25 type  6   force =     0.00022668    0.00107399   -0.00030519
     atom   26 type  6   force =     0.00085265    0.00005259    0.00018189
     atom   27 type  6   force =    -0.00085265    0.00005259   -0.00018189
     atom   28 type  6   force =     0.00031837   -0.00050063    0.00004224
     atom   29 type  6   force =    -0.00031837   -0.00050063   -0.00004223
     atom   30 type  6   force =    -0.00020532    0.00032462   -0.00007191
     atom   31 type  6   force =     0.00020532    0.00032462    0.00007191
     atom   32 type  6   force =     0.00093784   -0.00042596    0.00040116
     atom   33 type  6   force =    -0.00093784   -0.00042596   -0.00040116
     atom   34 type  6   force =     0.00064703   -0.00049701   -0.00046327
     atom   35 type  6   force =    -0.00064703   -0.00049701    0.00046327
     atom   36 type  6   force =    -0.00003655   -0.00001374   -0.00051038
     atom   37 type  6   force =     0.00003655   -0.00001374    0.00051038
     atom   38 type  6   force =    -0.00002478    0.00012176   -0.00045154
     atom   39 type  6   force =     0.00002478    0.00012176    0.00045154
     atom   40 type  3   force =    -0.00001993    0.00006837   -0.00027424
     atom   41 type  3   force =     0.00001993    0.00006837    0.00027424
     atom   42 type  3   force =     0.00009147   -0.00044445   -0.00014385
     atom   43 type  3   force =    -0.00009147   -0.00044445    0.00014385
     atom   44 type  2   force =     0.00000000   -0.00004420   -0.00000000

     Total force =     0.002841     Total SCF correction =     0.000070

     DFT-D3 dispersion Force =     0.004538


     Computing stress (Cartesian axis) and pressure


     negative rho (up, down):  0.000E+00 4.570E-04
          total   stress  (Ry/bohr**3)                   (kbar)     P=       -0.22
  -0.00000200   0.00000000  -0.00000028           -0.29        0.00       -0.04
   0.00000000  -0.00000160   0.00000000            0.00       -0.24        0.00
  -0.00000028   0.00000000  -0.00000083           -0.04        0.00       -0.12

     kinetic stress (kbar)  20102.96      0.00     -5.17
                                0.00  20013.20      0.00
                               -5.17      0.00  19851.99

     local   stress (kbar) -40543.23     -0.00    -57.67
                               -0.00 -40081.60      0.00
                              -57.67      0.00  19119.94

     nonloc. stress (kbar)   3791.37      0.00     -4.19
                                0.00   3797.31      0.00
                               -4.19      0.00   3772.24

     hartree stress (kbar)  22854.04     -0.00     29.15
                               -0.00  22622.65      0.00
                               29.15      0.00  -6327.82

     exc-cor stress (kbar)  -2816.04      0.00      0.13
                                0.00  -2816.13     -0.00
                                0.13     -0.00  -2812.71

     corecor stress (kbar)  -1854.93     -0.00      0.17
                               -0.00  -1854.35      0.00
                                0.17      0.00  -1856.62

     ewald   stress (kbar)  -1519.90      0.00     37.45
                                0.00  -1666.63     -0.00
                               37.45     -0.00 -31736.26

     hubbard stress (kbar)      0.00      0.00      0.00
                                0.00      0.00      0.00
                                0.00      0.00      0.00

     DFT-D   stress (kbar)    -14.57     -0.00      0.08
                               -0.00    -14.69     -0.00
                                0.08     -0.00    -10.88

     XDM     stress (kbar)      0.00      0.00      0.00
                                0.00      0.00      0.00
                                0.00      0.00      0.00

     dft-nl  stress (kbar)      0.00      0.00      0.00
                                0.00      0.00      0.00
                                0.00      0.00      0.00

     TS-vdW  stress (kbar)      0.00      0.00      0.00
                                0.00      0.00      0.00
                                0.00      0.00      0.00

     MDB     stress (kbar)      0.00      0.00      0.00
                                0.00      0.00      0.00
                                0.00      0.00      0.00

     3D-RISM stress (kbar)      0.00      0.00      0.00
                                0.00      0.00      0.00
                                0.00      0.00      0.00


     Writing all to output data dir ./temp/phl-fe1-fe6.save/ :
     XML data file, charge density, pseudopotentials, collected wavefunctions

     init_run     :    162.27s CPU    167.44s WALL (       2 calls)
     electrons    :  56937.69s CPU  57835.72s WALL (      19 calls)
     update_pot   :     43.41s CPU     55.20s WALL (      17 calls)
     forces       :    934.73s CPU    962.71s WALL (      19 calls)
     force_dftd3  :     60.91s CPU     61.74s WALL (      19 calls)
     stress       :   7328.21s CPU   7397.61s WALL (      19 calls)
     stres_dftd3  :     60.57s CPU     60.70s WALL (      19 calls)

     Called by init_run:
     wfcinit      :    147.77s CPU    150.23s WALL (       2 calls)
     wfcinit:atom :      0.97s CPU      1.23s WALL (      80 calls)
     wfcinit:wfcr :    140.28s CPU    142.11s WALL (      80 calls)
     potinit      :      5.24s CPU      5.43s WALL (       2 calls)
     hinit0       :      2.02s CPU      3.25s WALL (       2 calls)

     Called by electrons:
     c_bands      :  50083.65s CPU  50715.25s WALL (     179 calls)
     sum_band     :   5965.52s CPU   6127.66s WALL (     179 calls)
     v_of_rho     :     95.64s CPU     99.18s WALL (     187 calls)
     v_h          :      4.58s CPU      4.73s WALL (     187 calls)
     v_xc         :    108.80s CPU    112.88s WALL (     225 calls)
     newd         :    461.42s CPU    553.61s WALL (     187 calls)
     PAW_pot      :    376.37s CPU    377.02s WALL (     204 calls)
     mix_rho      :     17.86s CPU     21.76s WALL (     179 calls)
     energy_dftd3 :     48.40s CPU     48.56s WALL (      19 calls)

     Called by c_bands:
     init_us_2    :    556.91s CPU    557.36s WALL (   16600 calls)
     cegterg      :  49429.91s CPU  50013.20s WALL (    7200 calls)

     Called by sum_band:
     sum_band:wei :      0.08s CPU      0.34s WALL (     179 calls)
     sum_band:loo :   4883.27s CPU   4938.37s WALL (     179 calls)
     sum_band:buf :     67.71s CPU     70.91s WALL (    7160 calls)
     sum_band:ini :    249.01s CPU    249.13s WALL (    7160 calls)
     sum_band:cal :   1724.97s CPU   1727.77s WALL (    7840 calls)
     sum_band:bec :      7.56s CPU      7.66s WALL (    7840 calls)
     addusdens    :   1068.39s CPU   1171.00s WALL (     179 calls)
                                        0.00s GPU  (     179 calls)
     addusd:skk   :      4.93s CPU      7.84s WALL (    1253 calls)
                                        0.00s GPU  (    1253 calls)

     Called by *egterg:
     cdiaghg      :   2909.52s CPU   2948.06s WALL (   52902 calls)
     cegterg:over :   5190.64s CPU   5196.02s WALL (   46862 calls)
     cegterg:upda :   4147.79s CPU   4168.97s WALL (   46862 calls)
     cegterg:last :   7784.23s CPU   7789.23s WALL (   21418 calls)
     cdiaghg:chol :    102.49s CPU    102.64s WALL (   52902 calls)
     cdiaghg:inve :     70.56s CPU     70.71s WALL (   52902 calls)
     cdiaghg:para :    758.35s CPU    773.97s WALL (  105804 calls)
     h_psi        :  22962.53s CPU  23351.80s WALL (   54142 calls)
     s_psi        :   5171.16s CPU   5175.53s WALL (   54142 calls)
     g_psi        :     99.16s CPU     99.41s WALL (   46862 calls)

     Called by h_psi:
     h_psi:calbec :   5414.04s CPU   5427.14s WALL (   54142 calls)
     vloc_psi     :  12212.23s CPU  12526.56s WALL (   54142 calls)
     add_vuspsi   :   5195.35s CPU   5201.20s WALL (   54142 calls)

     General routines
     calbec       :   7987.23s CPU   8004.41s WALL (   65782 calls)
     fft          :     71.76s CPU     76.59s WALL (    5436 calls)
     ffts         :      1.70s CPU      1.76s WALL (     732 calls)
     fftw         :   8174.05s CPU   8360.35s WALL ( 8563126 calls)
     interpolate  :      7.53s CPU      7.87s WALL (     374 calls)

     Parallel routines

     PAW routines
     PAW_pot      :    376.37s CPU    377.02s WALL (     204 calls)
     PAW_symme    :      0.20s CPU      0.22s WALL (     383 calls)

     PWSCF        :     18h14m CPU     18h31m WALL


   This run was terminated on:  19:38:34  15Jan2025            

=------------------------------------------------------------------------------=
   JOB DONE.
=------------------------------------------------------------------------------=
