 INFO
nunit      1    1    1
unit   cell
celltype   primcell
shape   parapipedal
 END_INFO
 DIM-GROUP
           3           1
 PRIMVEC
   10.6078495420    0.0000000000    0.0000000000
    0.0000000000    9.2236054200    0.0000000000
   -1.7967136720    0.0000000000   10.0341282960
 CONVVEC
   10.6078495420    0.0000000000    0.0000000000
    0.0000000000    9.2236054200    0.0000000000
   -1.7967136720    0.0000000000   10.0341282960
 PRIMCOORD
          88           1
 19     -0.0000059140     4.5933537740     0.0000003710    -0.0000040800    -0.0002674000    -0.0000002600
 19      5.3039333840     4.5933537740    -0.0000003710     0.0000040800    -0.0002674000     0.0000002600
 19      2.6519640530     0.0052911830     0.0000000000     0.0000000000     0.0002160800     0.0000000000
 19      7.9558912060     0.0052889480     0.0000000000     0.0000000000     0.0002113600     0.0000000000
 12      4.4055662450     0.0336957650     5.0170646660    -0.0000243800    -0.0000820100    -0.0000052500
 12     -0.8983542120     0.0336957650     5.0170663270     0.0000243800    -0.0000820100     0.0000052500
 12      4.4055625350     3.0587190030     5.0170777350    -0.0001700800    -0.0001360600     0.0000020300
 12     -0.8983505020     3.0587190030     5.0170532580     0.0001700800    -0.0001360600    -0.0000020300
 12      4.4055536050     6.1413757710     5.0170733370    -0.0001466000    -0.0001319000     0.0000120800
 12     -0.8983415720     6.1413757710     5.0170576560     0.0001466000    -0.0001319000    -0.0000120800
 12      1.7536058520     7.7102542030     5.0170654960     0.0000000000     0.0000376900     0.0000000000
 12      7.0575334820     7.7102533390     5.0170654960     0.0000000000     0.0001562100     0.0000000000
 12      1.7536058520     1.5555048540     5.0170654960     0.0000000000    -0.0000893900     0.0000000000
 12      7.0575334820     1.5555263950     5.0170654960     0.0000000000    -0.0002358700     0.0000000000
 26      1.7536058520     4.5420976410     5.0170654960     0.0000000000     0.0002628100     0.0000000000
 26      7.0575334820     4.5420939440     5.0170654960     0.0000000000     0.0002455700     0.0000000000
 14      0.0472782370     1.5196374170     2.2300003400     0.0000324300    -0.0000194200    -0.0003127100
 14      5.3512049950     1.5196352230     2.2299997170     0.0000089500    -0.0000155500    -0.0003117700
 14      3.4599331290     1.5196374170     7.8041303520    -0.0000324300    -0.0000194200     0.0003127100
 14      8.7638613960     1.5196352230     7.8041309750    -0.0000089500    -0.0000155500     0.0003117700
 14      3.5638747190     7.6965347960     7.7467819010     0.0001078900     0.0000768300     0.0001652500
 14      8.8678024740     7.6965374450     7.7467824860     0.0001215000     0.0000669900     0.0001601500
 14     -0.0566632170     7.6965347960     2.2873493920    -0.0001078900     0.0000768300    -0.0001652500
 14      5.2472644460     7.6965374450     2.2873488070    -0.0001215000     0.0000669900    -0.0001601500
 14      2.5951196570     6.1584744010     2.2693991740    -0.0000979300     0.0000398500    -0.0002081500
 14      7.8990481500     6.1584715400     2.2694014750    -0.0000920600     0.0000640300    -0.0002165800
 14      0.9120918450     6.1584744010     7.7647321200     0.0000979300     0.0000398500     0.0002081500
 14      6.2160181330     6.1584715400     7.7647298190     0.0000920600     0.0000640300     0.0002165800
 13      0.8028652890     3.0527019510     7.7890143320    -0.0000300700    -0.0000608000    -0.0001529200
 13      6.1067921490     3.0527049420     7.7890144610    -0.0000368700    -0.0000792700    -0.0001324300
 13      2.7043458440     3.0527019510     2.2451163600     0.0000300700    -0.0000608000     0.0001529200
 13      8.0082742420     3.0527049420     2.2451162310     0.0000368700    -0.0000792700     0.0001324300
  8     -0.0126051020     1.4996518810     3.8610717910    -0.0000567700    -0.0000684900    -0.0005144100
  8      5.2913260980     1.4996480920     3.8610751700    -0.0000895200    -0.0000838800    -0.0005154900
  8      3.5198165330     1.4996518810     6.1730586000     0.0000567700    -0.0000684900     0.0005144100
  8      8.8237397110     1.4996480920     6.1730552200     0.0000895200    -0.0000838800     0.0005154900
  8      3.5375113390     7.6850895240     6.1292938280    -0.0000662700     0.0001537700     0.0000815000
  8      8.8414352840     7.6850896210     6.1292890410    -0.0000649500     0.0001653700     0.0000858900
  8     -0.0302996750     7.6850895240     3.9048365620     0.0000662700     0.0001537700    -0.0000815000
  8      5.2736311610     7.6850896210     3.9048413490     0.0000649500     0.0001653700    -0.0000858900
  8      2.6352886980     6.2202806430     3.8925680110     0.0001573000    -0.0000040800    -0.0003295700
  8      7.9392105780     6.2202840100     3.8925845310     0.0001236200    -0.0000055300    -0.0003681700
  8      0.8719231790     6.2202806430     6.1415620790    -0.0001573000    -0.0000040800     0.0003295700
  8      6.1758559210     6.2202840100     6.1415455590    -0.0001236200    -0.0000055300     0.0003681700
  8      0.8233791480     3.0267022040     6.0546743750    -0.0001871600    -0.0000455200    -0.0001170700
  8      6.1273048820     3.0266970620     6.0546655120    -0.0001302900    -0.0000457400    -0.0000539100
  8      2.6838324080     3.0267022040     3.9794566170     0.0001871600    -0.0000455200     0.0001170700
  8      7.9877614550     3.0266970620     3.9794654810     0.0001302900    -0.0000457400     0.0000539100
  8      1.5293646800     1.8701181690     1.6570071150     0.0002366200     0.0000725200     0.0001389100
  8      6.8332892630     1.8701123260     1.6570099160     0.0002479600     0.0000706700     0.0001089300
  8      1.9778469300     1.8701181690     8.3771235770    -0.0002366200     0.0000725200    -0.0001389100
  8      7.2817777650     1.8701123260     8.3771207760    -0.0002479600     0.0000706700    -0.0001089300
  8      4.9864991280     9.1978278940     1.6758615980     0.0000707200     0.0001632000    -0.0002356700
  8     10.2904269220     9.1978306990     1.6758535650     0.0000622500     0.0001580100    -0.0002322200
  8     -1.4792877140     9.1978278940     8.3582695350    -0.0000707200     0.0001632000     0.0002356700
  8      3.8246393900     9.1978306990     8.3582775680    -0.0000622500     0.0001580100     0.0002322200
  8      2.1220598540     7.1514367120     8.3529552540     0.0002820400    -0.0003979200    -0.0002917900
  8      7.4259867590     7.1514396440     8.3529524860     0.0002538700    -0.0004143500    -0.0002831200
  8      1.3851516240     7.1514367120     1.6811752870    -0.0002820400    -0.0003979200     0.0002917900
  8      6.6890802960     7.1514396440     1.6811780550    -0.0002538700    -0.0004143500     0.0002831200
  8      4.0357083700     6.7531138530     1.6669055700    -0.0002880500     0.0002174900     0.0002402400
  8      9.3396386740     6.7531164870     1.6669096080    -0.0003147700     0.0001994400     0.0002668500
  8     -0.5284968410     6.7531138530     8.3672255730     0.0002880500     0.0002174900    -0.0002402400
  8      4.7754276360     6.7531164870     8.3672215350     0.0003147700     0.0001994400    -0.0002668500
  8      2.3503741850     4.6877188410     1.6407191100    -0.0001612400    -0.0004907600    -0.0001226700
  8      7.6542985590     4.6877196090     1.6407179340    -0.0001519600    -0.0004808200    -0.0000944500
  8      1.1568372740     4.6877188410     8.3934115920     0.0001612400    -0.0004907600     0.0001226700
  8      6.4607684570     4.6877196090     8.3934127680     0.0001519600    -0.0004808200     0.0000944500
  8     -0.7591095340     2.5500432140     8.4394327720     0.0000906800     0.0003661100     0.0000750500
  8      4.5448131420     2.5500418740     8.4394318400     0.0000979900     0.0003884200     0.0000672000
  8      4.2663208770     2.5500432140     1.5946985220    -0.0000906800     0.0003661100    -0.0000750500
  8      9.5702531420     2.5500418740     1.5946994540    -0.0000979900     0.0003884200    -0.0000672000
  8     -0.0766827130     4.6439454160     3.9298742890     0.0004019200    -0.0000590500    -0.0006308800
  8      5.2272249740     4.6439444940     3.9298626850     0.0003057000    -0.0000449600    -0.0006829900
  8      3.5838941000     4.6439454160     6.1042561120    -0.0004019200    -0.0000590500     0.0006308800
  8      8.8878408440     4.6439444940     6.1042677150    -0.0003057000    -0.0000449600     0.0006829900
  8      2.6461695600     9.2153844410     3.9813048740     0.0001355600     0.0000353800     0.0000368900
  8      7.9500969780     9.2153824370     3.9813112890     0.0001535600     0.0000198400     0.0000113600
  8      0.8610420470     9.2153844410     6.0528267200    -0.0001355600     0.0000353800    -0.0000368900
  8      6.1649698890     9.2153824370     6.0528203060    -0.0001535600     0.0000198400    -0.0000113600
  1      0.0177501270     4.5575299340     2.9721710790    -0.0003231900    -0.0000548200     0.0001757000
  1      5.3216789240     4.5575281440     2.9721636180    -0.0003343100    -0.0000517400     0.0001722500
  1      3.4894613860     4.5575299340     7.0619602140     0.0003231900    -0.0000548200    -0.0001757000
  1      8.7933873590     4.5575281440     7.0619676760     0.0003343100    -0.0000517400    -0.0001722500
  1      2.6218008840     0.1537194800     3.0297173030    -0.0000939400     0.0001930000    -0.0001171600
  1      7.9257276950     0.1537196880     3.0297170390    -0.0000915500     0.0001869200    -0.0001071200
  1      0.8854105670     0.1537194800     7.0044133890     0.0000939400     0.0001930000     0.0001171600
  1      6.1893380710     0.1537196880     7.0044136530     0.0000915500     0.0001869200     0.0001071200
 CONVCOORD
          88           1
 19     -0.0000059140     4.5933537740     0.0000003710
 19      5.3039333840     4.5933537740    -0.0000003710
 19      2.6519640530     0.0052911830     0.0000000000
 19      7.9558912060     0.0052889480     0.0000000000
 12      4.4055662450     0.0336957650     5.0170646660
 12     -0.8983542120     0.0336957650     5.0170663270
 12      4.4055625350     3.0587190030     5.0170777350
 12     -0.8983505020     3.0587190030     5.0170532580
 12      4.4055536050     6.1413757710     5.0170733370
 12     -0.8983415720     6.1413757710     5.0170576560
 12      1.7536058520     7.7102542030     5.0170654960
 12      7.0575334820     7.7102533390     5.0170654960
 12      1.7536058520     1.5555048540     5.0170654960
 12      7.0575334820     1.5555263950     5.0170654960
 26      1.7536058520     4.5420976410     5.0170654960
 26      7.0575334820     4.5420939440     5.0170654960
 14      0.0472782370     1.5196374170     2.2300003400
 14      5.3512049950     1.5196352230     2.2299997170
 14      3.4599331290     1.5196374170     7.8041303520
 14      8.7638613960     1.5196352230     7.8041309750
 14      3.5638747190     7.6965347960     7.7467819010
 14      8.8678024740     7.6965374450     7.7467824860
 14     -0.0566632170     7.6965347960     2.2873493920
 14      5.2472644460     7.6965374450     2.2873488070
 14      2.5951196570     6.1584744010     2.2693991740
 14      7.8990481500     6.1584715400     2.2694014750
 14      0.9120918450     6.1584744010     7.7647321200
 14      6.2160181330     6.1584715400     7.7647298190
 13      0.8028652890     3.0527019510     7.7890143320
 13      6.1067921490     3.0527049420     7.7890144610
 13      2.7043458440     3.0527019510     2.2451163600
 13      8.0082742420     3.0527049420     2.2451162310
  8     -0.0126051020     1.4996518810     3.8610717910
  8      5.2913260980     1.4996480920     3.8610751700
  8      3.5198165330     1.4996518810     6.1730586000
  8      8.8237397110     1.4996480920     6.1730552200
  8      3.5375113390     7.6850895240     6.1292938280
  8      8.8414352840     7.6850896210     6.1292890410
  8     -0.0302996750     7.6850895240     3.9048365620
  8      5.2736311610     7.6850896210     3.9048413490
  8      2.6352886980     6.2202806430     3.8925680110
  8      7.9392105780     6.2202840100     3.8925845310
  8      0.8719231790     6.2202806430     6.1415620790
  8      6.1758559210     6.2202840100     6.1415455590
  8      0.8233791480     3.0267022040     6.0546743750
  8      6.1273048820     3.0266970620     6.0546655120
  8      2.6838324080     3.0267022040     3.9794566170
  8      7.9877614550     3.0266970620     3.9794654810
  8      1.5293646800     1.8701181690     1.6570071150
  8      6.8332892630     1.8701123260     1.6570099160
  8      1.9778469300     1.8701181690     8.3771235770
  8      7.2817777650     1.8701123260     8.3771207760
  8      4.9864991280     9.1978278940     1.6758615980
  8     10.2904269220     9.1978306990     1.6758535650
  8     -1.4792877140     9.1978278940     8.3582695350
  8      3.8246393900     9.1978306990     8.3582775680
  8      2.1220598540     7.1514367120     8.3529552540
  8      7.4259867590     7.1514396440     8.3529524860
  8      1.3851516240     7.1514367120     1.6811752870
  8      6.6890802960     7.1514396440     1.6811780550
  8      4.0357083700     6.7531138530     1.6669055700
  8      9.3396386740     6.7531164870     1.6669096080
  8     -0.5284968410     6.7531138530     8.3672255730
  8      4.7754276360     6.7531164870     8.3672215350
  8      2.3503741850     4.6877188410     1.6407191100
  8      7.6542985590     4.6877196090     1.6407179340
  8      1.1568372740     4.6877188410     8.3934115920
  8      6.4607684570     4.6877196090     8.3934127680
  8     -0.7591095340     2.5500432140     8.4394327720
  8      4.5448131420     2.5500418740     8.4394318400
  8      4.2663208770     2.5500432140     1.5946985220
  8      9.5702531420     2.5500418740     1.5946994540
  8     -0.0766827130     4.6439454160     3.9298742890
  8      5.2272249740     4.6439444940     3.9298626850
  8      3.5838941000     4.6439454160     6.1042561120
  8      8.8878408440     4.6439444940     6.1042677150
  8      2.6461695600     9.2153844410     3.9813048740
  8      7.9500969780     9.2153824370     3.9813112890
  8      0.8610420470     9.2153844410     6.0528267200
  8      6.1649698890     9.2153824370     6.0528203060
  1      0.0177501270     4.5575299340     2.9721710790
  1      5.3216789240     4.5575281440     2.9721636180
  1      3.4894613860     4.5575299340     7.0619602140
  1      8.7933873590     4.5575281440     7.0619676760
  1      2.6218008840     0.1537194800     3.0297173030
  1      7.9257276950     0.1537196880     3.0297170390
  1      0.8854105670     0.1537194800     7.0044133890
  1      6.1893380710     0.1537196880     7.0044136530
 RECIP-PRIMVEC
    0.0942698137   -0.0000000000    0.0168799778

    0.0000000000    0.1084174739   -0.0000000000

    0.0000000000    0.0000000000    0.0996598778

 RECIP-CONVVEC
    0.0942698137   -0.0000000000    0.0168799778

    0.0000000000    0.1084174739   -0.0000000000

    0.0000000000    0.0000000000    0.0996598778

 WIGNER-SEITZ-PRIMCELL
           6
 -0.5303925E+01 -0.4611803E+01  0.4228202E+01   0.1844577E-15 -0.1000000E+01  0.2338275E-15
 -0.5303925E+01 -0.4611803E+01 -0.4228202E+01   0.1844577E-15 -0.1000000E+01  0.2338275E-15
 -0.3507211E+01 -0.4611803E+01 -0.5805926E+01   0.1844577E-15 -0.1000000E+01  0.2338275E-15
  0.5303925E+01 -0.4611803E+01 -0.4228202E+01   0.1844577E-15 -0.1000000E+01  0.2338275E-15
  0.5303925E+01 -0.4611803E+01  0.4228202E+01   0.1844577E-15 -0.1000000E+01  0.2338275E-15
  0.3507211E+01 -0.4611803E+01  0.5805926E+01   0.1844577E-15 -0.1000000E+01  0.2338275E-15
           4
  0.3507211E+01 -0.4611803E+01  0.5805926E+01   0.6598300E+00  0.7815686E-17  0.7514149E+00
  0.5303925E+01 -0.4611803E+01  0.4228202E+01   0.6598300E+00  0.7815686E-17  0.7514149E+00
  0.5303925E+01  0.4611803E+01  0.4228202E+01   0.6598300E+00  0.7815686E-17  0.7514149E+00
  0.3507211E+01  0.4611803E+01  0.5805926E+01   0.6598300E+00  0.7815686E-17  0.7514149E+00
           4
  0.3507211E+01  0.4611803E+01  0.5805926E+01  -0.1762569E+00 -0.1096636E-15  0.9843442E+00
 -0.5303925E+01  0.4611803E+01  0.4228202E+01  -0.1762569E+00 -0.1096636E-15  0.9843442E+00
 -0.5303925E+01 -0.4611803E+01  0.4228202E+01  -0.1762569E+00 -0.1096636E-15  0.9843442E+00
  0.3507211E+01 -0.4611803E+01  0.5805926E+01  -0.1762569E+00 -0.1096636E-15  0.9843442E+00
           4
  0.5303925E+01 -0.4611803E+01  0.4228202E+01   0.1000000E+01 -0.9629406E-16  0.1050303E-15
  0.5303925E+01 -0.4611803E+01 -0.4228202E+01   0.1000000E+01 -0.9629406E-16  0.1050303E-15
  0.5303925E+01  0.4611803E+01 -0.4228202E+01   0.1000000E+01 -0.9629406E-16  0.1050303E-15
  0.5303925E+01  0.4611803E+01  0.4228202E+01   0.1000000E+01 -0.9629406E-16  0.1050303E-15
           4
 -0.5303925E+01  0.4611803E+01  0.4228202E+01  -0.1000000E+01 -0.9629406E-16  0.1050303E-15
 -0.5303925E+01  0.4611803E+01 -0.4228202E+01  -0.1000000E+01 -0.9629406E-16  0.1050303E-15
 -0.5303925E+01 -0.4611803E+01 -0.4228202E+01  -0.1000000E+01 -0.9629406E-16  0.1050303E-15
 -0.5303925E+01 -0.4611803E+01  0.4228202E+01  -0.1000000E+01 -0.9629406E-16  0.1050303E-15
           4
  0.5303925E+01 -0.4611803E+01 -0.4228202E+01   0.1762569E+00  0.9819605E-17 -0.9843442E+00
 -0.3507211E+01 -0.4611803E+01 -0.5805926E+01   0.1762569E+00  0.9819605E-17 -0.9843442E+00
 -0.3507211E+01  0.4611803E+01 -0.5805926E+01   0.1762569E+00  0.9819605E-17 -0.9843442E+00
  0.5303925E+01  0.4611803E+01 -0.4228202E+01   0.1762569E+00  0.9819605E-17 -0.9843442E+00
           4
 -0.3507211E+01  0.4611803E+01 -0.5805926E+01  -0.6598300E+00  0.2416305E-15 -0.7514149E+00
 -0.3507211E+01 -0.4611803E+01 -0.5805926E+01  -0.6598300E+00  0.2416305E-15 -0.7514149E+00
 -0.5303925E+01 -0.4611803E+01 -0.4228202E+01  -0.6598300E+00  0.2416305E-15 -0.7514149E+00
 -0.5303925E+01  0.4611803E+01 -0.4228202E+01  -0.6598300E+00  0.2416305E-15 -0.7514149E+00
           6
  0.3507211E+01  0.4611803E+01  0.5805926E+01   0.0000000E+00  0.1000000E+01  0.0000000E+00
  0.5303925E+01  0.4611803E+01  0.4228202E+01   0.0000000E+00  0.1000000E+01  0.0000000E+00
  0.5303925E+01  0.4611803E+01 -0.4228202E+01   0.0000000E+00  0.1000000E+01  0.0000000E+00
 -0.3507211E+01  0.4611803E+01 -0.5805926E+01   0.0000000E+00  0.1000000E+01  0.0000000E+00
 -0.5303925E+01  0.4611803E+01 -0.4228202E+01   0.0000000E+00  0.1000000E+01  0.0000000E+00
 -0.5303925E+01  0.4611803E+01  0.4228202E+01   0.0000000E+00  0.1000000E+01  0.0000000E+00
 WIGNER-SEITZ-PRIMCELL_END
 WIGNER-SEITZ-CONVCELL
           6
 -0.5303925E+01 -0.4611803E+01  0.4228202E+01   0.1844577E-15 -0.1000000E+01  0.2338275E-15
 -0.5303925E+01 -0.4611803E+01 -0.4228202E+01   0.1844577E-15 -0.1000000E+01  0.2338275E-15
 -0.3507211E+01 -0.4611803E+01 -0.5805926E+01   0.1844577E-15 -0.1000000E+01  0.2338275E-15
  0.5303925E+01 -0.4611803E+01 -0.4228202E+01   0.1844577E-15 -0.1000000E+01  0.2338275E-15
  0.5303925E+01 -0.4611803E+01  0.4228202E+01   0.1844577E-15 -0.1000000E+01  0.2338275E-15
  0.3507211E+01 -0.4611803E+01  0.5805926E+01   0.1844577E-15 -0.1000000E+01  0.2338275E-15
           4
  0.3507211E+01 -0.4611803E+01  0.5805926E+01   0.6598300E+00  0.7815686E-17  0.7514149E+00
  0.5303925E+01 -0.4611803E+01  0.4228202E+01   0.6598300E+00  0.7815686E-17  0.7514149E+00
  0.5303925E+01  0.4611803E+01  0.4228202E+01   0.6598300E+00  0.7815686E-17  0.7514149E+00
  0.3507211E+01  0.4611803E+01  0.5805926E+01   0.6598300E+00  0.7815686E-17  0.7514149E+00
           4
  0.3507211E+01  0.4611803E+01  0.5805926E+01  -0.1762569E+00 -0.1096636E-15  0.9843442E+00
 -0.5303925E+01  0.4611803E+01  0.4228202E+01  -0.1762569E+00 -0.1096636E-15  0.9843442E+00
 -0.5303925E+01 -0.4611803E+01  0.4228202E+01  -0.1762569E+00 -0.1096636E-15  0.9843442E+00
  0.3507211E+01 -0.4611803E+01  0.5805926E+01  -0.1762569E+00 -0.1096636E-15  0.9843442E+00
           4
  0.5303925E+01 -0.4611803E+01  0.4228202E+01   0.1000000E+01 -0.9629406E-16  0.1050303E-15
  0.5303925E+01 -0.4611803E+01 -0.4228202E+01   0.1000000E+01 -0.9629406E-16  0.1050303E-15
  0.5303925E+01  0.4611803E+01 -0.4228202E+01   0.1000000E+01 -0.9629406E-16  0.1050303E-15
  0.5303925E+01  0.4611803E+01  0.4228202E+01   0.1000000E+01 -0.9629406E-16  0.1050303E-15
           4
 -0.5303925E+01  0.4611803E+01  0.4228202E+01  -0.1000000E+01 -0.9629406E-16  0.1050303E-15
 -0.5303925E+01  0.4611803E+01 -0.4228202E+01  -0.1000000E+01 -0.9629406E-16  0.1050303E-15
 -0.5303925E+01 -0.4611803E+01 -0.4228202E+01  -0.1000000E+01 -0.9629406E-16  0.1050303E-15
 -0.5303925E+01 -0.4611803E+01  0.4228202E+01  -0.1000000E+01 -0.9629406E-16  0.1050303E-15
           4
  0.5303925E+01 -0.4611803E+01 -0.4228202E+01   0.1762569E+00  0.9819605E-17 -0.9843442E+00
 -0.3507211E+01 -0.4611803E+01 -0.5805926E+01   0.1762569E+00  0.9819605E-17 -0.9843442E+00
 -0.3507211E+01  0.4611803E+01 -0.5805926E+01   0.1762569E+00  0.9819605E-17 -0.9843442E+00
  0.5303925E+01  0.4611803E+01 -0.4228202E+01   0.1762569E+00  0.9819605E-17 -0.9843442E+00
           4
 -0.3507211E+01  0.4611803E+01 -0.5805926E+01  -0.6598300E+00  0.2416305E-15 -0.7514149E+00
 -0.3507211E+01 -0.4611803E+01 -0.5805926E+01  -0.6598300E+00  0.2416305E-15 -0.7514149E+00
 -0.5303925E+01 -0.4611803E+01 -0.4228202E+01  -0.6598300E+00  0.2416305E-15 -0.7514149E+00
 -0.5303925E+01  0.4611803E+01 -0.4228202E+01  -0.6598300E+00  0.2416305E-15 -0.7514149E+00
           6
  0.3507211E+01  0.4611803E+01  0.5805926E+01   0.0000000E+00  0.1000000E+01  0.0000000E+00
  0.5303925E+01  0.4611803E+01  0.4228202E+01   0.0000000E+00  0.1000000E+01  0.0000000E+00
  0.5303925E+01  0.4611803E+01 -0.4228202E+01   0.0000000E+00  0.1000000E+01  0.0000000E+00
 -0.3507211E+01  0.4611803E+01 -0.5805926E+01   0.0000000E+00  0.1000000E+01  0.0000000E+00
 -0.5303925E+01  0.4611803E+01 -0.4228202E+01   0.0000000E+00  0.1000000E+01  0.0000000E+00
 -0.5303925E+01  0.4611803E+01  0.4228202E+01   0.0000000E+00  0.1000000E+01  0.0000000E+00
 WIGNER-SEITZ-CONVCELL_END
 BRILLOUIN-ZONE-PRIMCELL
           4
 -0.5454620E-01  0.5420874E-01  0.3294996E-01  -0.9843442E+00 -0.3567421E-16 -0.1762569E+00
 -0.3972361E-01  0.5420874E-01 -0.4982994E-01  -0.9843442E+00 -0.3567421E-16 -0.1762569E+00
 -0.3972361E-01 -0.5420874E-01 -0.4982994E-01  -0.9843442E+00 -0.3567421E-16 -0.1762569E+00
 -0.5454620E-01 -0.5420874E-01  0.3294996E-01  -0.9843442E+00 -0.3567421E-16 -0.1762569E+00
           4
 -0.5454620E-01  0.5420874E-01  0.3294996E-01  -0.7514149E+00  0.4451629E-16  0.6598300E+00
 -0.5454620E-01 -0.5420874E-01  0.3294996E-01  -0.7514149E+00  0.4451629E-16  0.6598300E+00
 -0.3972361E-01 -0.5420874E-01  0.4982994E-01  -0.7514149E+00  0.4451629E-16  0.6598300E+00
 -0.3972361E-01  0.5420874E-01  0.4982994E-01  -0.7514149E+00  0.4451629E-16  0.6598300E+00
           6
  0.3972361E-01 -0.5420874E-01  0.4982994E-01  -0.0000000E+00 -0.1000000E+01 -0.6467697E-15
 -0.3972361E-01 -0.5420874E-01  0.4982994E-01  -0.0000000E+00 -0.1000000E+01 -0.6467697E-15
 -0.5454620E-01 -0.5420874E-01  0.3294996E-01  -0.0000000E+00 -0.1000000E+01 -0.6467697E-15
 -0.3972361E-01 -0.5420874E-01 -0.4982994E-01  -0.0000000E+00 -0.1000000E+01 -0.6467697E-15
  0.3972361E-01 -0.5420874E-01 -0.4982994E-01  -0.0000000E+00 -0.1000000E+01 -0.6467697E-15
  0.5454620E-01 -0.5420874E-01 -0.3294996E-01  -0.0000000E+00 -0.1000000E+01 -0.6467697E-15
           4
 -0.3972361E-01 -0.5420874E-01 -0.4982994E-01   0.1612543E-15  0.1006983E-15 -0.1000000E+01
 -0.3972361E-01  0.5420874E-01 -0.4982994E-01   0.1612543E-15  0.1006983E-15 -0.1000000E+01
  0.3972361E-01  0.5420874E-01 -0.4982994E-01   0.1612543E-15  0.1006983E-15 -0.1000000E+01
  0.3972361E-01 -0.5420874E-01 -0.4982994E-01   0.1612543E-15  0.1006983E-15 -0.1000000E+01
           4
 -0.3972361E-01 -0.5420874E-01  0.4982994E-01  -0.1006983E-15 -0.0000000E+00  0.1000000E+01
  0.3972361E-01 -0.5420874E-01  0.4982994E-01  -0.1006983E-15 -0.0000000E+00  0.1000000E+01
  0.3972361E-01  0.5420874E-01  0.4982994E-01  -0.1006983E-15 -0.0000000E+00  0.1000000E+01
 -0.3972361E-01  0.5420874E-01  0.4982994E-01  -0.1006983E-15 -0.0000000E+00  0.1000000E+01
           6
  0.5454620E-01  0.5420874E-01 -0.3294996E-01   0.0000000E+00  0.1000000E+01 -0.0000000E+00
  0.3972361E-01  0.5420874E-01 -0.4982994E-01   0.0000000E+00  0.1000000E+01 -0.0000000E+00
 -0.3972361E-01  0.5420874E-01 -0.4982994E-01   0.0000000E+00  0.1000000E+01 -0.0000000E+00
 -0.5454620E-01  0.5420874E-01  0.3294996E-01   0.0000000E+00  0.1000000E+01 -0.0000000E+00
 -0.3972361E-01  0.5420874E-01  0.4982994E-01   0.0000000E+00  0.1000000E+01 -0.0000000E+00
  0.3972361E-01  0.5420874E-01  0.4982994E-01   0.0000000E+00  0.1000000E+01 -0.0000000E+00
           4
  0.5454620E-01  0.5420874E-01 -0.3294996E-01   0.7514149E+00 -0.8903257E-16 -0.6598300E+00
  0.5454620E-01 -0.5420874E-01 -0.3294996E-01   0.7514149E+00 -0.8903257E-16 -0.6598300E+00
  0.3972361E-01 -0.5420874E-01 -0.4982994E-01   0.7514149E+00 -0.8903257E-16 -0.6598300E+00
  0.3972361E-01  0.5420874E-01 -0.4982994E-01   0.7514149E+00 -0.8903257E-16 -0.6598300E+00
           4
  0.3972361E-01 -0.5420874E-01  0.4982994E-01   0.9843442E+00 -0.2378280E-16  0.1762569E+00
  0.5454620E-01 -0.5420874E-01 -0.3294996E-01   0.9843442E+00 -0.2378280E-16  0.1762569E+00
  0.5454620E-01  0.5420874E-01 -0.3294996E-01   0.9843442E+00 -0.2378280E-16  0.1762569E+00
  0.3972361E-01  0.5420874E-01  0.4982994E-01   0.9843442E+00 -0.2378280E-16  0.1762569E+00
 BRILLOUIN-ZONE-PRIMCELL_END
 BRILLOUIN-ZONE-CONVCELL
           4
 -0.5454620E-01  0.5420874E-01  0.3294996E-01  -0.9843442E+00 -0.3567421E-16 -0.1762569E+00
 -0.3972361E-01  0.5420874E-01 -0.4982994E-01  -0.9843442E+00 -0.3567421E-16 -0.1762569E+00
 -0.3972361E-01 -0.5420874E-01 -0.4982994E-01  -0.9843442E+00 -0.3567421E-16 -0.1762569E+00
 -0.5454620E-01 -0.5420874E-01  0.3294996E-01  -0.9843442E+00 -0.3567421E-16 -0.1762569E+00
           4
 -0.5454620E-01  0.5420874E-01  0.3294996E-01  -0.7514149E+00  0.4451629E-16  0.6598300E+00
 -0.5454620E-01 -0.5420874E-01  0.3294996E-01  -0.7514149E+00  0.4451629E-16  0.6598300E+00
 -0.3972361E-01 -0.5420874E-01  0.4982994E-01  -0.7514149E+00  0.4451629E-16  0.6598300E+00
 -0.3972361E-01  0.5420874E-01  0.4982994E-01  -0.7514149E+00  0.4451629E-16  0.6598300E+00
           6
  0.3972361E-01 -0.5420874E-01  0.4982994E-01  -0.0000000E+00 -0.1000000E+01 -0.6467697E-15
 -0.3972361E-01 -0.5420874E-01  0.4982994E-01  -0.0000000E+00 -0.1000000E+01 -0.6467697E-15
 -0.5454620E-01 -0.5420874E-01  0.3294996E-01  -0.0000000E+00 -0.1000000E+01 -0.6467697E-15
 -0.3972361E-01 -0.5420874E-01 -0.4982994E-01  -0.0000000E+00 -0.1000000E+01 -0.6467697E-15
  0.3972361E-01 -0.5420874E-01 -0.4982994E-01  -0.0000000E+00 -0.1000000E+01 -0.6467697E-15
  0.5454620E-01 -0.5420874E-01 -0.3294996E-01  -0.0000000E+00 -0.1000000E+01 -0.6467697E-15
           4
 -0.3972361E-01 -0.5420874E-01 -0.4982994E-01   0.1612543E-15  0.1006983E-15 -0.1000000E+01
 -0.3972361E-01  0.5420874E-01 -0.4982994E-01   0.1612543E-15  0.1006983E-15 -0.1000000E+01
  0.3972361E-01  0.5420874E-01 -0.4982994E-01   0.1612543E-15  0.1006983E-15 -0.1000000E+01
  0.3972361E-01 -0.5420874E-01 -0.4982994E-01   0.1612543E-15  0.1006983E-15 -0.1000000E+01
           4
 -0.3972361E-01 -0.5420874E-01  0.4982994E-01  -0.1006983E-15 -0.0000000E+00  0.1000000E+01
  0.3972361E-01 -0.5420874E-01  0.4982994E-01  -0.1006983E-15 -0.0000000E+00  0.1000000E+01
  0.3972361E-01  0.5420874E-01  0.4982994E-01  -0.1006983E-15 -0.0000000E+00  0.1000000E+01
 -0.3972361E-01  0.5420874E-01  0.4982994E-01  -0.1006983E-15 -0.0000000E+00  0.1000000E+01
           6
  0.5454620E-01  0.5420874E-01 -0.3294996E-01   0.0000000E+00  0.1000000E+01 -0.0000000E+00
  0.3972361E-01  0.5420874E-01 -0.4982994E-01   0.0000000E+00  0.1000000E+01 -0.0000000E+00
 -0.3972361E-01  0.5420874E-01 -0.4982994E-01   0.0000000E+00  0.1000000E+01 -0.0000000E+00
 -0.5454620E-01  0.5420874E-01  0.3294996E-01   0.0000000E+00  0.1000000E+01 -0.0000000E+00
 -0.3972361E-01  0.5420874E-01  0.4982994E-01   0.0000000E+00  0.1000000E+01 -0.0000000E+00
  0.3972361E-01  0.5420874E-01  0.4982994E-01   0.0000000E+00  0.1000000E+01 -0.0000000E+00
           4
  0.5454620E-01  0.5420874E-01 -0.3294996E-01   0.7514149E+00 -0.8903257E-16 -0.6598300E+00
  0.5454620E-01 -0.5420874E-01 -0.3294996E-01   0.7514149E+00 -0.8903257E-16 -0.6598300E+00
  0.3972361E-01 -0.5420874E-01 -0.4982994E-01   0.7514149E+00 -0.8903257E-16 -0.6598300E+00
  0.3972361E-01  0.5420874E-01 -0.4982994E-01   0.7514149E+00 -0.8903257E-16 -0.6598300E+00
           4
  0.3972361E-01 -0.5420874E-01  0.4982994E-01   0.9843442E+00 -0.2378280E-16  0.1762569E+00
  0.5454620E-01 -0.5420874E-01 -0.3294996E-01   0.9843442E+00 -0.2378280E-16  0.1762569E+00
  0.5454620E-01  0.5420874E-01 -0.3294996E-01   0.9843442E+00 -0.2378280E-16  0.1762569E+00
  0.3972361E-01  0.5420874E-01  0.4982994E-01   0.9843442E+00 -0.2378280E-16  0.1762569E+00
 BRILLOUIN-ZONE-CONVCELL_END
 ATOMS
   19   -0.0000059140    4.5933537740    0.0000003710   -0.0000040800   -0.0002674000   -0.0000002600
   19    5.3039333840    4.5933537740   -0.0000003710    0.0000040800   -0.0002674000    0.0000002600
   19    2.6519640530    0.0052911830    0.0000000000    0.0000000000    0.0002160800    0.0000000000
   19    7.9558912060    0.0052889480    0.0000000000    0.0000000000    0.0002113600    0.0000000000
   12    4.4055662450    0.0336957650    5.0170646660   -0.0000243800   -0.0000820100   -0.0000052500
   12   -0.8983542120    0.0336957650    5.0170663270    0.0000243800   -0.0000820100    0.0000052500
   12    4.4055625350    3.0587190030    5.0170777350   -0.0001700800   -0.0001360600    0.0000020300
   12   -0.8983505020    3.0587190030    5.0170532580    0.0001700800   -0.0001360600   -0.0000020300
   12    4.4055536050    6.1413757710    5.0170733370   -0.0001466000   -0.0001319000    0.0000120800