
     Program PWSCF v.7.3.1 starts on 22Dec2024 at 15:33:35 

     This program is part of the open-source Quantum ESPRESSO suite
     for quantum simulation of materials; please cite
         "P. Giannozzi et al., J. Phys.:Condens. Matter 21 395502 (2009);
         "P. Giannozzi et al., J. Phys.:Condens. Matter 29 465901 (2017);
         "P. Giannozzi et al., J. Chem. Phys. 152 154105 (2020);
          URL http://www.quantum-espresso.org", 
     in publications or presentations arising from this work. More details at
     http://www.quantum-espresso.org/quote

     Parallel version (MPI), running on    12 processors

     MPI processes distributed on     1 nodes
     6263 MiB available memory on the printing compute node when the environment starts

     Reading input from vc_relax.in

     Current dimensions of program PWSCF are:
     Max number of different atomic species (ntypx) = 10
     Max number of k-points (npk) =  40000
     Max angular momentum in pseudopotentials (lmaxx) =  4
     file Al.pbe-n-kjpaw_psl.1.0.0.UPF: wavefunction(s)  3S 3P renormalized
     file Fe.pbe-spn-kjpaw_psl.1.0.0.UPF: wavefunction(s)  3P 3D renormalized
     file Fe.pbe-spn-kjpaw_psl.1.0.0.UPF: wavefunction(s)  3P 3D renormalized
     file H.pbe-kjpaw_psl.1.0.0.UPF: wavefunction(s)  1S renormalized
     file K.pbe-spn-kjpaw_psl.1.0.0.UPF: wavefunction(s)  3S renormalized
     file Mg.pbe-spnl-kjpaw_psl.1.0.0.UPF: wavefunction(s)  2P renormalized
     file O.pbe-n-kjpaw_psl.1.0.0.UPF: wavefunction(s)  2S 2P renormalized
     file Si.pbe-n-kjpaw_psl.1.0.0.UPF: wavefunction(s)  3S 3P renormalized

     R & G space division:  proc/nbgrp/npool/nimage =      12
     Subspace diagonalization in iterative solution of the eigenvalue problem:
     one sub-group per band group will be used
     custom distributed-memory algorithm (size of sub-group:  3*  3 procs)


     Parallelization info
     --------------------
     sticks:   dense  smooth     PW     G-vecs:    dense   smooth      PW
     Min        1112     555    146                98068    34673    4684
     Max        1113     556    147                98070    34676    4687
     Sum       13347    6671   1755              1176821   416093   56225

     Using Slab Decomposition



     bravais-lattice index     =          -12
     lattice parameter (alat)  =      20.0462  a.u.
     unit-cell volume          =    6626.3411 (a.u.)^3
     number of atoms/cell      =           88
     number of atomic types    =            8
     number of electrons       =       524.00
     number of Kohn-Sham states=          314
     kinetic-energy cutoff     =      60.0000  Ry
     charge density cutoff     =     480.0000  Ry
     scf convergence threshold =      1.0E-06
     mixing beta               =       0.7000
     number of iterations used =            8  plain     mixing
     energy convergence thresh.=      1.0E-04
     force convergence thresh. =      1.0E-03
     press convergence thresh. =      5.0E-01
     Exchange-correlation= SLA  PW   PBX  PBC
                           (   1   4   3   4   0   0   0)
     nstep                     =           50


     celldm(1)=  20.046151  celldm(2)=   0.869553  celldm(3)=   0.961035
     celldm(4)=   0.000000  celldm(5)=  -0.176276  celldm(6)=   0.000000

     crystal axes: (cart. coord. in units of alat)
               a(1) = (   1.000000   0.000000   0.000000 )  
               a(2) = (   0.000000   0.869553   0.000000 )  
               a(3) = (  -0.169408   0.000000   0.945986 )  

     reciprocal axes: (cart. coord. in units 2 pi/alat)
               b(1) = (  1.000000 -0.000000  0.179080 )  
               b(2) = (  0.000000  1.150017 -0.000000 )  
               b(3) = (  0.000000  0.000000  1.057098 )  


     PseudoPot. # 1 for Al read from file:
     ./../../pseudos/Al.pbe-n-kjpaw_psl.1.0.0.UPF
     MD5 check sum: 502b6b27b9c6270cab5dd1084b96fa6d
     Pseudo is Projector augmented-wave + core cor, Zval =  3.0
     Generated using &quot;atomic&quot; code by A. Dal Corso  v.6.3
     Shape of augmentation charge: PSQ
     Using radial grid of 1135 points,  6 beta functions with: 
                l(1) =   0
                l(2) =   0
                l(3) =   1
                l(4) =   1
                l(5) =   2
                l(6) =   2
     Q(r) pseudized with 0 coefficients 


     PseudoPot. # 2 for Fe read from file:
     ./../../pseudos/Fe.pbe-spn-kjpaw_psl.1.0.0.UPF
     MD5 check sum: fc81f059e5c5069939230b1155715ae8
     Pseudo is Projector augmented-wave + core cor, Zval = 16.0
     Generated using &quot;atomic&quot; code by A. Dal Corso  v.6.3
     Shape of augmentation charge: PSQ
     Using radial grid of 1191 points,  6 beta functions with: 
                l(1) =   0
                l(2) =   0
                l(3) =   1
                l(4) =   1
                l(5) =   2
                l(6) =   2
     Q(r) pseudized with 0 coefficients 


     PseudoPot. # 3 for Fe read from file:
     ./../../pseudos/Fe.pbe-spn-kjpaw_psl.1.0.0.UPF
     MD5 check sum: fc81f059e5c5069939230b1155715ae8
     Pseudo is Projector augmented-wave + core cor, Zval = 16.0
     Generated using &quot;atomic&quot; code by A. Dal Corso  v.6.3
     Shape of augmentation charge: PSQ
     Using radial grid of 1191 points,  6 beta functions with: 
                l(1) =   0
                l(2) =   0
                l(3) =   1
                l(4) =   1
                l(5) =   2
                l(6) =   2
     Q(r) pseudized with 0 coefficients 


     PseudoPot. # 4 for H  read from file:
     ./../../pseudos/H.pbe-kjpaw_psl.1.0.0.UPF
     MD5 check sum: d81a744832360e4a8af0b0b5b123bc2a
     Pseudo is Projector augmented-wave, Zval =  1.0
     Generated using &quot;atomic&quot; code by A. Dal Corso  v.6.3MaX
     Shape of augmentation charge: PSQ
     Using radial grid of  929 points,  2 beta functions with: 
                l(1) =   0
                l(2) =   0
     Q(r) pseudized with 0 coefficients 


     PseudoPot. # 5 for K  read from file:
     ./../../pseudos/K.pbe-spn-kjpaw_psl.1.0.0.UPF
     MD5 check sum: 34cc42130a09071ebe376fd42eb21491
     Pseudo is Projector augmented-wave + core cor, Zval =  9.0
     Generated using &quot;atomic&quot; code by A. Dal Corso  v.6.2.2
     Shape of augmentation charge: PSQ
     Using radial grid of 1165 points,  6 beta functions with: 
                l(1) =   0
                l(2) =   0
                l(3) =   1
                l(4) =   1
                l(5) =   2
                l(6) =   2
     Q(r) pseudized with 0 coefficients 


     PseudoPot. # 6 for Mg read from file:
     ./../../pseudos/Mg.pbe-spnl-kjpaw_psl.1.0.0.UPF
     MD5 check sum: fda14e0d92a6a9a5ebed782e5a4b3067
     Pseudo is Projector augmented-wave + core cor, Zval = 10.0
     Generated using &quot;atomic&quot; code by A. Dal Corso  v.6.3
     Shape of augmentation charge: PSQ
     Using radial grid of 1129 points,  4 beta functions with: 
                l(1) =   0
                l(2) =   0
                l(3) =   1
                l(4) =   1
     Q(r) pseudized with 0 coefficients 


     PseudoPot. # 7 for O  read from file:
     ./../../pseudos/O.pbe-n-kjpaw_psl.1.0.0.UPF
     MD5 check sum: e99d9cef9b487d1ca56f5b95ecd0fd7a
     Pseudo is Projector augmented-wave + core cor, Zval =  6.0
     Generated using &quot;atomic&quot; code by A. Dal Corso  v.6.3
     Shape of augmentation charge: PSQ
     Using radial grid of 1095 points,  4 beta functions with: 
                l(1) =   0
                l(2) =   0
                l(3) =   1
                l(4) =   1
     Q(r) pseudized with 0 coefficients 


     PseudoPot. # 8 for Si read from file:
     ./../../pseudos/Si.pbe-n-kjpaw_psl.1.0.0.UPF
     MD5 check sum: c39c59da582df4a0d9f10159256ea34e
     Pseudo is Projector augmented-wave + core cor, Zval =  4.0
     Generated using &quot;atomic&quot; code by A. Dal Corso  v.6.3
     Shape of augmentation charge: PSQ
     Using radial grid of 1141 points,  6 beta functions with: 
                l(1) =   0
                l(2) =   0
                l(3) =   1
                l(4) =   1
                l(5) =   2
                l(6) =   2
     Q(r) pseudized with 0 coefficients 


     atomic species   valence    mass     pseudopotential
     Al                3.00    26.98154     Al( 1.00)
     Fe1              16.00    55.84500     Fe( 1.00)
     Fe2              16.00    55.84500     Fe( 1.00)
     H                 1.00     1.00794     H ( 1.00)
     K                 9.00    39.09830     K ( 1.00)
     Mg               10.00    24.30500     Mg( 1.00)
     O                 6.00    15.99940     O ( 1.00)
     Si                4.00    28.08550     Si( 1.00)

     Starting magnetic structure 
     atomic species   magnetization
     Al              0.000
     Fe1             0.300
     Fe2            -0.300
     H               0.000
     K               0.000
     Mg              0.000
     O               0.000
     Si              0.000

      2 Sym. Ops. (no inversion) found ( 1 have fractional translation)


                                    s                        frac. trans.

      isym =  1     identity                                     

 cryst.   s( 1) = (     1          0          0      )
                  (     0          1          0      )
                  (     0          0          1      )

 cart.    s( 1) = (  1.0000000  0.0000000  0.0000000 )
                  (  0.0000000  1.0000000  0.0000000 )
                  (  0.0000000  0.0000000  1.0000000 )


      isym =  2     180 deg rotation - cart. axis [0,1,0]        

 cryst.   s( 2) = (    -1          0          0      )    f =(  0.5000000 )
                  (     0          1          0      )       (  0.0000000 )
                  (     0          0         -1      )       (  0.0000000 )

 cart.    s( 2) = ( -1.0000000  0.0000000  0.0000000 )    f =(  0.5000000 )
                  (  0.0000000  1.0000000  0.0000000 )       (  0.0000000 )
                  (  0.0000000  0.0000000 -1.0000000 )       (  0.0000000 )


     point group C_2  (2)   
     there are  2 classes
     the character table:

       E     C2   
A      1.00  1.00
B      1.00 -1.00

     the symmetry operations in each class and the name of the first element:

     E        1
          identity                                               
     C2       2
          180 deg rotation - cart. axis [0,1,0]                  

   Cartesian axes

     site n.     atom                  positions (alat units)
         1        K      tau(   1) = (   0.0000000   0.4330522   0.0000000  )
         2        K      tau(   2) = (   0.5000000   0.4330522   0.0000000  )
         3        K      tau(   3) = (   0.2500000   0.0004867   0.0000000  )
         4        K      tau(   4) = (   0.7500000   0.0004867   0.0000000  )
         5        Mg     tau(   5) = (   0.4152961   0.0031839   0.4729932  )
         6        Mg     tau(   6) = (  -0.0847038   0.0031839   0.4729932  )
         7        Mg     tau(   7) = (   0.4152961   0.2883605   0.4729932  )
         8        Mg     tau(   8) = (  -0.0847038   0.2883605   0.4729932  )
         9        Mg     tau(   9) = (   0.4152961   0.5789933   0.4729932  )
        10        Mg     tau(  10) = (  -0.0847038   0.5789933   0.4729932  )
        11        Mg     tau(  11) = (   0.1652961   0.7268787   0.4729932  )
        12        Mg     tau(  12) = (   0.6652961   0.7268787   0.4729932  )
        13        Mg     tau(  13) = (   0.1652961   0.1466516   0.4729932  )
        14        Mg     tau(  14) = (   0.6652961   0.1466516   0.4729932  )
        15        Fe1    tau(  15) = (   0.1652961   0.4281911   0.4729932  )
        16        Fe2    tau(  16) = (   0.6652961   0.4281911   0.4729932  )
        17        Si     tau(  17) = (   0.0044527   0.1432539   0.2102802  )
        18        Si     tau(  18) = (   0.5044527   0.1432539   0.2102802  )
        19        Si     tau(  19) = (   0.3261395   0.1432539   0.7357062  )
        20        Si     tau(  20) = (   0.8261395   0.1432539   0.7357062  )
        21        Si     tau(  21) = (   0.3359335   0.7255824   0.7303302  )
        22        Si     tau(  22) = (   0.8359336   0.7255824   0.7303302  )
        23        Si     tau(  23) = (  -0.0053413   0.7255824   0.2156561  )
        24        Si     tau(  24) = (   0.4946587   0.7255824   0.2156561  )
        25        Si     tau(  25) = (   0.2446438   0.5806124   0.2139842  )
        26        Si     tau(  26) = (   0.7446438   0.5806124   0.2139842  )
        27        Si     tau(  27) = (   0.0859484   0.5806124   0.7320022  )
        28        Si     tau(  28) = (   0.5859484   0.5806124   0.7320022  )
        29        Al     tau(  29) = (   0.0756616   0.2877966   0.7343198  )
        30        Al     tau(  30) = (   0.5756616   0.2877966   0.7343198  )
        31        Al     tau(  31) = (   0.2549306   0.2877966   0.2116665  )
        32        Al     tau(  32) = (   0.7549306   0.2877966   0.2116665  )
        33        O      tau(  33) = (  -0.0011963   0.1413841   0.3640452  )
        34        O      tau(  34) = (   0.4988037   0.1413841   0.3640452  )
        35        O      tau(  35) = (   0.3317885   0.1413841   0.5819411  )
        36        O      tau(  36) = (   0.8317885   0.1413841   0.5819411  )
        37        O      tau(  37) = (   0.3334649   0.7245013   0.5778188  )
        38        O      tau(  38) = (   0.8334649   0.7245013   0.5778188  )
        39        O      tau(  39) = (  -0.0028727   0.7245013   0.3681675  )
        40        O      tau(  40) = (   0.4971273   0.7245013   0.3681675  )
        41        O      tau(  41) = (   0.2484059   0.5864140   0.3670101  )
        42        O      tau(  42) = (   0.7484059   0.5864140   0.3670101  )
        43        O      tau(  43) = (   0.0821863   0.5864140   0.5789762  )
        44        O      tau(  44) = (   0.5821863   0.5864140   0.5789762  )
        45        O      tau(  45) = (   0.0776113   0.2853436   0.5708247  )
        46        O      tau(  46) = (   0.5776113   0.2853436   0.5708247  )
        47        O      tau(  47) = (   0.2529809   0.2853436   0.3751617  )
        48        O      tau(  48) = (   0.7529809   0.2853436   0.3751617  )
        49        O      tau(  49) = (   0.1441598   0.1762993   0.1561958  )
        50        O      tau(  50) = (   0.6441598   0.1762993   0.1561958  )
        51        O      tau(  51) = (   0.1864324   0.1762993   0.7897905  )
        52        O      tau(  52) = (   0.6864324   0.1762993   0.7897905  )
        53        O      tau(  53) = (   0.4700640   0.8671217   0.1579896  )
        54        O      tau(  54) = (   0.9700640   0.8671217   0.1579896  )
        55        O      tau(  55) = (  -0.1394718   0.8671217   0.7879968  )
        56        O      tau(  56) = (   0.3605282   0.8671217   0.7879968  )
        57        O      tau(  57) = (   0.1999991   0.6742206   0.7875227  )
        58        O      tau(  58) = (   0.6999991   0.6742206   0.7875227  )
        59        O      tau(  59) = (   0.1305931   0.6742206   0.1584636  )
        60        O      tau(  60) = (   0.6305931   0.6742206   0.1584636  )
        61        O      tau(  61) = (   0.3804476   0.6366284   0.1571199  )
        62        O      tau(  62) = (   0.8804476   0.6366284   0.1571199  )
        63        O      tau(  63) = (  -0.0498554   0.6366284   0.7888665  )
        64        O      tau(  64) = (   0.4501446   0.6366284   0.7888665  )
        65        O      tau(  65) = (   0.2215681   0.4419395   0.1546706  )
        66        O      tau(  66) = (   0.7215682   0.4419395   0.1546706  )
        67        O      tau(  67) = (   0.1090241   0.4419395   0.7913158  )
        68        O      tau(  68) = (   0.6090241   0.4419395   0.7913158  )
        69        O      tau(  69) = (  -0.0715866   0.2403956   0.7956562  )
        70        O      tau(  70) = (   0.4284134   0.2403956   0.7956562  )
        71        O      tau(  71) = (   0.4021788   0.2403956   0.1503301  )
        72        O      tau(  72) = (   0.9021788   0.2403956   0.1503301  )
        73        O      tau(  73) = (  -0.0072546   0.4378037   0.3704785  )
        74        O      tau(  74) = (   0.4927454   0.4378037   0.3704785  )
        75        O      tau(  75) = (   0.3378468   0.4378037   0.5755078  )
        76        O      tau(  76) = (   0.8378467   0.4378037   0.5755078  )
        77        O      tau(  77) = (   0.2494337   0.8687766   0.3753457  )
        78        O      tau(  78) = (   0.7494337   0.8687766   0.3753457  )
        79        O      tau(  79) = (   0.0811585   0.8687766   0.5706407  )
        80        O      tau(  80) = (   0.5811585   0.8687766   0.5706407  )
        81        H      tau(  81) = (   0.0016762   0.4296670   0.2802434  )
        82        H      tau(  82) = (   0.5016762   0.4296670   0.2802434  )
        83        H      tau(  83) = (   0.3289160   0.4296670   0.6657430  )
        84        H      tau(  84) = (   0.8289160   0.4296670   0.6657430  )
        85        H      tau(  85) = (   0.2471518   0.0144822   0.2856357  )
        86        H      tau(  86) = (   0.7471517   0.0144822   0.2856357  )
        87        H      tau(  87) = (   0.0834404   0.0144822   0.6603506  )
        88        H      tau(  88) = (   0.5834404   0.0144822   0.6603506  )

     -------------------------------------------------
     Parameters for Dispersion (Grimme-D2) Correction:
     -------------------------------------------------
       atom      VdW radius       C_6     

        Al         3.097        374.319
        Fe1        2.952        374.666
        Fe2        2.952        374.666
        H          1.892          4.857
        K          2.806        374.666
        Mg         2.578        198.087
        O          2.536         24.284
        Si         3.243        320.200

   Crystallographic axes

     site n.     atom                  positions (cryst. coord.)
         1        K      tau(   1) = (  0.0000000  0.4980172  0.0000000  )
         2        K      tau(   2) = (  0.5000000  0.4980172  0.0000000  )
         3        K      tau(   3) = (  0.2500000  0.0005597  0.0000000  )
         4        K      tau(   4) = (  0.7500000  0.0005597  0.0000000  )
         5        Mg     tau(   5) = (  0.4999999  0.0036616  0.5000000  )
         6        Mg     tau(   6) = ( -0.0000000  0.0036616  0.5000000  )
         7        Mg     tau(   7) = (  0.4999999  0.3316193  0.5000000  )
         8        Mg     tau(   8) = ( -0.0000000  0.3316193  0.5000000  )
         9        Mg     tau(   9) = (  0.4999999  0.6658518  0.5000000  )
        10        Mg     tau(  10) = ( -0.0000000  0.6658518  0.5000000  )
        11        Mg     tau(  11) = (  0.2499999  0.8359225  0.5000000  )
        12        Mg     tau(  12) = (  0.7499999  0.8359225  0.5000000  )
        13        Mg     tau(  13) = (  0.2499999  0.1686518  0.5000000  )
        14        Mg     tau(  14) = (  0.7499999  0.1686518  0.5000000  )
        15        Fe1    tau(  15) = (  0.2499999  0.4924269  0.5000000  )
        16        Fe2    tau(  16) = (  0.7499999  0.4924269  0.5000000  )
        17        Si     tau(  17) = (  0.0421097  0.1647444  0.2222867  )
        18        Si     tau(  18) = (  0.5421097  0.1647444  0.2222867  )
        19        Si     tau(  19) = (  0.4578901  0.1647444  0.7777133  )
        20        Si     tau(  20) = (  0.9578901  0.1647444  0.7777133  )
        21        Si     tau(  21) = (  0.4667214  0.8344318  0.7720304  )
        22        Si     tau(  22) = (  0.9667214  0.8344318  0.7720304  )
        23        Si     tau(  23) = (  0.0332784  0.8344318  0.2279696  )
        24        Si     tau(  24) = (  0.5332785  0.8344318  0.2279696  )
        25        Si     tau(  25) = (  0.2829642  0.6677139  0.2262022  )
        26        Si     tau(  26) = (  0.7829642  0.6677139  0.2262022  )
        27        Si     tau(  27) = (  0.2170357  0.6677139  0.7737978  )
        28        Si     tau(  28) = (  0.7170357  0.6677139  0.7737978  )
        29        Al     tau(  29) = (  0.2071639  0.3309709  0.7762478  )
        30        Al     tau(  30) = (  0.7071639  0.3309709  0.7762478  )
        31        Al     tau(  31) = (  0.2928359  0.3309709  0.2237522  )
        32        Al     tau(  32) = (  0.7928359  0.3309709  0.2237522  )
        33        O      tau(  33) = (  0.0639971  0.1625940  0.3848313  )
        34        O      tau(  34) = (  0.5639970  0.1625940  0.3848313  )
        35        O      tau(  35) = (  0.4360028  0.1625940  0.6151686  )
        36        O      tau(  36) = (  0.9360027  0.1625940  0.6151686  )
        37        O      tau(  37) = (  0.4369409  0.8331885  0.6108109  )
        38        O      tau(  38) = (  0.9369409  0.8331885  0.6108109  )
        39        O      tau(  39) = (  0.0630589  0.8331885  0.3891890  )
        40        O      tau(  40) = (  0.5630589  0.8331885  0.3891890  )
        41        O      tau(  41) = (  0.3141302  0.6743858  0.3879655  )
        42        O      tau(  42) = (  0.8141302  0.6743858  0.3879655  )
        43        O      tau(  43) = (  0.1858696  0.6743858  0.6120344  )
        44        O      tau(  44) = (  0.6858696  0.6743858  0.6120344  )
        45        O      tau(  45) = (  0.1798348  0.3281499  0.6034175  )
        46        O      tau(  46) = (  0.6798348  0.3281499  0.6034175  )
        47        O      tau(  47) = (  0.3201650  0.3281499  0.3965825  )
        48        O      tau(  48) = (  0.8201650  0.3281499  0.3965825  )
        49        O      tau(  49) = (  0.1721314  0.2027472  0.1651142  )
        50        O      tau(  50) = (  0.6721314  0.2027472  0.1651142  )
        51        O      tau(  51) = (  0.3278684  0.2027472  0.8348858  )
        52        O      tau(  52) = (  0.8278685  0.2027472  0.8348858  )
        53        O      tau(  53) = (  0.4983568  0.9972042  0.1670104  )
        54        O      tau(  54) = (  0.9983568  0.9972042  0.1670104  )
        55        O      tau(  55) = (  0.0016430  0.9972042  0.8329896  )
        56        O      tau(  56) = (  0.5016430  0.9972042  0.8329896  )
        57        O      tau(  57) = (  0.3410290  0.7753648  0.8324885  )
        58        O      tau(  58) = (  0.8410290  0.7753648  0.8324885  )
        59        O      tau(  59) = (  0.1589708  0.7753648  0.1675115  )
        60        O      tau(  60) = (  0.6589708  0.7753648  0.1675115  )
        61        O      tau(  61) = (  0.4085847  0.7321332  0.1660910  )
        62        O      tau(  62) = (  0.9085847  0.7321332  0.1660910  )
        63        O      tau(  63) = (  0.0914151  0.7321332  0.8339090  )
        64        O      tau(  64) = (  0.5914151  0.7321332  0.8339090  )
        65        O      tau(  65) = (  0.2492666  0.5082377  0.1635019  )
        66        O      tau(  66) = (  0.7492666  0.5082377  0.1635019  )
        67        O      tau(  67) = (  0.2507332  0.5082377  0.8364981  )
        68        O      tau(  68) = (  0.7507333  0.5082377  0.8364981  )
        69        O      tau(  69) = (  0.0708998  0.2764589  0.8410864  )
        70        O      tau(  70) = (  0.5708998  0.2764589  0.8410864  )
        71        O      tau(  71) = (  0.4291000  0.2764589  0.1589136  )
        72        O      tau(  72) = (  0.9291000  0.2764589  0.1589136  )
        73        O      tau(  73) = (  0.0590909  0.5034815  0.3916320  )
        74        O      tau(  74) = (  0.5590909  0.5034815  0.3916320  )
        75        O      tau(  75) = (  0.4409089  0.5034815  0.6083680  )
        76        O      tau(  76) = (  0.9409089  0.5034815  0.6083680  )
        77        O      tau(  77) = (  0.3166507  0.9991074  0.3967770  )
        78        O      tau(  78) = (  0.8166507  0.9991074  0.3967770  )
        79        O      tau(  79) = (  0.1833491  0.9991074  0.6032230  )
        80        O      tau(  80) = (  0.6833491  0.9991074  0.6032230  )
        81        H      tau(  81) = (  0.0518623  0.4941242  0.2962447  )
        82        H      tau(  82) = (  0.5518623  0.4941242  0.2962447  )
        83        H      tau(  83) = (  0.4481376  0.4941242  0.7037554  )
        84        H      tau(  84) = (  0.9481375  0.4941242  0.7037554  )
        85        H      tau(  85) = (  0.2983035  0.0166548  0.3019448  )
        86        H      tau(  86) = (  0.7983035  0.0166548  0.3019448  )
        87        H      tau(  87) = (  0.2016963  0.0166548  0.6980551  )
        88        H      tau(  88) = (  0.7016963  0.0166548  0.6980551  )

     number of k points=    10  Gaussian smearing, width (Ry)=  0.0010
                       cart. coord. in units 2pi/alat
        k(    1) = (   0.0000000   0.0000000   0.0000000), wk =   0.0370370
        k(    2) = (   0.0000000   0.0000000   0.3523659), wk =   0.0740741
        k(    3) = (   0.0000000   0.3833388   0.0000000), wk =   0.0740741
        k(    4) = (   0.0000000   0.3833388   0.3523659), wk =   0.1481481
        k(    5) = (   0.3333333   0.0000000   0.0596935), wk =   0.0740741
        k(    6) = (   0.3333333   0.0000000   0.4120594), wk =   0.0740741
        k(    7) = (   0.3333333   0.0000000  -0.2926724), wk =   0.0740741
        k(    8) = (   0.3333333   0.3833388   0.0596935), wk =   0.1481481
        k(    9) = (   0.3333333   0.3833388   0.4120594), wk =   0.1481481
        k(   10) = (   0.3333333   0.3833388  -0.2926724), wk =   0.1481481

                       cryst. coord.
        k(    1) = (   0.0000000   0.0000000   0.0000000), wk =   0.0370370
        k(    2) = (   0.0000000   0.0000000   0.3333333), wk =   0.0740741
        k(    3) = (   0.0000000   0.3333333   0.0000000), wk =   0.0740741
        k(    4) = (   0.0000000   0.3333333   0.3333333), wk =   0.1481481
        k(    5) = (   0.3333333   0.0000000  -0.0000000), wk =   0.0740741
        k(    6) = (   0.3333333   0.0000000   0.3333333), wk =   0.0740741
        k(    7) = (   0.3333333   0.0000000  -0.3333333), wk =   0.0740741
        k(    8) = (   0.3333333   0.3333333  -0.0000000), wk =   0.1481481
        k(    9) = (   0.3333333   0.3333333   0.3333333), wk =   0.1481481
        k(   10) = (   0.3333333   0.3333333  -0.3333333), wk =   0.1481481

     Dense  grid:  1176821 G-vectors     FFT dimensions: ( 144, 125, 135)

     Smooth grid:   416093 G-vectors     FFT dimensions: ( 100,  90,  96)

     Dynamical RAM for                 wfc:      20.76 MB

     Dynamical RAM for     wfc (w. buffer):     435.97 MB

     Dynamical RAM for           str. fact:      11.97 MB

     Dynamical RAM for           local pot:       0.00 MB

     Dynamical RAM for          nlocal pot:      57.92 MB

     Dynamical RAM for                qrad:      28.13 MB

     Dynamical RAM for          rho,v,vnew:      18.87 MB

     Dynamical RAM for               rhoin:       6.29 MB

     Dynamical RAM for            rho*nmix:      47.89 MB

     Dynamical RAM for           G-vectors:       5.88 MB

     Dynamical RAM for          h,s,v(r/c):       2.00 MB

     Dynamical RAM for          <psi|beta>:       4.20 MB

     Dynamical RAM for                 psi:      41.52 MB

     Dynamical RAM for                hpsi:      41.52 MB

     Dynamical RAM for                spsi:      41.52 MB

     Dynamical RAM for      wfcinit/wfcrot:      51.47 MB

     Dynamical RAM for           addusdens:     351.66 MB

     Dynamical RAM for          addusforce:     492.70 MB

     Dynamical RAM for         addusstress:     303.02 MB

     Estimated static dynamical RAM per process >     588.37 MB

     Estimated max dynamical RAM per process >       1.10 GB

     Estimated total dynamical RAM >      13.23 GB

     Check: negative core charge=   -0.000004
     Generating pointlists ...
     new r_m :   0.0675 (alat units)  1.3522 (a.u.) for type    1
     new r_m :   0.0801 (alat units)  1.6048 (a.u.) for type    2
     new r_m :   0.0801 (alat units)  1.6048 (a.u.) for type    3
     new r_m :   0.0375 (alat units)  0.7527 (a.u.) for type    4
     new r_m :   0.1064 (alat units)  2.1325 (a.u.) for type    5
     new r_m :   0.0782 (alat units)  1.5673 (a.u.) for type    6
     new r_m :   0.0375 (alat units)  0.7527 (a.u.) for type    7
     new r_m :   0.0629 (alat units)  1.2613 (a.u.) for type    8

     Initial potential from superposition of free atoms

     starting charge     523.8985, renormalised to     524.0000
     Starting wfcs are  366 randomized atomic wfcs
     Checking if some PAW data can be deallocated... 
       PAW data deallocated on   11 nodes for type:  1
       PAW data deallocated on   11 nodes for type:  2
       PAW data deallocated on   11 nodes for type:  3
       PAW data deallocated on   10 nodes for type:  4
       PAW data deallocated on   11 nodes for type:  5
       PAW data deallocated on   10 nodes for type:  6
       PAW data deallocated on    5 nodes for type:  7
       PAW data deallocated on   10 nodes for type:  8

     total cpu time spent up to now is      534.3 secs

     Self-consistent Calculation

     iteration #  1     ecut=    60.00 Ry     beta= 0.70
     Davidson diagonalization with overlap

---- Real-time Memory Report at c_bands before calling an iterative solver
           674 MiB given to the printing process from OS
             0 MiB allocation reported by mallinfo(arena+hblkhd)
           578 MiB available memory on the node where the printing process lives
------------------
     ethr =  1.00E-02,  avg # of iterations =  6.0

     negative rho (up, down):  0.000E+00 4.668E-04

     total cpu time spent up to now is     2319.9 secs

     total energy              =   -5246.58511051 Ry
     estimated scf accuracy    <      26.15608894 Ry

     total magnetization       =     2.00 Bohr mag/cell
     absolute magnetization    =     8.08 Bohr mag/cell

     iteration #  2     ecut=    60.00 Ry     beta= 0.70
     Davidson diagonalization with overlap

---- Real-time Memory Report at c_bands before calling an iterative solver
           958 MiB given to the printing process from OS
             0 MiB allocation reported by mallinfo(arena+hblkhd)
          2759 MiB available memory on the node where the printing process lives
------------------
     ethr =  4.99E-03,  avg # of iterations =  5.5

     total cpu time spent up to now is     5132.0 secs

     total energy              =   -5246.30466306 Ry
     estimated scf accuracy    <      85.19227866 Ry

     total magnetization       =     0.30 Bohr mag/cell
     absolute magnetization    =     1.67 Bohr mag/cell

     iteration #  3     ecut=    60.00 Ry     beta= 0.70
     Davidson diagonalization with overlap

---- Real-time Memory Report at c_bands before calling an iterative solver
           961 MiB given to the printing process from OS
             0 MiB allocation reported by mallinfo(arena+hblkhd)
          2676 MiB available memory on the node where the printing process lives
------------------
     ethr =  4.99E-03,  avg # of iterations =  6.7

     total cpu time spent up to now is     7147.0 secs

     total energy              =   -5257.56993979 Ry
     estimated scf accuracy    <      79.38740298 Ry

     total magnetization       =    -0.00 Bohr mag/cell
     absolute magnetization    =     2.48 Bohr mag/cell

     iteration #  4     ecut=    60.00 Ry     beta= 0.70
     Davidson diagonalization with overlap

---- Real-time Memory Report at c_bands before calling an iterative solver
           963 MiB given to the printing process from OS
             0 MiB allocation reported by mallinfo(arena+hblkhd)
          2620 MiB available memory on the node where the printing process lives
------------------
     ethr =  4.99E-03,  avg # of iterations =  2.5

     total cpu time spent up to now is     8629.6 secs

     total energy              =   -5259.26240565 Ry
     estimated scf accuracy    <      16.25515958 Ry

     total magnetization       =     2.00 Bohr mag/cell
     absolute magnetization    =     5.97 Bohr mag/cell

     iteration #  5     ecut=    60.00 Ry     beta= 0.70
     Davidson diagonalization with overlap

---- Real-time Memory Report at c_bands before calling an iterative solver
           966 MiB given to the printing process from OS
             0 MiB allocation reported by mallinfo(arena+hblkhd)
          2699 MiB available memory on the node where the printing process lives
------------------
     ethr =  3.10E-03,  avg # of iterations =  9.0

     negative rho (up, down):  0.000E+00 2.226E-04

     total cpu time spent up to now is    10126.1 secs

     total energy              =   -5261.71453044 Ry
     estimated scf accuracy    <       7.85065677 Ry

     total magnetization       =     1.25 Bohr mag/cell
     absolute magnetization    =     8.83 Bohr mag/cell

     iteration #  6     ecut=    60.00 Ry     beta= 0.70
     Davidson diagonalization with overlap

---- Real-time Memory Report at c_bands before calling an iterative solver
           968 MiB given to the printing process from OS
             0 MiB allocation reported by mallinfo(arena+hblkhd)
          2478 MiB available memory on the node where the printing process lives
------------------
     ethr =  1.50E-03,  avg # of iterations =  7.0

     total cpu time spent up to now is    12053.3 secs

     total energy              =   -5263.77039229 Ry
     estimated scf accuracy    <      29.09911584 Ry

     total magnetization       =    -2.00 Bohr mag/cell
     absolute magnetization    =     4.52 Bohr mag/cell

     iteration #  7     ecut=    60.00 Ry     beta= 0.70
     Davidson diagonalization with overlap

---- Real-time Memory Report at c_bands before calling an iterative solver
           971 MiB given to the printing process from OS
             0 MiB allocation reported by mallinfo(arena+hblkhd)
          2631 MiB available memory on the node where the printing process lives
------------------
     ethr =  1.50E-03,  avg # of iterations =  1.6

     total cpu time spent up to now is    13356.4 secs

     total energy              =   -5261.76138254 Ry
     estimated scf accuracy    <      24.14719221 Ry

     total magnetization       =    -2.00 Bohr mag/cell
     absolute magnetization    =     3.86 Bohr mag/cell

     iteration #  8     ecut=    60.00 Ry     beta= 0.70
     Davidson diagonalization with overlap

---- Real-time Memory Report at c_bands before calling an iterative solver
           973 MiB given to the printing process from OS
             0 MiB allocation reported by mallinfo(arena+hblkhd)
          2682 MiB available memory on the node where the printing process lives
------------------
     ethr =  1.50E-03,  avg # of iterations =  2.0

     total cpu time spent up to now is    14737.1 secs

     total energy              =   -5262.51318264 Ry
     estimated scf accuracy    <      11.12837823 Ry

     total magnetization       =     2.00 Bohr mag/cell
     absolute magnetization    =     5.36 Bohr mag/cell

     iteration #  9     ecut=    60.00 Ry     beta= 0.70
     Davidson diagonalization with overlap

---- Real-time Memory Report at c_bands before calling an iterative solver
           976 MiB given to the printing process from OS
             0 MiB allocation reported by mallinfo(arena+hblkhd)
          2484 MiB available memory on the node where the printing process lives
------------------
     ethr =  1.50E-03,  avg # of iterations =  1.0

     total cpu time spent up to now is    15926.4 secs

     total energy              =   -5262.71438925 Ry
     estimated scf accuracy    <       0.71980815 Ry

     total magnetization       =     2.00 Bohr mag/cell
     absolute magnetization    =     6.62 Bohr mag/cell

     iteration # 10     ecut=    60.00 Ry     beta= 0.70
     Davidson diagonalization with overlap

---- Real-time Memory Report at c_bands before calling an iterative solver
           979 MiB given to the printing process from OS
             0 MiB allocation reported by mallinfo(arena+hblkhd)
          2724 MiB available memory on the node where the printing process lives
------------------
     ethr =  1.37E-04,  avg # of iterations =  4.0

     total cpu time spent up to now is    17340.6 secs

     total energy              =   -5262.72287860 Ry
     estimated scf accuracy    <       1.89727398 Ry

     total magnetization       =     3.09 Bohr mag/cell
     absolute magnetization    =     7.24 Bohr mag/cell

     iteration # 11     ecut=    60.00 Ry     beta= 0.70
     Davidson diagonalization with overlap

---- Real-time Memory Report at c_bands before calling an iterative solver
           979 MiB given to the printing process from OS
             0 MiB allocation reported by mallinfo(arena+hblkhd)
          2648 MiB available memory on the node where the printing process lives
------------------
     ethr =  1.37E-04,  avg # of iterations =  2.0

     total cpu time spent up to now is    18716.9 secs

     total energy              =   -5262.75735923 Ry
     estimated scf accuracy    <       1.62795746 Ry

     total magnetization       =     2.00 Bohr mag/cell
     absolute magnetization    =     8.21 Bohr mag/cell

     iteration # 12     ecut=    60.00 Ry     beta= 0.70
     Davidson diagonalization with overlap

---- Real-time Memory Report at c_bands before calling an iterative solver
           979 MiB given to the printing process from OS
             0 MiB allocation reported by mallinfo(arena+hblkhd)
          2661 MiB available memory on the node where the printing process lives
------------------
     ethr =  1.37E-04,  avg # of iterations =  1.9

     total cpu time spent up to now is    20068.2 secs

     total energy              =   -5262.63152536 Ry
     estimated scf accuracy    <       1.70448044 Ry

     total magnetization       =     2.00 Bohr mag/cell
     absolute magnetization    =     8.15 Bohr mag/cell

     iteration # 13     ecut=    60.00 Ry     beta= 0.70
     Davidson diagonalization with overlap

---- Real-time Memory Report at c_bands before calling an iterative solver
           979 MiB given to the printing process from OS
             0 MiB allocation reported by mallinfo(arena+hblkhd)
          2728 MiB available memory on the node where the printing process lives
------------------
     ethr =  1.37E-04,  avg # of iterations =  2.0

     total cpu time spent up to now is    21456.8 secs

     total energy              =   -5262.84568567 Ry
     estimated scf accuracy    <       6.22688603 Ry

     total magnetization       =    -2.00 Bohr mag/cell
     absolute magnetization    =     6.26 Bohr mag/cell

     iteration # 14     ecut=    60.00 Ry     beta= 0.70
     Davidson diagonalization with overlap

---- Real-time Memory Report at c_bands before calling an iterative solver
           979 MiB given to the printing process from OS
             0 MiB allocation reported by mallinfo(arena+hblkhd)
          2717 MiB available memory on the node where the printing process lives
------------------
     ethr =  1.37E-04,  avg # of iterations =  2.0

     negative rho (up, down):  0.000E+00 2.491E-04

     total cpu time spent up to now is    22837.5 secs

     total energy              =   -5262.43337275 Ry
     estimated scf accuracy    <       5.66531841 Ry

     total magnetization       =    -2.00 Bohr mag/cell
     absolute magnetization    =     6.28 Bohr mag/cell

     iteration # 15     ecut=    60.00 Ry     beta= 0.70
     Davidson diagonalization with overlap

---- Real-time Memory Report at c_bands before calling an iterative solver
           979 MiB given to the printing process from OS
             0 MiB allocation reported by mallinfo(arena+hblkhd)
          2702 MiB available memory on the node where the printing process lives
------------------
     c_bands:  1 eigenvalues not converged
     c_bands:  1 eigenvalues not converged
     c_bands:  1 eigenvalues not converged
     ethr =  1.37E-04,  avg # of iterations = 13.8

     negative rho (up, down):  0.000E+00 8.883E-05

     total cpu time spent up to now is    24481.8 secs

     total energy              =   -5262.50524587 Ry
     estimated scf accuracy    <       1.48108034 Ry

     total magnetization       =     0.59 Bohr mag/cell
     absolute magnetization    =     9.46 Bohr mag/cell

     iteration # 16     ecut=    60.00 Ry     beta= 0.70
     Davidson diagonalization with overlap

---- Real-time Memory Report at c_bands before calling an iterative solver
           979 MiB given to the printing process from OS
             0 MiB allocation reported by mallinfo(arena+hblkhd)
          2709 MiB available memory on the node where the printing process lives
------------------
     ethr =  1.37E-04,  avg # of iterations =  3.3

     negative rho (up, down):  2.811E-05 1.723E-04

     total cpu time spent up to now is    25901.1 secs

     total energy              =   -5262.77221979 Ry
     estimated scf accuracy    <       1.24512155 Ry

     total magnetization       =     2.00 Bohr mag/cell
     absolute magnetization    =     8.10 Bohr mag/cell

     iteration # 17     ecut=    60.00 Ry     beta= 0.70
     Davidson diagonalization with overlap

---- Real-time Memory Report at c_bands before calling an iterative solver
           979 MiB given to the printing process from OS
             0 MiB allocation reported by mallinfo(arena+hblkhd)
          2595 MiB available memory on the node where the printing process lives
------------------
     ethr =  1.37E-04,  avg # of iterations =  1.9

     negative rho (up, down):  5.296E-05 1.919E-04

     total cpu time spent up to now is    27269.3 secs

     total energy              =   -5262.73445083 Ry
     estimated scf accuracy    <       1.28000920 Ry

     total magnetization       =     2.00 Bohr mag/cell
     absolute magnetization    =     8.11 Bohr mag/cell

     iteration # 18     ecut=    60.00 Ry     beta= 0.70
     Davidson diagonalization with overlap

---- Real-time Memory Report at c_bands before calling an iterative solver
           979 MiB given to the printing process from OS
             0 MiB allocation reported by mallinfo(arena+hblkhd)
          2741 MiB available memory on the node where the printing process lives
------------------
     ethr =  1.37E-04,  avg # of iterations =  1.6

     negative rho (up, down):  4.850E-05 1.948E-04

     total cpu time spent up to now is    28571.7 secs

     total energy              =   -5262.75437222 Ry
     estimated scf accuracy    <       0.11314179 Ry

     total magnetization       =    -0.00 Bohr mag/cell
     absolute magnetization    =     8.10 Bohr mag/cell

     iteration # 19     ecut=    60.00 Ry     beta= 0.70
     Davidson diagonalization with overlap

---- Real-time Memory Report at c_bands before calling an iterative solver
           979 MiB given to the printing process from OS
             0 MiB allocation reported by mallinfo(arena+hblkhd)
          2650 MiB available memory on the node where the printing process lives
------------------
     c_bands:  2 eigenvalues not converged
     c_bands:  3 eigenvalues not converged
     c_bands:  3 eigenvalues not converged
     c_bands:  1 eigenvalues not converged
     c_bands:  2 eigenvalues not converged
     c_bands:  4 eigenvalues not converged
     c_bands:  1 eigenvalues not converged
     c_bands:  3 eigenvalues not converged
     c_bands:  3 eigenvalues not converged
     c_bands:  5 eigenvalues not converged
     c_bands:  1 eigenvalues not converged
     c_bands:  4 eigenvalues not converged
     ethr =  2.16E-05,  avg # of iterations = 17.9

     negative rho (up, down):  0.000E+00 2.083E-04

     total cpu time spent up to now is    30199.1 secs

     total energy              =   -5262.76074131 Ry
     estimated scf accuracy    <       0.10800366 Ry

     total magnetization       =    -0.01 Bohr mag/cell
     absolute magnetization    =     8.09 Bohr mag/cell

     iteration # 20     ecut=    60.00 Ry     beta= 0.70
     Davidson diagonalization with overlap

---- Real-time Memory Report at c_bands before calling an iterative solver
           979 MiB given to the printing process from OS
             0 MiB allocation reported by mallinfo(arena+hblkhd)
          2532 MiB available memory on the node where the printing process lives
------------------
     c_bands:  4 eigenvalues not converged
     c_bands:  2 eigenvalues not converged
     c_bands:  1 eigenvalues not converged
     c_bands:  2 eigenvalues not converged
     c_bands:  2 eigenvalues not converged
     ethr =  2.06E-05,  avg # of iterations =  6.5

     negative rho (up, down):  5.285E-06 1.974E-04

     total cpu time spent up to now is    31627.0 secs

     total energy              =   -5262.76424341 Ry
     estimated scf accuracy    <       1.53329693 Ry

     total magnetization       =    -2.00 Bohr mag/cell
     absolute magnetization    =     8.09 Bohr mag/cell

     iteration # 21     ecut=    60.00 Ry     beta= 0.70
     Davidson diagonalization with overlap

---- Real-time Memory Report at c_bands before calling an iterative solver
           979 MiB given to the printing process from OS
             0 MiB allocation reported by mallinfo(arena+hblkhd)
          2639 MiB available memory on the node where the printing process lives
------------------
     ethr =  2.06E-05,  avg # of iterations =  2.4

     negative rho (up, down):  0.000E+00 1.957E-04

     total cpu time spent up to now is    32984.3 secs

     total energy              =   -5262.76978201 Ry
     estimated scf accuracy    <       1.33065374 Ry

     total magnetization       =    -1.90 Bohr mag/cell
     absolute magnetization    =     8.10 Bohr mag/cell

     iteration # 22     ecut=    60.00 Ry     beta= 0.70
     Davidson diagonalization with overlap

---- Real-time Memory Report at c_bands before calling an iterative solver
           979 MiB given to the printing process from OS
             0 MiB allocation reported by mallinfo(arena+hblkhd)
          2755 MiB available memory on the node where the printing process lives
------------------
     ethr =  2.06E-05,  avg # of iterations =  1.9

     negative rho (up, down):  0.000E+00 1.976E-04

     total cpu time spent up to now is    34335.4 secs

     total energy              =   -5262.77028734 Ry
     estimated scf accuracy    <       1.48190424 Ry

     total magnetization       =    -2.00 Bohr mag/cell
     absolute magnetization    =     8.10 Bohr mag/cell

     iteration # 23     ecut=    60.00 Ry     beta= 0.70
     Davidson diagonalization with overlap

---- Real-time Memory Report at c_bands before calling an iterative solver
           979 MiB given to the printing process from OS
             0 MiB allocation reported by mallinfo(arena+hblkhd)
          2712 MiB available memory on the node where the printing process lives
------------------
     ethr =  2.06E-05,  avg # of iterations =  1.8

     negative rho (up, down):  9.897E-05 2.263E-04

     total cpu time spent up to now is    35680.7 secs

     total energy              =   -5262.79047783 Ry
     estimated scf accuracy    <       1.47126733 Ry

     total magnetization       =    -2.00 Bohr mag/cell
     absolute magnetization    =     8.10 Bohr mag/cell

     iteration # 24     ecut=    60.00 Ry     beta= 0.70
     Davidson diagonalization with overlap

---- Real-time Memory Report at c_bands before calling an iterative solver
           979 MiB given to the printing process from OS
             0 MiB allocation reported by mallinfo(arena+hblkhd)
          2711 MiB available memory on the node where the printing process lives
------------------
     ethr =  2.06E-05,  avg # of iterations =  1.8

     negative rho (up, down):  1.115E-04 2.053E-04

     total cpu time spent up to now is    37022.7 secs

     total energy              =   -5262.79264611 Ry
     estimated scf accuracy    <       1.47591830 Ry

     total magnetization       =    -2.00 Bohr mag/cell
     absolute magnetization    =     8.10 Bohr mag/cell

     iteration # 25     ecut=    60.00 Ry     beta= 0.70
     Davidson diagonalization with overlap

---- Real-time Memory Report at c_bands before calling an iterative solver
           979 MiB given to the printing process from OS
             0 MiB allocation reported by mallinfo(arena+hblkhd)
          2699 MiB available memory on the node where the printing process lives
------------------
     ethr =  2.06E-05,  avg # of iterations =  2.0

     negative rho (up, down):  1.225E-04 2.241E-04

     total cpu time spent up to now is    38412.0 secs

     total energy              =   -5262.79751694 Ry
     estimated scf accuracy    <       1.46152156 Ry

     total magnetization       =    -2.00 Bohr mag/cell
     absolute magnetization    =     8.11 Bohr mag/cell

     iteration # 26     ecut=    60.00 Ry     beta= 0.70
     Davidson diagonalization with overlap

---- Real-time Memory Report at c_bands before calling an iterative solver
           979 MiB given to the printing process from OS
             0 MiB allocation reported by mallinfo(arena+hblkhd)
          2768 MiB available memory on the node where the printing process lives
------------------
     ethr =  2.06E-05,  avg # of iterations =  2.0

     negative rho (up, down):  1.739E-04 2.236E-04

     total cpu time spent up to now is    39793.0 secs

     total energy              =   -5262.71904229 Ry
     estimated scf accuracy    <       1.48569579 Ry

     total magnetization       =    -2.00 Bohr mag/cell
     absolute magnetization    =     8.10 Bohr mag/cell

     iteration # 27     ecut=    60.00 Ry     beta= 0.70
     Davidson diagonalization with overlap

---- Real-time Memory Report at c_bands before calling an iterative solver
           979 MiB given to the printing process from OS
             0 MiB allocation reported by mallinfo(arena+hblkhd)
          2777 MiB available memory on the node where the printing process lives
------------------
     c_bands:  2 eigenvalues not converged
     ethr =  2.06E-05,  avg # of iterations =  5.2

     negative rho (up, down):  1.469E-04 2.110E-04

     total cpu time spent up to now is    41227.0 secs

     total energy              =   -5262.77711877 Ry
     estimated scf accuracy    <       0.01770564 Ry

     total magnetization       =     0.00 Bohr mag/cell
     absolute magnetization    =     8.08 Bohr mag/cell

     iteration # 28     ecut=    60.00 Ry     beta= 0.70
     Davidson diagonalization with overlap

---- Real-time Memory Report at c_bands before calling an iterative solver
           979 MiB given to the printing process from OS
             0 MiB allocation reported by mallinfo(arena+hblkhd)
          2736 MiB available memory on the node where the printing process lives
------------------
     c_bands:  4 eigenvalues not converged
     c_bands:  3 eigenvalues not converged
     c_bands:  1 eigenvalues not converged
     c_bands:  3 eigenvalues not converged
     c_bands:  2 eigenvalues not converged
     c_bands:  1 eigenvalues not converged
     c_bands:  5 eigenvalues not converged
     c_bands:  4 eigenvalues not converged
     c_bands:  5 eigenvalues not converged
     c_bands:  3 eigenvalues not converged
     c_bands:  2 eigenvalues not converged
     c_bands:  3 eigenvalues not converged
     c_bands:  4 eigenvalues not converged
     c_bands:  1 eigenvalues not converged
     c_bands:  2 eigenvalues not converged
     c_bands:  1 eigenvalues not converged
     ethr =  3.38E-06,  avg # of iterations = 19.1

     negative rho (up, down):  1.562E-04 1.995E-04

     total cpu time spent up to now is    43168.7 secs

     total energy              =   -5262.78049261 Ry
     estimated scf accuracy    <       0.00335748 Ry

     total magnetization       =     0.00 Bohr mag/cell
     absolute magnetization    =     8.09 Bohr mag/cell

     iteration # 29     ecut=    60.00 Ry     beta= 0.70
     Davidson diagonalization with overlap

---- Real-time Memory Report at c_bands before calling an iterative solver
           979 MiB given to the printing process from OS
             0 MiB allocation reported by mallinfo(arena+hblkhd)
          2791 MiB available memory on the node where the printing process lives
------------------
     c_bands:  1 eigenvalues not converged
     c_bands:  3 eigenvalues not converged
     c_bands:  3 eigenvalues not converged
     c_bands:  2 eigenvalues not converged
     c_bands:  1 eigenvalues not converged
     c_bands:  2 eigenvalues not converged
     c_bands:  1 eigenvalues not converged
     c_bands:  3 eigenvalues not converged
     c_bands:  2 eigenvalues not converged
     c_bands:  1 eigenvalues not converged
     ethr =  6.41E-07,  avg # of iterations = 16.4

     negative rho (up, down):  1.671E-04 1.957E-04

     total cpu time spent up to now is    44897.8 secs

     total energy              =   -5262.78126259 Ry
     estimated scf accuracy    <       0.00112045 Ry

     total magnetization       =     0.00 Bohr mag/cell
     absolute magnetization    =     8.08 Bohr mag/cell

     iteration # 30     ecut=    60.00 Ry     beta= 0.70
     Davidson diagonalization with overlap

---- Real-time Memory Report at c_bands before calling an iterative solver
           979 MiB given to the printing process from OS
             0 MiB allocation reported by mallinfo(arena+hblkhd)
          2797 MiB available memory on the node where the printing process lives
------------------
     c_bands:  1 eigenvalues not converged
     c_bands:  2 eigenvalues not converged
     ethr =  2.14E-07,  avg # of iterations =  6.3

     negative rho (up, down):  1.694E-04 1.970E-04

     total cpu time spent up to now is    46437.1 secs

     total energy              =   -5262.78162550 Ry
     estimated scf accuracy    <       0.00035810 Ry

     total magnetization       =     0.00 Bohr mag/cell
     absolute magnetization    =     8.08 Bohr mag/cell

     iteration # 31     ecut=    60.00 Ry     beta= 0.70
     Davidson diagonalization with overlap

---- Real-time Memory Report at c_bands before calling an iterative solver
           979 MiB given to the printing process from OS
             0 MiB allocation reported by mallinfo(arena+hblkhd)
          2706 MiB available memory on the node where the printing process lives
------------------
     c_bands:  1 eigenvalues not converged
     ethr =  6.83E-08,  avg # of iterations =  8.2

     negative rho (up, down):  1.700E-04 1.963E-04

     total cpu time spent up to now is    48162.7 secs

     total energy              =   -5262.78186483 Ry
     estimated scf accuracy    <       0.00032741 Ry

     total magnetization       =    -0.00 Bohr mag/cell
     absolute magnetization    =     8.08 Bohr mag/cell

     iteration # 32     ecut=    60.00 Ry     beta= 0.70
     Davidson diagonalization with overlap

---- Real-time Memory Report at c_bands before calling an iterative solver
           979 MiB given to the printing process from OS
             0 MiB allocation reported by mallinfo(arena+hblkhd)
          2882 MiB available memory on the node where the printing process lives
------------------
     ethr =  6.25E-08,  avg # of iterations =  2.0

     negative rho (up, down):  1.714E-04 1.970E-04

     total cpu time spent up to now is    49555.5 secs

     total energy              =   -5262.78199849 Ry
     estimated scf accuracy    <       0.00031321 Ry

     total magnetization       =     0.00 Bohr mag/cell
     absolute magnetization    =     8.08 Bohr mag/cell

     iteration # 33     ecut=    60.00 Ry     beta= 0.70
     Davidson diagonalization with overlap

---- Real-time Memory Report at c_bands before calling an iterative solver
           979 MiB given to the printing process from OS
             0 MiB allocation reported by mallinfo(arena+hblkhd)
          2733 MiB available memory on the node where the printing process lives
------------------
     ethr =  5.98E-08,  avg # of iterations =  3.5

     negative rho (up, down):  1.823E-04 1.997E-04

     total cpu time spent up to now is    50965.6 secs

     total energy              =   -5262.78152783 Ry
     estimated scf accuracy    <       0.00028146 Ry

     total magnetization       =    -0.00 Bohr mag/cell
     absolute magnetization    =     8.08 Bohr mag/cell

     iteration # 34     ecut=    60.00 Ry     beta= 0.70
     Davidson diagonalization with overlap

---- Real-time Memory Report at c_bands before calling an iterative solver
           979 MiB given to the printing process from OS
             0 MiB allocation reported by mallinfo(arena+hblkhd)
          2765 MiB available memory on the node where the printing process lives
------------------
     ethr =  5.37E-08,  avg # of iterations =  7.6

     negative rho (up, down):  1.817E-04 2.011E-04

     total cpu time spent up to now is    52679.7 secs

     total energy              =   -5262.78258390 Ry
     estimated scf accuracy    <       0.00022726 Ry

     total magnetization       =    -0.00 Bohr mag/cell
     absolute magnetization    =     8.08 Bohr mag/cell

     iteration # 35     ecut=    60.00 Ry     beta= 0.70
     Davidson diagonalization with overlap

---- Real-time Memory Report at c_bands before calling an iterative solver
           979 MiB given to the printing process from OS
             0 MiB allocation reported by mallinfo(arena+hblkhd)
          2769 MiB available memory on the node where the printing process lives
------------------
     ethr =  4.34E-08,  avg # of iterations =  3.5

     negative rho (up, down):  1.827E-04 1.974E-04

     total cpu time spent up to now is    54083.2 secs

     total energy              =   -5262.78242146 Ry
     estimated scf accuracy    <       0.00019603 Ry

     total magnetization       =    -0.00 Bohr mag/cell
     absolute magnetization    =     8.08 Bohr mag/cell

     iteration # 36     ecut=    60.00 Ry     beta= 0.70
     Davidson diagonalization with overlap

---- Real-time Memory Report at c_bands before calling an iterative solver
           979 MiB given to the printing process from OS
             0 MiB allocation reported by mallinfo(arena+hblkhd)
          2838 MiB available memory on the node where the printing process lives
------------------
     ethr =  3.74E-08,  avg # of iterations =  6.0

     negative rho (up, down):  2.000E-04 2.007E-04

     total cpu time spent up to now is    55685.6 secs

     total energy              =   -5262.78068251 Ry
     estimated scf accuracy    <       0.00029136 Ry

     total magnetization       =    -0.00 Bohr mag/cell
     absolute magnetization    =     8.08 Bohr mag/cell

     iteration # 37     ecut=    60.00 Ry     beta= 0.70
     Davidson diagonalization with overlap

---- Real-time Memory Report at c_bands before calling an iterative solver
           979 MiB given to the printing process from OS
             0 MiB allocation reported by mallinfo(arena+hblkhd)
          2776 MiB available memory on the node where the printing process lives
------------------
     ethr =  3.74E-08,  avg # of iterations =  7.5

     negative rho (up, down):  1.927E-04 1.986E-04

     total cpu time spent up to now is    57518.8 secs

     total energy              =   -5262.78255170 Ry
     estimated scf accuracy    <       0.00038022 Ry

     total magnetization       =    -0.00 Bohr mag/cell
     absolute magnetization    =     8.08 Bohr mag/cell

     iteration # 38     ecut=    60.00 Ry     beta= 0.70
     Davidson diagonalization with overlap

---- Real-time Memory Report at c_bands before calling an iterative solver
           979 MiB given to the printing process from OS
             0 MiB allocation reported by mallinfo(arena+hblkhd)
          2734 MiB available memory on the node where the printing process lives
------------------
     ethr =  3.74E-08,  avg # of iterations =  6.0

     negative rho (up, down):  2.010E-04 1.994E-04

     total cpu time spent up to now is    59106.3 secs

     total energy              =   -5262.78256120 Ry
     estimated scf accuracy    <       0.00003043 Ry

     total magnetization       =     0.00 Bohr mag/cell
     absolute magnetization    =     8.08 Bohr mag/cell

     iteration # 39     ecut=    60.00 Ry     beta= 0.70
     Davidson diagonalization with overlap

---- Real-time Memory Report at c_bands before calling an iterative solver
           979 MiB given to the printing process from OS
             0 MiB allocation reported by mallinfo(arena+hblkhd)
          2716 MiB available memory on the node where the printing process lives
------------------
     ethr =  5.81E-09,  avg # of iterations =  8.0

     negative rho (up, down):  1.992E-04 1.991E-04

     total cpu time spent up to now is    60920.2 secs

     total energy              =   -5262.78283614 Ry
     estimated scf accuracy    <       0.00007319 Ry

     total magnetization       =     0.00 Bohr mag/cell
     absolute magnetization    =     8.08 Bohr mag/cell

     iteration # 40     ecut=    60.00 Ry     beta= 0.70
     Davidson diagonalization with overlap

---- Real-time Memory Report at c_bands before calling an iterative solver
           979 MiB given to the printing process from OS
             0 MiB allocation reported by mallinfo(arena+hblkhd)
          2779 MiB available memory on the node where the printing process lives
------------------
     ethr =  5.81E-09,  avg # of iterations =  5.0

     negative rho (up, down):  1.994E-04 1.991E-04

     total cpu time spent up to now is    62407.5 secs

     total energy              =   -5262.78285417 Ry
     estimated scf accuracy    <       0.00000651 Ry

     total magnetization       =     0.00 Bohr mag/cell
     absolute magnetization    =     8.08 Bohr mag/cell

     iteration # 41     ecut=    60.00 Ry     beta= 0.70
     Davidson diagonalization with overlap

---- Real-time Memory Report at c_bands before calling an iterative solver
           979 MiB given to the printing process from OS
             0 MiB allocation reported by mallinfo(arena+hblkhd)
          2749 MiB available memory on the node where the printing process lives
------------------
     ethr =  1.24E-09,  avg # of iterations =  5.6

     negative rho (up, down):  1.986E-04 1.988E-04

     total cpu time spent up to now is    63906.5 secs

     total energy              =   -5262.78285428 Ry
     estimated scf accuracy    <       0.00000295 Ry

     total magnetization       =     0.00 Bohr mag/cell
     absolute magnetization    =     8.08 Bohr mag/cell

     iteration # 42     ecut=    60.00 Ry     beta= 0.70
     Davidson diagonalization with overlap

---- Real-time Memory Report at c_bands before calling an iterative solver
           979 MiB given to the printing process from OS
             0 MiB allocation reported by mallinfo(arena+hblkhd)
          2757 MiB available memory on the node where the printing process lives
------------------
     ethr =  5.62E-10,  avg # of iterations =  7.5

     negative rho (up, down):  1.986E-04 1.988E-04

     Magnetic moment per site  (integrated on atomic sphere of radius R)
     atom   1 (R=0.106)  charge=  7.5085  magn= -0.0000
     atom   2 (R=0.106)  charge=  7.5085  magn= -0.0000
     atom   3 (R=0.106)  charge=  7.5130  magn= -0.0000
     atom   4 (R=0.106)  charge=  7.5130  magn=  0.0000
     atom   5 (R=0.078)  charge=  8.0967  magn=  0.0000
     atom   6 (R=0.078)  charge=  8.0967  magn=  0.0000
     atom   7 (R=0.078)  charge=  8.0994  magn=  0.0000
     atom   8 (R=0.078)  charge=  8.0994  magn=  0.0000
     atom   9 (R=0.078)  charge=  8.0942  magn=  0.0000
     atom  10 (R=0.078)  charge=  8.0942  magn=  0.0000
     atom  11 (R=0.078)  charge=  8.0974  magn=  0.0001
     atom  12 (R=0.078)  charge=  8.0974  magn= -0.0001
     atom  13 (R=0.078)  charge=  8.1033  magn=  0.0005
     atom  14 (R=0.078)  charge=  8.1033  magn= -0.0005
     atom  15 (R=0.080)  charge= 13.3589  magn=  3.3151
     atom  16 (R=0.080)  charge= 13.3589  magn= -3.3151
     atom  17 (R=0.063)  charge=  0.5498  magn=  0.0000
     atom  18 (R=0.063)  charge=  0.5498  magn= -0.0000
     atom  19 (R=0.063)  charge=  0.5498  magn=  0.0000
     atom  20 (R=0.063)  charge=  0.5498  magn= -0.0000
     atom  21 (R=0.063)  charge=  0.5426  magn=  0.0000
     atom  22 (R=0.063)  charge=  0.5426  magn= -0.0000
     atom  23 (R=0.063)  charge=  0.5426  magn=  0.0000
     atom  24 (R=0.063)  charge=  0.5426  magn= -0.0000
     atom  25 (R=0.063)  charge=  0.5413  magn=  0.0010
     atom  26 (R=0.063)  charge=  0.5413  magn= -0.0010
     atom  27 (R=0.063)  charge=  0.5413  magn=  0.0010
     atom  28 (R=0.063)  charge=  0.5413  magn= -0.0010
     atom  29 (R=0.067)  charge=  0.3363  magn=  0.0011
     atom  30 (R=0.067)  charge=  0.3363  magn= -0.0011
     atom  31 (R=0.067)  charge=  0.3363  magn=  0.0011
     atom  32 (R=0.067)  charge=  0.3363  magn= -0.0011
     atom  33 (R=0.038)  charge=  1.9392  magn= -0.0003
     atom  34 (R=0.038)  charge=  1.9392  magn=  0.0003
     atom  35 (R=0.038)  charge=  1.9392  magn= -0.0003
     atom  36 (R=0.038)  charge=  1.9392  magn=  0.0003
     atom  37 (R=0.038)  charge=  1.9406  magn= -0.0001
     atom  38 (R=0.038)  charge=  1.9406  magn=  0.0001
     atom  39 (R=0.038)  charge=  1.9406  magn= -0.0001
     atom  40 (R=0.038)  charge=  1.9406  magn=  0.0001
     atom  41 (R=0.038)  charge=  1.9360  magn=  0.0146
     atom  42 (R=0.038)  charge=  1.9360  magn= -0.0146
     atom  43 (R=0.038)  charge=  1.9360  magn=  0.0146
     atom  44 (R=0.038)  charge=  1.9360  magn= -0.0146
     atom  45 (R=0.038)  charge=  1.9349  magn=  0.0267
     atom  46 (R=0.038)  charge=  1.9349  magn= -0.0267
     atom  47 (R=0.038)  charge=  1.9349  magn=  0.0267
     atom  48 (R=0.038)  charge=  1.9349  magn= -0.0267
     atom  49 (R=0.038)  charge=  1.9410  magn=  0.0003
     atom  50 (R=0.038)  charge=  1.9410  magn= -0.0003
     atom  51 (R=0.038)  charge=  1.9410  magn=  0.0003
     atom  52 (R=0.038)  charge=  1.9410  magn= -0.0003
     atom  53 (R=0.038)  charge=  1.9452  magn= -0.0000
     atom  54 (R=0.038)  charge=  1.9452  magn=  0.0000
     atom  55 (R=0.038)  charge=  1.9452  magn= -0.0000
     atom  56 (R=0.038)  charge=  1.9452  magn=  0.0000
     atom  57 (R=0.038)  charge=  1.9440  magn=  0.0003
     atom  58 (R=0.038)  charge=  1.9440  magn= -0.0003
     atom  59 (R=0.038)  charge=  1.9440  magn=  0.0003
     atom  60 (R=0.038)  charge=  1.9440  magn= -0.0003
     atom  61 (R=0.038)  charge=  1.9438  magn=  0.0006
     atom  62 (R=0.038)  charge=  1.9438  magn= -0.0006
     atom  63 (R=0.038)  charge=  1.9438  magn=  0.0006
     atom  64 (R=0.038)  charge=  1.9438  magn= -0.0006
     atom  65 (R=0.038)  charge=  1.9406  magn= -0.0003
     atom  66 (R=0.038)  charge=  1.9406  magn=  0.0003
     atom  67 (R=0.038)  charge=  1.9406  magn= -0.0003
     atom  68 (R=0.038)  charge=  1.9406  magn=  0.0003
     atom  69 (R=0.038)  charge=  1.9392  magn=  0.0005
     atom  70 (R=0.038)  charge=  1.9392  magn= -0.0005
     atom  71 (R=0.038)  charge=  1.9392  magn=  0.0005
     atom  72 (R=0.038)  charge=  1.9392  magn= -0.0005
     atom  73 (R=0.038)  charge=  1.9357  magn=  0.0205
     atom  74 (R=0.038)  charge=  1.9357  magn= -0.0205
     atom  75 (R=0.038)  charge=  1.9357  magn=  0.0205
     atom  76 (R=0.038)  charge=  1.9357  magn= -0.0205
     atom  77 (R=0.038)  charge=  1.9410  magn=  0.0006
     atom  78 (R=0.038)  charge=  1.9410  magn= -0.0006
     atom  79 (R=0.038)  charge=  1.9410  magn=  0.0006
     atom  80 (R=0.038)  charge=  1.9410  magn= -0.0006
     atom  81 (R=0.038)  charge=  0.4014  magn=  0.0000
     atom  82 (R=0.038)  charge=  0.4014  magn=  0.0000
     atom  83 (R=0.038)  charge=  0.4014  magn=  0.0000
     atom  84 (R=0.038)  charge=  0.4014  magn=  0.0000
     atom  85 (R=0.038)  charge=  0.3996  magn= -0.0000
     atom  86 (R=0.038)  charge=  0.3996  magn=  0.0000
     atom  87 (R=0.038)  charge=  0.3996  magn= -0.0000
     atom  88 (R=0.038)  charge=  0.3996  magn=  0.0000

     total cpu time spent up to now is    65790.5 secs

     End of self-consistent calculation

 ------ SPIN UP ------------


          k = 0.0000 0.0000 0.0000 ( 51993 PWs)   bands (ev):

   -81.2439 -77.1069 -67.5185 -67.5180 -67.5164 -67.5160 -67.4478 -67.4478
   -66.9780 -66.9779 -66.9680 -66.9676 -48.2684 -47.1054 -46.5239 -43.5754
   -43.2281 -42.9898 -34.2949 -34.2911 -34.2843 -34.2752 -34.2747 -34.2704
   -34.2674 -34.2654 -34.2580 -34.2575 -34.2526 -34.2523 -34.2098 -34.2093
   -34.2080 -34.2074 -34.1813 -34.1810 -33.7529 -33.7492 -33.7489 -33.7430
   -33.7364 -33.7346 -33.7163 -33.7163 -33.7122 -33.7110 -33.6965 -33.6948
   -23.0102 -23.0096 -22.9990 -22.9984 -15.0393 -14.9831 -14.6651 -14.6201
   -14.4034 -14.3622 -14.0953 -14.0471 -13.8363 -13.7986 -13.5900 -13.5640
   -13.3584 -13.2404 -13.2178 -13.1120 -13.0433 -13.0311 -12.9875 -12.9474
   -12.8902 -12.8758 -12.8461 -12.8360 -12.8151 -12.7894 -12.7859 -12.7659
   -12.7375 -12.7200 -12.6317 -12.6166 -12.5729 -12.5124 -12.4833 -12.4224
   -12.4152 -12.3394 -12.2287 -12.2211 -12.1864 -12.1527 -12.0706 -12.0474
   -11.3023 -11.1953 -11.0815 -10.9749  -6.5942  -6.5879  -6.5732  -6.5623
    -6.4972  -6.4936  -6.4879  -6.4844  -6.4836  -6.4786  -6.4747  -6.4715
    -4.2333  -4.1756  -3.2946  -3.2209  -2.7726  -2.6985  -2.3708  -2.2693
    -1.8032  -1.6969  -1.5995  -1.3447  -1.2369  -1.2341  -1.1445  -1.1076
    -1.0330  -0.9586  -0.9128  -0.7366  -0.6786  -0.6445  -0.6095  -0.5630
    -0.3824  -0.3563  -0.3026  -0.2562  -0.2506  -0.2056  -0.1232  -0.1217
    -0.0032   0.0409   0.0731   0.0945   0.2226   0.4281   0.4582   0.4737
     0.5062   0.6230   0.6326   0.6391   0.6766   0.6770   0.7152   0.8781
     0.9177   0.9638   1.0661   1.1299   1.1559   1.1715   1.2624   1.2982
     1.4055   1.4576   1.4912   1.5160   1.5274   1.5524   1.5615   1.6747
     1.6914   1.7076   1.7848   1.8148   1.8353   1.8384   2.0063   2.0839
     2.1033   2.1427   2.2047   2.2296   2.2543   2.3266   2.3565   2.3941
     2.4173   2.4184   2.4546   2.5904   2.6019   2.6641   2.6935   2.7046
     2.7215   2.7341   2.7621   2.7711   2.8268   2.8280   2.8671   2.9019
     2.9539   2.9596   3.0044   3.0257   3.0327   3.0450   3.0576   3.1038
     3.1258   3.1826   3.1994   3.2073   3.2794   3.2933   3.2973   3.3293
     3.3462   3.3938   3.3975   3.4256   3.4452   3.4832   3.4924   3.5354
     3.5707   3.5766   3.5885   3.6313   3.6755   3.7534   3.7563   3.7656
     3.7918   3.8423   3.8456   3.8614   3.8962   3.8979   3.9630   3.9737
     3.9783   3.9857   4.0930   4.1406   4.2103   4.3121   4.3885   4.4513
     5.2283   5.2859   6.4444   6.8490   7.0307   8.2701   8.7918   8.8987
     9.1079  10.0107  10.4746  10.6268  10.9945  11.1512  11.2900  11.5732
    11.7239  11.7404  11.9371  11.9651  12.0091  12.1100  12.2171  12.4493
    12.4886  12.5272  12.6118  12.6896  12.7163  12.9970  13.0177  13.0277
    13.0726  13.1126  13.2626  13.2727  13.2931  13.3281  13.4924  13.4943
    13.5479  13.6174  13.6473  13.7252  13.7714  13.7777  13.7851  13.8055
    13.9694  14.0032  14.0038  14.0627  14.0642  14.2519  14.2796  14.2921
    14.2987  14.3647

     occupation numbers 
     1.0000   1.0000   1.0000   1.0000   1.0000   1.0000   1.0000   1.0000
     1.0000   1.0000   1.0000   1.0000   1.0000   1.0000   1.0000   1.0000
     1.0000   1.0000   1.0000   1.0000   1.0000   1.0000   1.0000   1.0000
     1.0000   1.0000   1.0000   1.0000   1.0000   1.0000   1.0000   1.0000
     1.0000   1.0000   1.0000   1.0000   1.0000   1.0000   1.0000   1.0000
     1.0000   1.0000   1.0000   1.0000   1.0000   1.0000   1.0000   1.0000
     1.0000   1.0000   1.0000   1.0000   1.0000   1.0000   1.0000   1.0000
     1.0000   1.0000   1.0000   1.0000   1.0000   1.0000   1.0000   1.0000
     1.0000   1.0000   1.0000   1.0000   1.0000   1.0000   1.0000   1.0000
     1.0000   1.0000   1.0000   1.0000   1.0000   1.0000   1.0000   1.0000
     1.0000   1.0000   1.0000   1.0000   1.0000   1.0000   1.0000   1.0000
     1.0000   1.0000   1.0000   1.0000   1.0000   1.0000   1.0000   1.0000
     1.0000   1.0000   1.0000   1.0000   1.0000   1.0000   1.0000   1.0000
     1.0000   1.0000   1.0000   1.0000   1.0000   1.0000   1.0000   1.0000
     1.0000   1.0000   1.0000   1.0000   1.0000   1.0000   1.0000   1.0000
     1.0000   1.0000   1.0000   1.0000   1.0000   1.0000   1.0000   1.0000
     1.0000   1.0000   1.0000   1.0000   1.0000   1.0000   1.0000   1.0000
     1.0000   1.0000   1.0000   1.0000   1.0000   1.0000   1.0000   1.0000
     1.0000   1.0000   1.0000   1.0000   1.0000   1.0000   1.0000   1.0000
     1.0000   1.0000   1.0000   1.0000   1.0000   1.0000   1.0000   1.0000
     1.0000   1.0000   1.0000   1.0000   1.0000   1.0000   1.0000   1.0000
     1.0000   1.0000   1.0000   1.0000   1.0000   1.0000   1.0000   1.0000
     1.0000   1.0000   1.0000   1.0000   1.0000   1.0000   1.0000   1.0000
     1.0000   1.0000   1.0000   1.0000   1.0000   1.0000   1.0000   1.0000
     1.0000   1.0000   1.0000   1.0000   1.0000   1.0000   1.0000   1.0000
     1.0000   1.0000   1.0000   1.0000   1.0000   1.0000   1.0000   1.0000
     1.0000   1.0000   1.0000   1.0000   1.0000   1.0000   1.0000   1.0000
     1.0000   1.0000   1.0000   1.0000   1.0000   1.0000   1.0000   1.0000
     1.0000   1.0000   1.0000   1.0000   1.0000   1.0000   1.0000   1.0000
     1.0000   1.0000   1.0000   1.0000   1.0000   1.0000   1.0000   1.0000
     1.0000   1.0000   1.0000   1.0000   1.0000   1.0000   1.0000   1.0000
     1.0000   1.0000   1.0000   1.0000   1.0000   1.0000   1.0000   1.0000
     1.0000   1.0000   1.0000   1.0000   1.0000   1.0000   0.0000   0.0000
     0.0000   0.0000   0.0000   0.0000   0.0000   0.0000   0.0000   0.0000
     0.0000   0.0000   0.0000   0.0000   0.0000   0.0000   0.0000   0.0000
     0.0000   0.0000   0.0000   0.0000   0.0000   0.0000   0.0000   0.0000
     0.0000   0.0000   0.0000   0.0000   0.0000   0.0000   0.0000   0.0000
     0.0000   0.0000   0.0000   0.0000   0.0000   0.0000   0.0000   0.0000
     0.0000   0.0000   0.0000   0.0000   0.0000   0.0000   0.0000   0.0000
     0.0000   0.0000

          k = 0.0000 0.0000 0.3524 ( 52059 PWs)   bands (ev):

   -81.2439 -77.1069 -67.5185 -67.5180 -67.5164 -67.5160 -67.4478 -67.4478
   -66.9780 -66.9779 -66.9680 -66.9676 -48.2685 -47.1054 -46.5239 -43.5755
   -43.2281 -42.9899 -34.2949 -34.2911 -34.2843 -34.2752 -34.2747 -34.2704
   -34.2675 -34.2654 -34.2580 -34.2575 -34.2526 -34.2523 -34.2098 -34.2093
   -34.2080 -34.2075 -34.1813 -34.1810 -33.7529 -33.7492 -33.7489 -33.7430
   -33.7364 -33.7346 -33.7163 -33.7163 -33.7123 -33.7110 -33.6965 -33.6948
   -23.0102 -23.0096 -22.9990 -22.9984 -15.0258 -14.9976 -14.6569 -14.6290
   -14.3961 -14.3697 -14.0838 -14.0591 -13.8316 -13.8035 -13.5906 -13.5635
   -13.3470 -13.2613 -13.2089 -13.1122 -13.0425 -13.0272 -12.9808 -12.9333
   -12.9046 -12.8956 -12.8396 -12.8376 -12.8093 -12.7981 -12.7805 -12.7664
   -12.7345 -12.7119 -12.6347 -12.6208 -12.5666 -12.5234 -12.4755 -12.4305
   -12.3965 -12.3533 -12.2370 -12.2034 -12.1881 -12.1424 -12.0780 -12.0565
   -11.3015 -11.1945 -11.0826 -10.9759  -6.5944  -6.5880  -6.5733  -6.5624
    -6.4972  -6.4936  -6.4878  -6.4843  -6.4836  -6.4785  -6.4745  -6.4715
    -4.2320  -4.1773  -3.2771  -3.2390  -2.7560  -2.7177  -2.3475  -2.2971
    -1.7702  -1.6825  -1.6150  -1.3328  -1.2401  -1.2244  -1.1442  -1.1027
    -1.0306  -0.9773  -0.9049  -0.7150  -0.6687  -0.6142  -0.6091  -0.5746
    -0.4241  -0.3280  -0.2986  -0.2746  -0.2375  -0.2177  -0.1930  -0.1672
    -0.0575   0.0442   0.0545   0.1339   0.1802   0.4257   0.4439   0.4805
     0.4989   0.5752   0.6165   0.6256   0.6686   0.7268   0.7356   0.9161
     0.9585   0.9861   1.0759   1.1213   1.1914   1.2123   1.2338   1.3058
     1.3809   1.4383   1.4660   1.4862   1.5246   1.5951   1.6193   1.6728
     1.6988   1.7200   1.8086   1.8479   1.8737   1.9097   2.0740   2.0880
     2.1189   2.1453   2.1836   2.2162   2.2597   2.3303   2.3431   2.3529
     2.3716   2.4162   2.4772   2.5871   2.5951   2.5985   2.6648   2.6862
     2.6915   2.6950   2.7134   2.7841   2.8164   2.8232   2.8372   2.8497
     2.9314   2.9727   2.9943   3.0434   3.0750   3.0896   3.1069   3.1100
     3.1323   3.1499   3.1795   3.1838   3.2921   3.3064   3.3408   3.3547
     3.3681   3.4089   3.4134   3.4257   3.4321   3.4618   3.4928   3.5505
     3.5797   3.6006   3.6383   3.6438   3.6752   3.7151   3.7351   3.7674
     3.7736   3.7921   3.8141   3.8316   3.8577   3.8956   3.9225   3.9487
     3.9650   4.0293   4.0846   4.1845   4.2617   4.3360   4.3839   4.4554
     5.2255   5.2862   6.4449   6.8430   7.0331   8.2714   8.7932   8.8980
     9.4182  10.0010  10.1454  10.4877  11.0447  11.2796  11.3533  11.4519
    11.6358  11.7346  11.8067  12.0376  12.1078  12.1335  12.1859  12.4934
    12.5382  12.5750  12.6251  12.6935  12.8210  12.9329  12.9522  13.0406
    13.0638  13.1917  13.2245  13.2381  13.3223  13.3660  13.4332  13.4910
    13.4987  13.5391  13.6426  13.6797  13.7358  13.7455  13.7805  13.8929
    13.9134  14.0099  14.0315  14.0646  14.0826  14.1854  14.2950  14.3134
    14.3316  14.3582

     occupation numbers 
     1.0000   1.0000   1.0000   1.0000   1.0000   1.0000   1.0000   1.0000
     1.0000   1.0000   1.0000   1.0000   1.0000   1.0000   1.0000   1.0000
     1.0000   1.0000   1.0000   1.0000   1.0000   1.0000   1.0000   1.0000
     1.0000   1.0000   1.0000   1.0000   1.0000   1.0000   1.0000   1.0000
     1.0000   1.0000   1.0000   1.0000   1.0000   1.0000   1.0000   1.0000
     1.0000   1.0000   1.0000   1.0000   1.0000   1.0000   1.0000   1.0000
     1.0000   1.0000   1.0000   1.0000   1.0000   1.0000   1.0000   1.0000
     1.0000   1.0000   1.0000   1.0000   1.0000   1.0000   1.0000   1.0000
     1.0000   1.0000   1.0000   1.0000   1.0000   1.0000   1.0000   1.0000
     1.0000   1.0000   1.0000   1.0000   1.0000   1.0000   1.0000   1.0000
     1.0000   1.0000   1.0000   1.0000   1.0000   1.0000   1.0000   1.0000
     1.0000   1.0000   1.0000   1.0000   1.0000   1.0000   1.0000   1.0000
     1.0000   1.0000   1.0000   1.0000   1.0000   1.0000   1.0000   1.0000
     1.0000   1.0000   1.0000   1.0000   1.0000   1.0000   1.0000   1.0000
     1.0000   1.0000   1.0000   1.0000   1.0000   1.0000   1.0000   1.0000
     1.0000   1.0000   1.0000   1.0000   1.0000   1.0000   1.0000   1.0000
     1.0000   1.0000   1.0000   1.0000   1.0000   1.0000   1.0000   1.0000
     1.0000   1.0000   1.0000   1.0000   1.0000   1.0000   1.0000   1.0000
     1.0000   1.0000   1.0000   1.0000   1.0000   1.0000   1.0000   1.0000
     1.0000   1.0000   1.0000   1.0000   1.0000   1.0000   1.0000   1.0000
     1.0000   1.0000   1.0000   1.0000   1.0000   1.0000   1.0000   1.0000
     1.0000   1.0000   1.0000   1.0000   1.0000   1.0000   1.0000   1.0000
     1.0000   1.0000   1.0000   1.0000   1.0000   1.0000   1.0000   1.0000
     1.0000   1.0000   1.0000   1.0000   1.0000   1.0000   1.0000   1.0000
     1.0000   1.0000   1.0000   1.0000   1.0000   1.0000   1.0000   1.0000
     1.0000   1.0000   1.0000   1.0000   1.0000   1.0000   1.0000   1.0000
     1.0000   1.0000   1.0000   1.0000   1.0000   1.0000   1.0000   1.0000
     1.0000   1.0000   1.0000   1.0000   1.0000   1.0000   1.0000   1.0000
     1.0000   1.0000   1.0000   1.0000   1.0000   1.0000   1.0000   1.0000
     1.0000   1.0000   1.0000   1.0000   1.0000   1.0000   1.0000   1.0000
     1.0000   1.0000   1.0000   1.0000   1.0000   1.0000   1.0000   1.0000
     1.0000   1.0000   1.0000   1.0000   1.0000   1.0000   1.0000   1.0000
     1.0000   1.0000   1.0000   1.0000   1.0000   1.0000   0.0000   0.0000
     0.0000   0.0000   0.0000   0.0000   0.0000   0.0000   0.0000   0.0000
     0.0000   0.0000   0.0000   0.0000   0.0000   0.0000   0.0000   0.0000
     0.0000   0.0000   0.0000   0.0000   0.0000   0.0000   0.0000   0.0000
[...]
     atom   11 type  6   force =     0.00000000   -0.00002891    0.00000000
     atom   12 type  6   force =    -0.00000000    0.00029021    0.00000000
     atom   13 type  6   force =     0.00000000    0.00012648    0.00000000
     atom   14 type  6   force =    -0.00000000   -0.00018831    0.00000000
     atom   15 type  2   force =     0.00000001   -0.00025846    0.00000000
     atom   16 type  3   force =    -0.00000001   -0.00021009   -0.00000000
     atom   17 type  8   force =     0.00001432   -0.00000507    0.00006224
     atom   18 type  8   force =    -0.00002309   -0.00002723    0.00003883
     atom   19 type  8   force =    -0.00001432   -0.00000507   -0.00006224
     atom   20 type  8   force =     0.00002309   -0.00002723   -0.00003883
     atom   21 type  8   force =    -0.00000053   -0.00000214   -0.00002158
     atom   22 type  8   force =     0.00000294    0.00001924   -0.00001767
     atom   23 type  8   force =     0.00000053   -0.00000214    0.00002158
     atom   24 type  8   force =    -0.00000294    0.00001924    0.00001767
     atom   25 type  8   force =    -0.00002175   -0.00000502    0.00006355
     atom   26 type  8   force =     0.00002807    0.00004270   -0.00006712
     atom   27 type  8   force =     0.00002175   -0.00000502   -0.00006355
     atom   28 type  8   force =    -0.00002807    0.00004270    0.00006712
     atom   29 type  1   force =     0.00001691    0.00000131   -0.00006126
     atom   30 type  1   force =    -0.00002023   -0.00001583    0.00000622
     atom   31 type  1   force =    -0.00001691    0.00000131    0.00006126
     atom   32 type  1   force =     0.00002023   -0.00001583   -0.00000622
     atom   33 type  7   force =     0.00008860    0.00001579    0.00010886
     atom   34 type  7   force =    -0.00009222   -0.00006445    0.00004880
     atom   35 type  7   force =    -0.00008860    0.00001579   -0.00010886
     atom   36 type  7   force =     0.00009223   -0.00006445   -0.00004880
     atom   37 type  7   force =    -0.00006161    0.00002331   -0.00003978
     atom   38 type  7   force =     0.00007215    0.00009632   -0.00000549
     atom   39 type  7   force =     0.00006161    0.00002331    0.00003978
     atom   40 type  7   force =    -0.00007215    0.00009632    0.00000549
     atom   41 type  7   force =    -0.00008944   -0.00004224    0.00009808
     atom   42 type  7   force =     0.00013446    0.00021613   -0.00017312
     atom   43 type  7   force =     0.00008944   -0.00004224   -0.00009808
     atom   44 type  7   force =    -0.00013446    0.00021613    0.00017312
     atom   45 type  7   force =     0.00011501    0.00002188   -0.00014034
     atom   46 type  7   force =    -0.00015401   -0.00023975    0.00008474
     atom   47 type  7   force =    -0.00011501    0.00002188    0.00014034
     atom   48 type  7   force =     0.00015401   -0.00023975   -0.00008474
     atom   49 type  7   force =     0.00001129    0.00000785    0.00009783
     atom   50 type  7   force =     0.00000013   -0.00004145    0.00000995
     atom   51 type  7   force =    -0.00001129    0.00000785   -0.00009783
     atom   52 type  7   force =    -0.00000013   -0.00004145   -0.00000995
     atom   53 type  7   force =    -0.00000761   -0.00001777    0.00004320
     atom   54 type  7   force =     0.00000708   -0.00003969    0.00004779
     atom   55 type  7   force =     0.00000761   -0.00001777   -0.00004320
     atom   56 type  7   force =    -0.00000708   -0.00003969   -0.00004779
     atom   57 type  7   force =     0.00002992    0.00001218   -0.00005749
     atom   58 type  7   force =    -0.00002552    0.00002545    0.00002765
     atom   59 type  7   force =    -0.00002992    0.00001218    0.00005749
     atom   60 type  7   force =     0.00002552    0.00002545   -0.00002765
     atom   61 type  7   force =    -0.00000232    0.00002286    0.00002706
     atom   62 type  7   force =     0.00001094    0.00002128    0.00000131
     atom   63 type  7   force =     0.00000232    0.00002286   -0.00002706
     atom   64 type  7   force =    -0.00001094    0.00002128   -0.00000131
     atom   65 type  7   force =    -0.00002992   -0.00001116    0.00009917
     atom   66 type  7   force =     0.00002641    0.00004463   -0.00008308
     atom   67 type  7   force =     0.00002992   -0.00001116   -0.00009917
     atom   68 type  7   force =    -0.00002641    0.00004463    0.00008308
     atom   69 type  7   force =     0.00003875   -0.00001526   -0.00005151
     atom   70 type  7   force =    -0.00002722   -0.00000727   -0.00003598
     atom   71 type  7   force =    -0.00003875   -0.00001526    0.00005151
     atom   72 type  7   force =     0.00002722   -0.00000727    0.00003598
     atom   73 type  7   force =     0.00018975   -0.00002680    0.00005647
     atom   74 type  7   force =    -0.00025434   -0.00002414   -0.00013670
     atom   75 type  7   force =    -0.00018975   -0.00002680   -0.00005647
     atom   76 type  7   force =     0.00025434   -0.00002414    0.00013670
     atom   77 type  7   force =    -0.00002874    0.00004201    0.00008213
     atom   78 type  7   force =     0.00003186    0.00000884    0.00003104
     atom   79 type  7   force =     0.00002874    0.00004201   -0.00008213
     atom   80 type  7   force =    -0.00003186    0.00000884   -0.00003104
     atom   81 type  4   force =     0.00001818   -0.00000281   -0.00000044
     atom   82 type  4   force =    -0.00001951   -0.00000320   -0.00003140
     atom   83 type  4   force =    -0.00001818   -0.00000281    0.00000044
     atom   84 type  4   force =     0.00001951   -0.00000320    0.00003140
     atom   85 type  4   force =    -0.00000286    0.00000345    0.00001638
     atom   86 type  4   force =     0.00000385   -0.00000324    0.00001297
     atom   87 type  4   force =     0.00000286    0.00000345   -0.00001638
     atom   88 type  4   force =    -0.00000385   -0.00000324   -0.00001297

     Dispersion contribution to forces:
     atom    1 type  5   force =     0.00000006    0.00240195    0.00000004
     atom    2 type  5   force =    -0.00000008    0.00240195   -0.00000004
     atom    3 type  5   force =    -0.00000001   -0.00189941   -0.00000001
     atom    4 type  5   force =    -0.00000001   -0.00189939   -0.00000001
     atom    5 type  6   force =     0.00000003    0.00051920    0.00000001
     atom    6 type  6   force =    -0.00000003    0.00051920   -0.00000001
     atom    7 type  6   force =     0.00000014   -0.00226190   -0.00000019
     atom    8 type  6   force =    -0.00000015   -0.00226191    0.00000018
     atom    9 type  6   force =     0.00000044    0.00079816   -0.00000012
     atom   10 type  6   force =    -0.00000044    0.00079816    0.00000013
     atom   11 type  6   force =     0.00000000    0.00238783    0.00000000
     atom   12 type  6   force =     0.00000000    0.00238786    0.00000001
     atom   13 type  6   force =     0.00000000   -0.00389522   -0.00000000
     atom   14 type  6   force =    -0.00000000   -0.00389589   -0.00000000
     atom   15 type  2   force =     0.00000001    0.00308403    0.00000000
     atom   16 type  3   force =     0.00000000    0.00308485    0.00000000
     atom   17 type  8   force =    -0.00014864   -0.00044831    0.00146043
     atom   18 type  8   force =    -0.00014870   -0.00044825    0.00146059
     atom   19 type  8   force =     0.00014864   -0.00044831   -0.00146043
     atom   20 type  8   force =     0.00014870   -0.00044825   -0.00146058
     atom   21 type  8   force =    -0.00008795    0.00016351   -0.00089170
     atom   22 type  8   force =    -0.00008788    0.00016343   -0.00089188
     atom   23 type  8   force =     0.00008795    0.00016351    0.00089169
     atom   24 type  8   force =     0.00008789    0.00016343    0.00089187
     atom   25 type  8   force =     0.00044524    0.00156729   -0.00044177
     atom   26 type  8   force =     0.00044529    0.00156725   -0.00044179
     atom   27 type  8   force =    -0.00044524    0.00156729    0.00044176
     atom   28 type  8   force =    -0.00044530    0.00156725    0.00044179
     atom   29 type  1   force =    -0.00074784   -0.00146243   -0.00142580
     atom   30 type  1   force =    -0.00074784   -0.00146237   -0.00142559
     atom   31 type  1   force =     0.00074784   -0.00146243    0.00142581
     atom   32 type  1   force =     0.00074784   -0.00146237    0.00142560
     atom   33 type  7   force =    -0.00015308    0.00015859    0.00038815
     atom   34 type  7   force =    -0.00015308    0.00015856    0.00038807
     atom   35 type  7   force =     0.00015308    0.00015859   -0.00038814
     atom   36 type  7   force =     0.00015309    0.00015856   -0.00038806
     atom   37 type  7   force =     0.00010083   -0.00017578   -0.00026988
     atom   38 type  7   force =     0.00010085   -0.00017578   -0.00026977
     atom   39 type  7   force =    -0.00010083   -0.00017578    0.00026988
     atom   40 type  7   force =    -0.00010085   -0.00017578    0.00026977
     atom   41 type  7   force =    -0.00015482   -0.00014714    0.00061055
     atom   42 type  7   force =    -0.00015478   -0.00014717    0.00061034
     atom   43 type  7   force =     0.00015482   -0.00014714   -0.00061055
     atom   44 type  7   force =     0.00015478   -0.00014717   -0.00061034
     atom   45 type  7   force =    -0.00016658   -0.00008600    0.00092041
     atom   46 type  7   force =    -0.00016662   -0.00008600    0.00092047
     atom   47 type  7   force =     0.00016658   -0.00008600   -0.00092041
     atom   48 type  7   force =     0.00016662   -0.00008600   -0.00092048
     atom   49 type  7   force =     0.00036529    0.00189525    0.00142019
     atom   50 type  7   force =     0.00036532    0.00189529    0.00142019
     atom   51 type  7   force =    -0.00036529    0.00189525   -0.00142019
     atom   52 type  7   force =    -0.00036532    0.00189529   -0.00142019
     atom   53 type  7   force =     0.00024215    0.00014401    0.00050954
     atom   54 type  7   force =     0.00024222    0.00014400    0.00050956
     atom   55 type  7   force =    -0.00024214    0.00014401   -0.00050953
     atom   56 type  7   force =    -0.00024221    0.00014400   -0.00050955
     atom   57 type  7   force =    -0.00001482    0.00008484    0.00001771
     atom   58 type  7   force =    -0.00001484    0.00008482    0.00001768
     atom   59 type  7   force =     0.00001482    0.00008484   -0.00001772
     atom   60 type  7   force =     0.00001483    0.00008482   -0.00001769
     atom   61 type  7   force =     0.00019783   -0.00031884   -0.00031464
     atom   62 type  7   force =     0.00019776   -0.00031887   -0.00031460
     atom   63 type  7   force =    -0.00019782   -0.00031884    0.00031464
     atom   64 type  7   force =    -0.00019775   -0.00031886    0.00031460
     atom   65 type  7   force =     0.00073153   -0.00152673    0.00109953
     atom   66 type  7   force =     0.00073165   -0.00152672    0.00109965
     atom   67 type  7   force =    -0.00073152   -0.00152673   -0.00109953
     atom   68 type  7   force =    -0.00073165   -0.00152672   -0.00109965
     atom   69 type  7   force =     0.00151940   -0.00030191   -0.00117616
     atom   70 type  7   force =     0.00151946   -0.00030190   -0.00117620
     atom   71 type  7   force =    -0.00151940   -0.00030191    0.00117616
     atom   72 type  7   force =    -0.00151946   -0.00030189    0.00117620
     atom   73 type  7   force =     0.00006159    0.00013247   -0.00214994
     atom   74 type  7   force =     0.00006159    0.00013246   -0.00214994
     atom   75 type  7   force =    -0.00006159    0.00013247    0.00214994
     atom   76 type  7   force =    -0.00006159    0.00013246    0.00214994
     atom   77 type  7   force =     0.00016162    0.00009709   -0.00243903
     atom   78 type  7   force =     0.00016162    0.00009708   -0.00243912
     atom   79 type  7   force =    -0.00016162    0.00009709    0.00243903
     atom   80 type  7   force =    -0.00016162    0.00009708    0.00243911
     atom   81 type  4   force =    -0.00074241   -0.00017906   -0.00013353
     atom   82 type  4   force =    -0.00074239   -0.00017907   -0.00013351
     atom   83 type  4   force =     0.00074241   -0.00017906    0.00013353
     atom   84 type  4   force =     0.00074239   -0.00017908    0.00013351
     atom   85 type  4   force =     0.00036388   -0.00016419    0.00085573
     atom   86 type  4   force =     0.00036387   -0.00016417    0.00085579
     atom   87 type  4   force =    -0.00036388   -0.00016419   -0.00085573
     atom   88 type  4   force =    -0.00036387   -0.00016417   -0.00085578

     Total force =     0.003331     Total SCF correction =     0.001325

     Total Dispersion Force =     0.015695
     SCF correction compared to forces is large: reduce conv_thr to get better values


     Computing stress (Cartesian axis) and pressure


     negative rho (up, down):  2.008E-04 2.008E-04
          total   stress  (Ry/bohr**3)                   (kbar)     P=        0.05
   0.00000170   0.00000000   0.00000083            0.25        0.00        0.12
   0.00000000   0.00000036   0.00000000            0.00        0.05        0.00
   0.00000083   0.00000000  -0.00000113            0.12        0.00       -0.17

     kinetic stress (kbar)  20791.56      0.00     18.23
                                0.00  20698.38      0.00
                               18.23      0.00  20534.23

     local   stress (kbar) -38404.33      0.00    141.70
                                0.00 -38284.29      0.00
                              141.70      0.00  17181.60

     nonloc. stress (kbar)   3916.20      0.00     -0.03
                                0.00   3919.03      0.00
                               -0.03      0.00   3896.28

     hartree stress (kbar)  21935.08      0.00    -51.90
                                0.00  21874.72     -0.00
                              -51.90     -0.00  -5243.44

     exc-cor stress (kbar)  -2912.23     -0.00     -0.05
                               -0.00  -2912.51     -0.00
                               -0.05     -0.00  -2908.86

     corecor stress (kbar)  -1916.79      0.00     -0.01
                                0.00  -1916.28      0.00
                               -0.01      0.00  -1918.64

     ewald   stress (kbar)  -3379.27     -0.00   -107.66
                               -0.00  -3349.15      0.00
                             -107.66      0.00 -31511.93

     hubbard stress (kbar)      0.00      0.00      0.00
                                0.00      0.00      0.00
                                0.00      0.00      0.00

     DFT-D   stress (kbar)    -29.97      0.00     -0.16
                                0.00    -29.86     -0.00
                               -0.16     -0.00    -29.40

     XDM     stress (kbar)      0.00      0.00      0.00
                                0.00      0.00      0.00
                                0.00      0.00      0.00

     dft-nl  stress (kbar)      0.00      0.00      0.00
                                0.00      0.00      0.00
                                0.00      0.00      0.00

     TS-vdW  stress (kbar)      0.00      0.00      0.00
                                0.00      0.00      0.00
                                0.00      0.00      0.00

     MDB     stress (kbar)      0.00      0.00      0.00
                                0.00      0.00      0.00
                                0.00      0.00      0.00

     3D-RISM stress (kbar)      0.00      0.00      0.00
                                0.00      0.00      0.00
                                0.00      0.00      0.00


     Writing all to output data dir ./temp/phl-fe1x2.save/ :
     XML data file, charge density, pseudopotentials, collected wavefunctions

     init_run     :   1028.42s CPU   1057.86s WALL (       2 calls)
     electrons    : 182743.17s CPU 187672.26s WALL (       3 calls)
     update_pot   :      4.51s CPU      5.36s WALL (       1 calls)
     forces       :   1292.81s CPU   1309.04s WALL (       3 calls)
     force_london :      1.83s CPU      1.86s WALL (       3 calls)
     stress       :   4624.35s CPU   4686.65s WALL (       3 calls)
     stres_london :      2.49s CPU      2.52s WALL (       3 calls)

     Called by init_run:
     wfcinit      :    991.13s CPU   1014.86s WALL (       2 calls)
     wfcinit:atom :      0.75s CPU      1.32s WALL (      40 calls)
     wfcinit:wfcr :    983.40s CPU   1005.37s WALL (      40 calls)
     potinit      :      8.88s CPU     11.07s WALL (       2 calls)
     hinit0       :      3.69s CPU      4.29s WALL (       2 calls)

     Called by electrons:
     c_bands      : 164397.74s CPU 168678.04s WALL (     112 calls)
     sum_band     :  16530.35s CPU  16944.48s WALL (     112 calls)
     v_of_rho     :     76.62s CPU     80.50s WALL (     114 calls)
     v_h          :      3.00s CPU      3.25s WALL (     114 calls)
     v_xc         :     77.47s CPU     81.38s WALL (     120 calls)
     newd         :   1358.82s CPU   1486.45s WALL (     114 calls)
     PAW_pot      :    402.16s CPU    510.84s WALL (     115 calls)
     mix_rho      :     19.22s CPU     20.27s WALL (     112 calls)
     energy_londo :      1.67s CPU      1.67s WALL (       3 calls)

     Called by c_bands:
     init_us_2    :    306.39s CPU    309.01s WALL (    4660 calls)
     cegterg      : 163812.76s CPU 168082.52s WALL (    2274 calls)

     Called by sum_band:
     sum_band:wei :      0.20s CPU      0.21s WALL (     112 calls)
     sum_band:loo :  13769.97s CPU  14012.04s WALL (     112 calls)
     sum_band:buf :     39.46s CPU     39.90s WALL (    2240 calls)
     sum_band:ini :    146.69s CPU    147.69s WALL (    2240 calls)
     sum_band:cal :  11043.89s CPU  11163.81s WALL (    2260 calls)
     sum_band:bec :     21.73s CPU     21.82s WALL (    2260 calls)
     addusdens    :   2741.69s CPU   2900.49s WALL (     112 calls)
                                        0.00s GPU  (     112 calls)
     addusd:skk   :     10.33s CPU     16.29s WALL (     896 calls)
                                        0.00s GPU  (     896 calls)

     Called by *egterg:
     cdiaghg      :   5199.01s CPU   6705.65s WALL (   13690 calls)
     cegterg:over :  19414.11s CPU  19976.82s WALL (   11488 calls)
     cegterg:upda :  11735.37s CPU  11928.23s WALL (   11488 calls)
     cegterg:last :  32216.25s CPU  32651.80s WALL (    4837 calls)
     cdiaghg:chol :    215.12s CPU    433.72s WALL (   13690 calls)
     cdiaghg:inve :     79.19s CPU    154.24s WALL (   13690 calls)
     cdiaghg:para :   2239.28s CPU   2834.00s WALL (   27380 calls)
     h_psi        :  63554.83s CPU  64598.06s WALL (   13802 calls)
     s_psi        :  26792.22s CPU  26881.75s WALL (   13802 calls)
     g_psi        :     52.82s CPU     53.04s WALL (   11488 calls)

     Called by h_psi:
     h_psi:calbec :  26963.31s CPU  27294.80s WALL (   13802 calls)
     vloc_psi     :   9750.65s CPU  10320.72s WALL (   13802 calls)
     add_vuspsi   :  26793.58s CPU  26882.77s WALL (   13802 calls)

     General routines
     calbec       :  39480.62s CPU  39954.38s WALL (   16362 calls)
     fft          :     44.54s CPU     49.86s WALL (    2967 calls)
     ffts         :      1.79s CPU      2.07s WALL (     452 calls)
     fftw         :   7426.53s CPU   7943.84s WALL ( 4168278 calls)
     interpolate  :      5.48s CPU      5.96s WALL (     228 calls)

     Parallel routines

     PAW routines
     PAW_pot      :    402.16s CPU    510.84s WALL (     115 calls)
     PAW_symme    :      0.22s CPU      0.33s WALL (     227 calls)

     PWSCF        :   2d 4h43m CPU   2d 6h 8m WALL


   This run was terminated on:  21:41:36  24Dec2024            

=------------------------------------------------------------------------------=
   JOB DONE.
=------------------------------------------------------------------------------=
