
     Program PWSCF v.7.3.1 starts on 30Dec2024 at 16: 8: 2 

     This program is part of the open-source Quantum ESPRESSO suite
     for quantum simulation of materials; please cite
         "P. Giannozzi et al., J. Phys.:Condens. Matter 21 395502 (2009);
         "P. Giannozzi et al., J. Phys.:Condens. Matter 29 465901 (2017);
         "P. Giannozzi et al., J. Chem. Phys. 152 154105 (2020);
          URL http://www.quantum-espresso.org", 
     in publications or presentations arising from this work. More details at
     http://www.quantum-espresso.org/quote

     Parallel version (MPI), running on     4 processors

     MPI processes distributed on     1 nodes
     3949 MiB available memory on the printing compute node when the environment starts

     Reading input from vc_relax.in

     Current dimensions of program PWSCF are:
     Max number of different atomic species (ntypx) = 10
     Max number of k-points (npk) =  40000
     Max angular momentum in pseudopotentials (lmaxx) =  4
     file Al.pbe-n-kjpaw_psl.1.0.0.UPF: wavefunction(s)  3S 3P renormalized
     file Fe.pbe-spn-kjpaw_psl.1.0.0.UPF: wavefunction(s)  3P 3D renormalized
     file H.pbe-kjpaw_psl.1.0.0.UPF: wavefunction(s)  1S renormalized
     file K.pbe-spn-kjpaw_psl.1.0.0.UPF: wavefunction(s)  3S renormalized
     file Mg.pbe-spnl-kjpaw_psl.1.0.0.UPF: wavefunction(s)  2P renormalized
     file O.pbe-n-kjpaw_psl.1.0.0.UPF: wavefunction(s)  2S 2P renormalized
     file Si.pbe-n-kjpaw_psl.1.0.0.UPF: wavefunction(s)  3S 3P renormalized

     R & G space division:  proc/nbgrp/npool/nimage =       4
     Subspace diagonalization in iterative solution of the eigenvalue problem:
     one sub-group per band group will be used
     custom distributed-memory algorithm (size of sub-group:  2*  2 procs)


     Parallelization info
     --------------------
     sticks:   dense  smooth     PW     G-vecs:    dense   smooth      PW
     Min        1652     828    225               145883    51599    7342
     Max        1653     829    226               145887    51603    7343
     Sum        6609    3313    901               583539   206401   29369

     Using Slab Decomposition



     bravais-lattice index     =          -12
     lattice parameter (alat)  =       9.9883  a.u.
     unit-cell volume          =    3285.8057 (a.u.)^3
     number of atoms/cell      =           44
     number of atomic types    =            7
     number of electrons       =       262.00
     number of Kohn-Sham states=          157
     kinetic-energy cutoff     =      60.0000  Ry
     charge density cutoff     =     480.0000  Ry
     scf convergence threshold =      1.0E-06
     mixing beta               =       0.7000
     number of iterations used =            8  plain     mixing
     energy convergence thresh.=      1.0E-04
     force convergence thresh. =      1.0E-03
     press convergence thresh. =      5.0E-01
     Exchange-correlation= SLA  PW   PBX  PBC
                           (   1   4   3   4   0   0   0)
     nstep                     =           50


     celldm(1)=   9.988336  celldm(2)=   1.736567  celldm(3)=   1.928182
     celldm(4)=   0.000000  celldm(5)=  -0.174018  celldm(6)=   0.000000

     crystal axes: (cart. coord. in units of alat)
               a(1) = (   1.000000   0.000000   0.000000 )  
               a(2) = (   0.000000   1.736567   0.000000 )  
               a(3) = (  -0.335538   0.000000   1.898763 )  

     reciprocal axes: (cart. coord. in units 2 pi/alat)
               b(1) = (  1.000000 -0.000000  0.176714 )  
               b(2) = (  0.000000  0.575849 -0.000000 )  
               b(3) = (  0.000000  0.000000  0.526659 )  


     PseudoPot. # 1 for Al read from file:
     ./../../pseudos/Al.pbe-n-kjpaw_psl.1.0.0.UPF
     MD5 check sum: 502b6b27b9c6270cab5dd1084b96fa6d
     Pseudo is Projector augmented-wave + core cor, Zval =  3.0
     Generated using &quot;atomic&quot; code by A. Dal Corso  v.6.3
     Shape of augmentation charge: PSQ
     Using radial grid of 1135 points,  6 beta functions with: 
                l(1) =   0
                l(2) =   0
                l(3) =   1
                l(4) =   1
                l(5) =   2
                l(6) =   2
     Q(r) pseudized with 0 coefficients 


     PseudoPot. # 2 for Fe read from file:
     ./../../pseudos/Fe.pbe-spn-kjpaw_psl.1.0.0.UPF
     MD5 check sum: fc81f059e5c5069939230b1155715ae8
     Pseudo is Projector augmented-wave + core cor, Zval = 16.0
     Generated using &quot;atomic&quot; code by A. Dal Corso  v.6.3
     Shape of augmentation charge: PSQ
     Using radial grid of 1191 points,  6 beta functions with: 
                l(1) =   0
                l(2) =   0
                l(3) =   1
                l(4) =   1
                l(5) =   2
                l(6) =   2
     Q(r) pseudized with 0 coefficients 


     PseudoPot. # 3 for H  read from file:
     ./../../pseudos/H.pbe-kjpaw_psl.1.0.0.UPF
     MD5 check sum: d81a744832360e4a8af0b0b5b123bc2a
     Pseudo is Projector augmented-wave, Zval =  1.0
     Generated using &quot;atomic&quot; code by A. Dal Corso  v.6.3MaX
     Shape of augmentation charge: PSQ
     Using radial grid of  929 points,  2 beta functions with: 
                l(1) =   0
                l(2) =   0
     Q(r) pseudized with 0 coefficients 


     PseudoPot. # 4 for K  read from file:
     ./../../pseudos/K.pbe-spn-kjpaw_psl.1.0.0.UPF
     MD5 check sum: 34cc42130a09071ebe376fd42eb21491
     Pseudo is Projector augmented-wave + core cor, Zval =  9.0
     Generated using &quot;atomic&quot; code by A. Dal Corso  v.6.2.2
     Shape of augmentation charge: PSQ
     Using radial grid of 1165 points,  6 beta functions with: 
                l(1) =   0
                l(2) =   0
                l(3) =   1
                l(4) =   1
                l(5) =   2
                l(6) =   2
     Q(r) pseudized with 0 coefficients 


     PseudoPot. # 5 for Mg read from file:
     ./../../pseudos/Mg.pbe-spnl-kjpaw_psl.1.0.0.UPF
     MD5 check sum: fda14e0d92a6a9a5ebed782e5a4b3067
     Pseudo is Projector augmented-wave + core cor, Zval = 10.0
     Generated using &quot;atomic&quot; code by A. Dal Corso  v.6.3
     Shape of augmentation charge: PSQ
     Using radial grid of 1129 points,  4 beta functions with: 
                l(1) =   0
                l(2) =   0
                l(3) =   1
                l(4) =   1
     Q(r) pseudized with 0 coefficients 


     PseudoPot. # 6 for O  read from file:
     ./../../pseudos/O.pbe-n-kjpaw_psl.1.0.0.UPF
     MD5 check sum: e99d9cef9b487d1ca56f5b95ecd0fd7a
     Pseudo is Projector augmented-wave + core cor, Zval =  6.0
     Generated using &quot;atomic&quot; code by A. Dal Corso  v.6.3
     Shape of augmentation charge: PSQ
     Using radial grid of 1095 points,  4 beta functions with: 
                l(1) =   0
                l(2) =   0
                l(3) =   1
                l(4) =   1
     Q(r) pseudized with 0 coefficients 


     PseudoPot. # 7 for Si read from file:
     ./../../pseudos/Si.pbe-n-kjpaw_psl.1.0.0.UPF
     MD5 check sum: c39c59da582df4a0d9f10159256ea34e
     Pseudo is Projector augmented-wave + core cor, Zval =  4.0
     Generated using &quot;atomic&quot; code by A. Dal Corso  v.6.3
     Shape of augmentation charge: PSQ
     Using radial grid of 1141 points,  6 beta functions with: 
                l(1) =   0
                l(2) =   0
                l(3) =   1
                l(4) =   1
                l(5) =   2
                l(6) =   2
     Q(r) pseudized with 0 coefficients 


     atomic species   valence    mass     pseudopotential
     Al                3.00    26.98154     Al( 1.00)
     Fe               16.00    55.84500     Fe( 1.00)
     H                 1.00     1.00794     H ( 1.00)
     K                 9.00    39.09830     K ( 1.00)
     Mg               10.00    24.30500     Mg( 1.00)
     O                 6.00    15.99940     O ( 1.00)
     Si                4.00    28.08550     Si( 1.00)

     Starting magnetic structure 
     atomic species   magnetization
     Al              0.000
     Fe              0.300
     H               0.000
     K               0.000
     Mg              0.000
     O               0.000
     Si              0.000

      2 Sym. Ops. (no inversion) found


                                    s                        frac. trans.

      isym =  1     identity                                     

 cryst.   s( 1) = (     1          0          0      )
                  (     0          1          0      )
                  (     0          0          1      )

 cart.    s( 1) = (  1.0000000  0.0000000  0.0000000 )
                  (  0.0000000  1.0000000  0.0000000 )
                  (  0.0000000  0.0000000  1.0000000 )


      isym =  2     180 deg rotation - cart. axis [0,1,0]        

 cryst.   s( 2) = (    -1          0          0      )
                  (     0          1          0      )
                  (     0          0         -1      )

 cart.    s( 2) = ( -1.0000000  0.0000000  0.0000000 )
                  (  0.0000000  1.0000000  0.0000000 )
                  (  0.0000000  0.0000000 -1.0000000 )


     point group C_2  (2)   
     there are  2 classes
     the character table:

       E     C2   
A      1.00  1.00
B      1.00 -1.00

     the symmetry operations in each class and the name of the first element:

     E        1
          identity                                               
     C2       2
          180 deg rotation - cart. axis [0,1,0]                  

   Cartesian axes

     site n.     atom                  positions (alat units)
         1        K      tau(   1) = (   0.0000000   0.8585262   0.0000000  )
         2        K      tau(   2) = (   0.5000000   0.0059212   0.0000000  )
         3        Mg     tau(   3) = (  -0.1677688   0.0065041   0.9493815  )
         4        Mg     tau(   4) = (  -0.1677688   0.5774284   0.9493815  )
         5        Mg     tau(   5) = (  -0.1677688   1.1555301   0.9493815  )
         6        Mg     tau(   6) = (   0.3322312   1.4504660   0.9493815  )
         7        Mg     tau(   7) = (   0.3322312   0.2936789   0.9493815  )
         8        Fe     tau(   8) = (   0.3322312   0.8544001   0.9493815  )
         9        Si     tau(   9) = (   0.0089820   0.2866807   0.4200069  )
        10        Si     tau(  10) = (   0.6554803   0.2866807   1.4787563  )
        11        Si     tau(  11) = (   0.6748942   1.4493737   1.4673199  )
        12        Si     tau(  12) = (  -0.0104318   1.4493737   0.4314432  )
        13        Si     tau(  13) = (   0.4893884   1.1594433   0.4284213  )
        14        Si     tau(  14) = (   0.1750740   1.1594433   1.4703418  )
        15        Al     tau(  15) = (   0.1545425   0.5747972   1.4747153  )
        16        Al     tau(  16) = (   0.5099199   0.5747972   0.4240478  )
        17        O      tau(  17) = (  -0.0011392   0.2834014   0.7286385  )
        18        O      tau(  18) = (   0.6656015   0.2834014   1.1701245  )
        19        O      tau(  19) = (   0.6691142   1.4468457   1.1612341  )
        20        O      tau(  20) = (  -0.0046518   1.4468457   0.7375290  )
        21        O      tau(  21) = (   0.4983382   1.1705664   0.7354300  )
        22        O      tau(  22) = (   0.1661242   1.1705664   1.1633330  )
        23        O      tau(  23) = (   0.1565094   0.5695366   1.1466801  )
        24        O      tau(  24) = (   0.5079530   0.5695366   0.7520829  )
        25        O      tau(  25) = (   0.2891592   0.3511323   0.3108636  )
        26        O      tau(  26) = (   0.3753032   0.3511323   1.5878995  )
        27        O      tau(  27) = (   0.9377863   1.7322218   0.3146971  )
        28        O      tau(  28) = (  -0.2733240   1.7322218   1.5840660  )
        29        O      tau(  29) = (   0.4015472   1.3492301   1.5817844  )
        30        O      tau(  30) = (   0.2629152   1.3492301   0.3169786  )
        31        O      tau(  31) = (   0.7622747   1.2692012   0.3144260  )
        32        O      tau(  32) = (  -0.0978122   1.2692012   1.5843371  )
        33        O      tau(  33) = (   0.4390582   0.8823218   0.3092362  )
        34        O      tau(  34) = (   0.2254042   0.8823218   1.5895269  )
        35        O      tau(  35) = (  -0.1406317   0.4823071   1.5993887  )
        36        O      tau(  36) = (   0.8050941   0.4823071   0.2993744  )
        37        O      tau(  37) = (  -0.0117400   0.8742134   0.7433029  )
        38        O      tau(  38) = (   0.6762024   0.8742134   1.1554602  )
        39        O      tau(  39) = (   0.5002417   1.7348079   0.7537154  )
        40        O      tau(  40) = (   0.1642207   1.7348079   1.1450476  )
        41        H      tau(  41) = (   0.0115990   0.8598367   0.5625848  )
        42        H      tau(  42) = (   0.6528635   0.8598367   1.3361783  )
        43        H      tau(  43) = (   0.4950785   0.0251821   0.5730089  )
        44        H      tau(  44) = (   0.1693839   0.0251821   1.3257542  )

     --------------------------------------------
     DFT-D3 Dispersion Correction (3-body terms):
     --------------------------------------------
       Reference C6 values for interpolation: 

         atom   Coordination number   C6
         H          0.912             6.05
         H          0.000            15.18
         O          0.000            31.01
         O          0.993            25.63
         O          1.989            20.74
         Mg         0.000          1366.75
         Mg         0.963           902.54
         Mg         1.950           351.12
         Al         0.000          1081.08
         Al         0.965           875.51
         Al         1.931           513.50
         Al         2.915           307.19
         Si         0.000           635.71
         Si         0.951           540.53
         Si         1.944           466.25
         Si         2.941           443.01
         Si         3.868           299.55
         K          0.000          9967.00
         K          0.977           676.04
         Fe         0.000           982.67
         Fe         1.648           409.99
         Fe         9.138           219.01

       Values used:

         atom   Coordination number  R0_AB[au]  C6      C8
         K         13.918            4.007    676.04 129074.98
         K         14.230            4.007    676.04 129074.98
         Mg        11.920            3.292    351.12  31436.69
         Mg        11.635            3.292    351.12  31436.69
         Mg        11.149            3.292    351.12  31436.69
         Mg        11.473            3.292    351.12  31436.69
         Mg        12.019            3.292    351.12  31436.69
         Fe         7.556            3.252    219.01  20487.87
         Si         6.996            3.583    299.55  21425.58
         Si         6.996            3.583    299.55  21425.58
         Si         6.612            3.583    299.55  21425.58
         Si         6.612            3.583    299.55  21425.58
         Si         6.486            3.583    299.55  21425.58
         Si         6.486            3.583    299.55  21425.58
         Al         7.640            3.789    307.19  29441.29
         Al         7.640            3.789    307.19  29441.29
         O          3.926            2.345     20.74    418.58
         O          3.926            2.345     20.74    418.58
         O          3.927            2.345     20.74    418.58
         O          3.927            2.345     20.74    418.58
         O          3.538            2.345     20.74    418.58
         O          3.538            2.345     20.74    418.58
         O          3.813            2.345     20.74    418.58
         O          3.813            2.345     20.74    418.58
         O          3.189            2.345     20.74    418.58
         O          3.189            2.345     20.74    418.58
         O          3.181            2.345     20.74    418.58
         O          3.181            2.345     20.74    418.58
         O          3.111            2.345     20.74    418.58
         O          3.111            2.345     20.74    418.58
         O          3.124            2.345     20.74    418.58
         O          3.124            2.345     20.74    418.58
         O          3.187            2.345     20.74    418.58
         O          3.187            2.345     20.74    418.58
         O          3.257            2.345     20.74    418.58
         O          3.257            2.345     20.74    418.58
         O          3.729            2.345     20.74    418.58
         O          3.729            2.345     20.74    418.58
         O          4.013            2.345     20.74    418.58
         O          4.013            2.345     20.74    418.58
         H          1.317            2.062      6.07     73.33
         H          1.317            2.062      6.07     73.33
         H          1.313            2.062      6.07     73.34
         H          1.313            2.062      6.07     73.34

         Molecular C6 ( Ry / a.u.^6 ) =    165304.53


   Crystallographic axes

     site n.     atom                  positions (cryst. coord.)
         1        K      tau(   1) = (  0.0000000  0.4943812  0.0000000  )
         2        K      tau(   2) = (  0.5000000  0.0034097  0.0000000  )
         3        Mg     tau(   3) = (  0.0000000  0.0037454  0.5000000  )
         4        Mg     tau(   4) = (  0.0000000  0.3325114  0.5000000  )
         5        Mg     tau(   5) = (  0.0000000  0.6654105  0.5000000  )
         6        Mg     tau(   6) = (  0.5000000  0.8352489  0.5000000  )
         7        Mg     tau(   7) = (  0.5000000  0.1691146  0.5000000  )
         8        Fe     tau(   8) = (  0.5000000  0.4920052  0.5000000  )
         9        Si     tau(   9) = (  0.0832030  0.1650847  0.2212003  )
        10        Si     tau(  10) = (  0.9167969  0.1650847  0.7787998  )
        11        Si     tau(  11) = (  0.9341898  0.8346199  0.7727767  )
        12        Si     tau(  12) = (  0.0658102  0.8346199  0.2272233  )
        13        Si     tau(  13) = (  0.5650963  0.6676639  0.2256318  )
        14        Si     tau(  14) = (  0.4349037  0.6676639  0.7743682  )
        15        Al     tau(  15) = (  0.4151450  0.3309962  0.7766716  )
        16        Al     tau(  16) = (  0.5848550  0.3309962  0.2233284  )
        17        O      tau(  17) = (  0.1276213  0.1631964  0.3837438  )
        18        O      tau(  18) = (  0.8723786  0.1631964  0.6162562  )
        19        O      tau(  19) = (  0.8743203  0.8331642  0.6115740  )
        20        O      tau(  20) = (  0.1256797  0.8331642  0.3884260  )
        21        O      tau(  21) = (  0.6282988  0.6740691  0.3873206  )
        22        O      tau(  22) = (  0.3717012  0.6740691  0.6126794  )
        23        O      tau(  23) = (  0.3591436  0.3279669  0.6039090  )
        24        O      tau(  24) = (  0.6408564  0.3279669  0.3960910  )
        25        O      tau(  25) = (  0.3440931  0.2021991  0.1637190  )
        26        O      tau(  26) = (  0.6559069  0.2021991  0.8362810  )
        27        O      tau(  27) = (  0.9933977  0.9974977  0.1657380  )
        28        O      tau(  28) = (  0.0066023  0.9974977  0.8342621  )
        29        O      tau(  29) = (  0.6810703  0.7769524  0.8330604  )
        30        O      tau(  30) = (  0.3189297  0.7769524  0.1669395  )
        31        O      tau(  31) = (  0.8178381  0.7308679  0.1655952  )
        32        O      tau(  32) = (  0.1821619  0.7308679  0.8344048  )
        33        O      tau(  33) = (  0.4937045  0.5080839  0.1628619  )
        34        O      tau(  34) = (  0.5062955  0.5080839  0.8371381  )
        35        O      tau(  35) = (  0.1420023  0.2777359  0.8423319  )
        36        O      tau(  36) = (  0.8579977  0.2777359  0.1576681  )
        37        O      tau(  37) = (  0.1196119  0.5034146  0.3914669  )
        38        O      tau(  38) = (  0.8803881  0.5034146  0.6085331  )
        39        O      tau(  39) = (  0.6334336  0.9989868  0.3969508  )
        40        O      tau(  40) = (  0.3665664  0.9989868  0.6030492  )
        41        H      tau(  41) = (  0.1110154  0.4951358  0.2962901  )
        42        H      tau(  42) = (  0.8889846  0.4951358  0.7037098  )
        43        H      tau(  43) = (  0.5963370  0.0145011  0.3017801  )
        44        H      tau(  44) = (  0.4036630  0.0145011  0.6982199  )

     number of k points=    20  Gaussian smearing, width (Ry)=  0.0010
                       cart. coord. in units 2pi/alat
        k(    1) = (   0.0000000   0.0000000   0.0000000), wk =   0.0185185
        k(    2) = (   0.0000000   0.0000000   0.1755529), wk =   0.0370370
        k(    3) = (   0.0000000   0.1919496   0.0000000), wk =   0.0370370
        k(    4) = (   0.0000000   0.1919496   0.1755529), wk =   0.0740741
        k(    5) = (   0.1666667   0.0000000   0.0294523), wk =   0.0370370
        k(    6) = (   0.1666667   0.0000000   0.2050052), wk =   0.0370370
        k(    7) = (   0.1666667   0.0000000  -0.1461006), wk =   0.0370370
        k(    8) = (   0.1666667   0.1919496   0.0294523), wk =   0.0740741
        k(    9) = (   0.1666667   0.1919496   0.2050052), wk =   0.0740741
        k(   10) = (   0.1666667   0.1919496  -0.1461006), wk =   0.0740741
        k(   11) = (   0.3333333   0.0000000   0.0589046), wk =   0.0370370
        k(   12) = (   0.3333333   0.0000000   0.2344575), wk =   0.0370370
        k(   13) = (   0.3333333   0.0000000  -0.1166483), wk =   0.0370370
        k(   14) = (   0.3333333   0.1919496   0.0589046), wk =   0.0740741
        k(   15) = (   0.3333333   0.1919496   0.2344575), wk =   0.0740741
        k(   16) = (   0.3333333   0.1919496  -0.1166483), wk =   0.0740741
        k(   17) = (  -0.5000000   0.0000000  -0.0883569), wk =   0.0185185
        k(   18) = (  -0.5000000   0.0000000   0.0871960), wk =   0.0370370
        k(   19) = (  -0.5000000   0.1919496  -0.0883569), wk =   0.0370370
        k(   20) = (  -0.5000000   0.1919496   0.0871960), wk =   0.0740741

                       cryst. coord.
        k(    1) = (   0.0000000   0.0000000   0.0000000), wk =   0.0185185
        k(    2) = (   0.0000000   0.0000000   0.3333333), wk =   0.0370370
        k(    3) = (   0.0000000   0.3333333   0.0000000), wk =   0.0370370
        k(    4) = (   0.0000000   0.3333333   0.3333333), wk =   0.0740741
        k(    5) = (   0.1666667   0.0000000   0.0000000), wk =   0.0370370
        k(    6) = (   0.1666667   0.0000000   0.3333333), wk =   0.0370370
        k(    7) = (   0.1666667   0.0000000  -0.3333333), wk =   0.0370370
        k(    8) = (   0.1666667   0.3333333   0.0000000), wk =   0.0740741
        k(    9) = (   0.1666667   0.3333333   0.3333333), wk =   0.0740741
        k(   10) = (   0.1666667   0.3333333  -0.3333333), wk =   0.0740741
        k(   11) = (   0.3333333   0.0000000   0.0000000), wk =   0.0370370
        k(   12) = (   0.3333333   0.0000000   0.3333333), wk =   0.0370370
        k(   13) = (   0.3333333   0.0000000  -0.3333333), wk =   0.0370370
        k(   14) = (   0.3333333   0.3333333   0.0000000), wk =   0.0740741
        k(   15) = (   0.3333333   0.3333333   0.3333333), wk =   0.0740741
        k(   16) = (   0.3333333   0.3333333  -0.3333333), wk =   0.0740741
        k(   17) = (  -0.5000000   0.0000000   0.0000000), wk =   0.0185185
        k(   18) = (  -0.5000000   0.0000000   0.3333333), wk =   0.0370370
        k(   19) = (  -0.5000000   0.3333333   0.0000000), wk =   0.0370370
        k(   20) = (  -0.5000000   0.3333333   0.3333333), wk =   0.0740741

     Dense  grid:   583539 G-vectors     FFT dimensions: (  72, 125, 135)

     Smooth grid:   206401 G-vectors     FFT dimensions: (  50,  90,  96)

     Dynamical RAM for                 wfc:      15.44 MB

     Dynamical RAM for     wfc (w. buffer):     633.23 MB

     Dynamical RAM for           str. fact:      15.58 MB

     Dynamical RAM for           local pot:       0.00 MB

     Dynamical RAM for          nlocal pot:      43.09 MB

     Dynamical RAM for                qrad:      24.61 MB

     Dynamical RAM for          rho,v,vnew:      27.36 MB

     Dynamical RAM for               rhoin:       9.12 MB

     Dynamical RAM for            rho*nmix:      71.23 MB

     Dynamical RAM for           G-vectors:       8.74 MB

     Dynamical RAM for          h,s,v(r/c):       1.13 MB

     Dynamical RAM for          <psi|beta>:       1.05 MB

     Dynamical RAM for                 psi:      30.89 MB

     Dynamical RAM for                hpsi:      30.89 MB

     Dynamical RAM for                spsi:      30.89 MB

     Dynamical RAM for      wfcinit/wfcrot:      36.77 MB

     Dynamical RAM for           addusdens:     469.69 MB

     Dynamical RAM for          addusforce:     572.27 MB

     Dynamical RAM for         addusstress:     450.77 MB

     Estimated static dynamical RAM per process >     793.55 MB

     Estimated max dynamical RAM per process >       1.40 GB

     Estimated total dynamical RAM >       5.61 GB

     Check: negative core charge=   -0.000004
     Generating pointlists ...
     new r_m :   0.1353 (alat units)  1.3518 (a.u.) for type    1
     new r_m :   0.1603 (alat units)  1.6008 (a.u.) for type    2
     new r_m :   0.0754 (alat units)  0.7531 (a.u.) for type    3
     new r_m :   0.2104 (alat units)  2.1019 (a.u.) for type    4
     new r_m :   0.1566 (alat units)  1.5643 (a.u.) for type    5
     new r_m :   0.0754 (alat units)  0.7531 (a.u.) for type    6
     new r_m :   0.1262 (alat units)  1.2601 (a.u.) for type    7

     Initial potential from superposition of free atoms

     starting charge     261.9493, renormalised to     262.0000
     Starting wfcs are  183 randomized atomic wfcs
     Checking if some PAW data can be deallocated... 
       PAW data deallocated on    3 nodes for type:  1
       PAW data deallocated on    3 nodes for type:  2
       PAW data deallocated on    3 nodes for type:  3
       PAW data deallocated on    3 nodes for type:  4
       PAW data deallocated on    3 nodes for type:  5
       PAW data deallocated on    1 nodes for type:  6
       PAW data deallocated on    2 nodes for type:  7

     total cpu time spent up to now is      445.5 secs

     Self-consistent Calculation

     iteration #  1     ecut=    60.00 Ry     beta= 0.70
     Davidson diagonalization with overlap

---- Real-time Memory Report at c_bands before calling an iterative solver
           860 MiB given to the printing process from OS
             0 MiB allocation reported by mallinfo(arena+hblkhd)
          1940 MiB available memory on the node where the printing process lives
------------------
     ethr =  1.00E-02,  avg # of iterations =  5.9

     total cpu time spent up to now is     1872.6 secs

     total energy              =   -2623.69059424 Ry
     estimated scf accuracy    <      12.42709792 Ry

     total magnetization       =     4.00 Bohr mag/cell
     absolute magnetization    =     4.05 Bohr mag/cell

     iteration #  2     ecut=    60.00 Ry     beta= 0.70
     Davidson diagonalization with overlap

---- Real-time Memory Report at c_bands before calling an iterative solver
          1299 MiB given to the printing process from OS
             0 MiB allocation reported by mallinfo(arena+hblkhd)
          2150 MiB available memory on the node where the printing process lives
------------------
     ethr =  4.74E-03,  avg # of iterations =  5.2

     total cpu time spent up to now is     4102.4 secs

     total energy              =   -2628.71901485 Ry
     estimated scf accuracy    <      12.71007948 Ry

     total magnetization       =     3.41 Bohr mag/cell
     absolute magnetization    =     3.67 Bohr mag/cell

     iteration #  3     ecut=    60.00 Ry     beta= 0.70
     Davidson diagonalization with overlap

---- Real-time Memory Report at c_bands before calling an iterative solver
          1302 MiB given to the printing process from OS
             0 MiB allocation reported by mallinfo(arena+hblkhd)
          2218 MiB available memory on the node where the printing process lives
------------------
     ethr =  4.74E-03,  avg # of iterations =  2.0

     total cpu time spent up to now is     5240.7 secs

     total energy              =   -2629.36137313 Ry
     estimated scf accuracy    <      10.08580205 Ry

     total magnetization       =     3.11 Bohr mag/cell
     absolute magnetization    =     3.48 Bohr mag/cell

     iteration #  4     ecut=    60.00 Ry     beta= 0.70
     Davidson diagonalization with overlap

---- Real-time Memory Report at c_bands before calling an iterative solver
          1306 MiB given to the printing process from OS
             0 MiB allocation reported by mallinfo(arena+hblkhd)
          2279 MiB available memory on the node where the printing process lives
------------------
     ethr =  3.85E-03,  avg # of iterations =  2.0

     total cpu time spent up to now is     6401.4 secs

     total energy              =   -2630.59461470 Ry
     estimated scf accuracy    <       0.81214305 Ry

     total magnetization       =     4.00 Bohr mag/cell
     absolute magnetization    =     4.21 Bohr mag/cell

     iteration #  5     ecut=    60.00 Ry     beta= 0.70
     Davidson diagonalization with overlap

---- Real-time Memory Report at c_bands before calling an iterative solver
          1309 MiB given to the printing process from OS
             0 MiB allocation reported by mallinfo(arena+hblkhd)
          2405 MiB available memory on the node where the printing process lives
------------------
     c_bands:  1 eigenvalues not converged
     ethr =  3.10E-04,  avg # of iterations = 11.4

     total cpu time spent up to now is     8515.1 secs

     total energy              =   -2631.20205570 Ry
     estimated scf accuracy    <       0.10331739 Ry

     total magnetization       =     4.00 Bohr mag/cell
     absolute magnetization    =     4.04 Bohr mag/cell

     iteration #  6     ecut=    60.00 Ry     beta= 0.70
     Davidson diagonalization with overlap

---- Real-time Memory Report at c_bands before calling an iterative solver
          1312 MiB given to the printing process from OS
             0 MiB allocation reported by mallinfo(arena+hblkhd)
          2299 MiB available memory on the node where the printing process lives
------------------
     c_bands:  1 eigenvalues not converged
     c_bands:  1 eigenvalues not converged
     c_bands:  1 eigenvalues not converged
     c_bands:  2 eigenvalues not converged
     c_bands:  2 eigenvalues not converged
     c_bands:  1 eigenvalues not converged
     c_bands:  1 eigenvalues not converged
     c_bands:  1 eigenvalues not converged
     c_bands:  1 eigenvalues not converged
     c_bands:  1 eigenvalues not converged
     c_bands:  2 eigenvalues not converged
     c_bands:  1 eigenvalues not converged
     c_bands:  1 eigenvalues not converged
     c_bands:  1 eigenvalues not converged
     c_bands:  1 eigenvalues not converged
     c_bands:  1 eigenvalues not converged
     c_bands:  2 eigenvalues not converged
     c_bands:  1 eigenvalues not converged
     c_bands:  1 eigenvalues not converged
     c_bands:  1 eigenvalues not converged
     c_bands:  2 eigenvalues not converged
     c_bands:  1 eigenvalues not converged
     ethr =  3.94E-05,  avg # of iterations = 17.9

     total cpu time spent up to now is    10740.4 secs

     total energy              =   -2631.23040251 Ry
     estimated scf accuracy    <       0.03442938 Ry

     total magnetization       =     4.00 Bohr mag/cell
     absolute magnetization    =     4.04 Bohr mag/cell

     iteration #  7     ecut=    60.00 Ry     beta= 0.70
     Davidson diagonalization with overlap

---- Real-time Memory Report at c_bands before calling an iterative solver
          1316 MiB given to the printing process from OS
             0 MiB allocation reported by mallinfo(arena+hblkhd)
          2274 MiB available memory on the node where the printing process lives
------------------
     c_bands:  2 eigenvalues not converged
     c_bands:  1 eigenvalues not converged
     c_bands:  1 eigenvalues not converged
     ethr =  1.31E-05,  avg # of iterations = 12.2

     negative rho (up, down):  0.000E+00 3.703E-05

     total cpu time spent up to now is    12475.1 secs

     total energy              =   -2631.23869816 Ry
     estimated scf accuracy    <       0.00958382 Ry

     total magnetization       =     4.00 Bohr mag/cell
     absolute magnetization    =     4.05 Bohr mag/cell

     iteration #  8     ecut=    60.00 Ry     beta= 0.70
     Davidson diagonalization with overlap

---- Real-time Memory Report at c_bands before calling an iterative solver
          1319 MiB given to the printing process from OS
             0 MiB allocation reported by mallinfo(arena+hblkhd)
          2263 MiB available memory on the node where the printing process lives
------------------
     c_bands:  1 eigenvalues not converged
     c_bands:  1 eigenvalues not converged
     c_bands:  1 eigenvalues not converged
     c_bands:  1 eigenvalues not converged
     c_bands:  1 eigenvalues not converged
     c_bands:  1 eigenvalues not converged
     c_bands:  1 eigenvalues not converged
     c_bands:  1 eigenvalues not converged
     c_bands:  1 eigenvalues not converged
     ethr =  3.66E-06,  avg # of iterations = 12.7

     negative rho (up, down):  0.000E+00 6.337E-05

     total cpu time spent up to now is    14070.0 secs

     total energy              =   -2631.24051085 Ry
     estimated scf accuracy    <       0.00498208 Ry

     total magnetization       =     4.00 Bohr mag/cell
     absolute magnetization    =     4.05 Bohr mag/cell

     iteration #  9     ecut=    60.00 Ry     beta= 0.70
     Davidson diagonalization with overlap

---- Real-time Memory Report at c_bands before calling an iterative solver
          1323 MiB given to the printing process from OS
             0 MiB allocation reported by mallinfo(arena+hblkhd)
          2237 MiB available memory on the node where the printing process lives
------------------
     ethr =  1.90E-06,  avg # of iterations =  2.1

     negative rho (up, down):  0.000E+00 8.264E-05

     total cpu time spent up to now is    15359.7 secs

     total energy              =   -2631.24082522 Ry
     estimated scf accuracy    <       0.00294099 Ry

     total magnetization       =     4.00 Bohr mag/cell
     absolute magnetization    =     4.05 Bohr mag/cell

     iteration # 10     ecut=    60.00 Ry     beta= 0.70
     Davidson diagonalization with overlap

---- Real-time Memory Report at c_bands before calling an iterative solver
          1326 MiB given to the printing process from OS
             0 MiB allocation reported by mallinfo(arena+hblkhd)
          2447 MiB available memory on the node where the printing process lives
------------------
     ethr =  1.12E-06,  avg # of iterations =  3.1

     negative rho (up, down):  0.000E+00 1.051E-04

     total cpu time spent up to now is    16603.5 secs

     total energy              =   -2631.24090502 Ry
     estimated scf accuracy    <       0.00141900 Ry

     total magnetization       =     4.00 Bohr mag/cell
     absolute magnetization    =     4.05 Bohr mag/cell

     iteration # 11     ecut=    60.00 Ry     beta= 0.70
     Davidson diagonalization with overlap

---- Real-time Memory Report at c_bands before calling an iterative solver
          1326 MiB given to the printing process from OS
             0 MiB allocation reported by mallinfo(arena+hblkhd)
          2179 MiB available memory on the node where the printing process lives
------------------
     c_bands:  1 eigenvalues not converged
     ethr =  5.42E-07,  avg # of iterations =  7.9

     negative rho (up, down):  0.000E+00 1.124E-04

     total cpu time spent up to now is    18202.8 secs

     total energy              =   -2631.24199850 Ry
     estimated scf accuracy    <       0.00049795 Ry

     total magnetization       =     4.00 Bohr mag/cell
     absolute magnetization    =     4.06 Bohr mag/cell

     iteration # 12     ecut=    60.00 Ry     beta= 0.70
     Davidson diagonalization with overlap

---- Real-time Memory Report at c_bands before calling an iterative solver
          1326 MiB given to the printing process from OS
             0 MiB allocation reported by mallinfo(arena+hblkhd)
          2184 MiB available memory on the node where the printing process lives
------------------
     ethr =  1.90E-07,  avg # of iterations =  4.4

     negative rho (up, down):  0.000E+00 1.104E-04

     total cpu time spent up to now is    19596.0 secs

     total energy              =   -2631.24227148 Ry
     estimated scf accuracy    <       0.00047993 Ry

     total magnetization       =     4.00 Bohr mag/cell
     absolute magnetization    =     4.06 Bohr mag/cell

     iteration # 13     ecut=    60.00 Ry     beta= 0.70
     Davidson diagonalization with overlap

---- Real-time Memory Report at c_bands before calling an iterative solver
          1326 MiB given to the printing process from OS
             0 MiB allocation reported by mallinfo(arena+hblkhd)
          2306 MiB available memory on the node where the printing process lives
------------------
     ethr =  1.83E-07,  avg # of iterations =  4.6

     negative rho (up, down):  0.000E+00 1.107E-04

     total cpu time spent up to now is    21022.2 secs

     total energy              =   -2631.24256744 Ry
     estimated scf accuracy    <       0.00057085 Ry

     total magnetization       =     4.00 Bohr mag/cell
     absolute magnetization    =     4.05 Bohr mag/cell

     iteration # 14     ecut=    60.00 Ry     beta= 0.70
     Davidson diagonalization with overlap

---- Real-time Memory Report at c_bands before calling an iterative solver
          1326 MiB given to the printing process from OS
             0 MiB allocation reported by mallinfo(arena+hblkhd)
          2239 MiB available memory on the node where the printing process lives
------------------
     ethr =  1.83E-07,  avg # of iterations =  1.1

     negative rho (up, down):  0.000E+00 1.195E-04

     total cpu time spent up to now is    22008.7 secs

     total energy              =   -2631.24266087 Ry
     estimated scf accuracy    <       0.00044401 Ry

     total magnetization       =     4.00 Bohr mag/cell
     absolute magnetization    =     4.05 Bohr mag/cell

     iteration # 15     ecut=    60.00 Ry     beta= 0.70
     Davidson diagonalization with overlap

---- Real-time Memory Report at c_bands before calling an iterative solver
          1326 MiB given to the printing process from OS
             0 MiB allocation reported by mallinfo(arena+hblkhd)
          2184 MiB available memory on the node where the printing process lives
------------------
     ethr =  1.69E-07,  avg # of iterations =  3.9

     negative rho (up, down):  0.000E+00 1.544E-04

     total cpu time spent up to now is    23242.0 secs

     total energy              =   -2631.23842646 Ry
     estimated scf accuracy    <       0.00031567 Ry

     total magnetization       =     4.00 Bohr mag/cell
     absolute magnetization    =     4.05 Bohr mag/cell

     iteration # 16     ecut=    60.00 Ry     beta= 0.70
     Davidson diagonalization with overlap

---- Real-time Memory Report at c_bands before calling an iterative solver
          1326 MiB given to the printing process from OS
             0 MiB allocation reported by mallinfo(arena+hblkhd)
          2241 MiB available memory on the node where the printing process lives
------------------
     ethr =  1.20E-07,  avg # of iterations =  7.2

     negative rho (up, down):  0.000E+00 1.080E-04

     total cpu time spent up to now is    24964.8 secs

     total energy              =   -2631.23460602 Ry
     estimated scf accuracy    <       0.00234614 Ry

     total magnetization       =     4.00 Bohr mag/cell
     absolute magnetization    =     4.05 Bohr mag/cell

     iteration # 17     ecut=    60.00 Ry     beta= 0.70
     Davidson diagonalization with overlap

---- Real-time Memory Report at c_bands before calling an iterative solver
          1326 MiB given to the printing process from OS
             0 MiB allocation reported by mallinfo(arena+hblkhd)
          2174 MiB available memory on the node where the printing process lives
------------------
     ethr =  1.20E-07,  avg # of iterations =  7.7

     negative rho (up, down):  0.000E+00 1.270E-04

     total cpu time spent up to now is    26774.2 secs

     total energy              =   -2631.24152839 Ry
     estimated scf accuracy    <       0.00081248 Ry

     total magnetization       =     4.00 Bohr mag/cell
     absolute magnetization    =     4.06 Bohr mag/cell

     iteration # 18     ecut=    60.00 Ry     beta= 0.70
     Davidson diagonalization with overlap

---- Real-time Memory Report at c_bands before calling an iterative solver
          1326 MiB given to the printing process from OS
             0 MiB allocation reported by mallinfo(arena+hblkhd)
          2194 MiB available memory on the node where the printing process lives
------------------
     ethr =  1.20E-07,  avg # of iterations =  6.3

     negative rho (up, down):  0.000E+00 1.343E-04

     total cpu time spent up to now is    28167.9 secs

     total energy              =   -2631.24305276 Ry
     estimated scf accuracy    <       0.00070616 Ry

     total magnetization       =     4.00 Bohr mag/cell
     absolute magnetization    =     4.05 Bohr mag/cell

     iteration # 19     ecut=    60.00 Ry     beta= 0.70
     Davidson diagonalization with overlap

---- Real-time Memory Report at c_bands before calling an iterative solver
          1326 MiB given to the printing process from OS
             0 MiB allocation reported by mallinfo(arena+hblkhd)
          2212 MiB available memory on the node where the printing process lives
------------------
     ethr =  1.20E-07,  avg # of iterations =  3.5

     negative rho (up, down):  0.000E+00 1.371E-04

     total cpu time spent up to now is    29321.6 secs

     total energy              =   -2631.24324877 Ry
     estimated scf accuracy    <       0.00050029 Ry

     total magnetization       =     4.00 Bohr mag/cell
     absolute magnetization    =     4.05 Bohr mag/cell

     iteration # 20     ecut=    60.00 Ry     beta= 0.70
     Davidson diagonalization with overlap

---- Real-time Memory Report at c_bands before calling an iterative solver
          1326 MiB given to the printing process from OS
             0 MiB allocation reported by mallinfo(arena+hblkhd)
          2157 MiB available memory on the node where the printing process lives
------------------
     ethr =  1.20E-07,  avg # of iterations =  2.0

     negative rho (up, down):  0.000E+00 1.485E-04

     total cpu time spent up to now is    30008.6 secs

     total energy              =   -2631.24311598 Ry
     estimated scf accuracy    <       0.00049563 Ry

     total magnetization       =     4.00 Bohr mag/cell
     absolute magnetization    =     4.05 Bohr mag/cell

     iteration # 21     ecut=    60.00 Ry     beta= 0.70
     Davidson diagonalization with overlap

---- Real-time Memory Report at c_bands before calling an iterative solver
          1326 MiB given to the printing process from OS
             0 MiB allocation reported by mallinfo(arena+hblkhd)
          3828 MiB available memory on the node where the printing process lives
------------------
     ethr =  1.20E-07,  avg # of iterations =  5.5

     negative rho (up, down):  0.000E+00 1.557E-04

     total cpu time spent up to now is    30668.6 secs

     total energy              =   -2631.24337852 Ry
     estimated scf accuracy    <       0.00004536 Ry

     total magnetization       =     4.00 Bohr mag/cell
     absolute magnetization    =     4.05 Bohr mag/cell

     iteration # 22     ecut=    60.00 Ry     beta= 0.70
     Davidson diagonalization with overlap

---- Real-time Memory Report at c_bands before calling an iterative solver
          1326 MiB given to the printing process from OS
             0 MiB allocation reported by mallinfo(arena+hblkhd)
          3827 MiB available memory on the node where the printing process lives
------------------
     ethr =  1.73E-08,  avg # of iterations =  6.0

     negative rho (up, down):  0.000E+00 1.534E-04

     total cpu time spent up to now is    31470.0 secs

     total energy              =   -2631.24352506 Ry
     estimated scf accuracy    <       0.00001811 Ry

     total magnetization       =     4.00 Bohr mag/cell
     absolute magnetization    =     4.05 Bohr mag/cell

     iteration # 23     ecut=    60.00 Ry     beta= 0.70
     Davidson diagonalization with overlap

---- Real-time Memory Report at c_bands before calling an iterative solver
          1326 MiB given to the printing process from OS
             0 MiB allocation reported by mallinfo(arena+hblkhd)
          3826 MiB available memory on the node where the printing process lives
------------------
     ethr =  6.91E-09,  avg # of iterations =  3.6

     negative rho (up, down):  0.000E+00 1.570E-04

     total cpu time spent up to now is    32104.8 secs

     total energy              =   -2631.24349107 Ry
     estimated scf accuracy    <       0.00000129 Ry

     total magnetization       =     4.00 Bohr mag/cell
     absolute magnetization    =     4.05 Bohr mag/cell

     iteration # 24     ecut=    60.00 Ry     beta= 0.70
     Davidson diagonalization with overlap

---- Real-time Memory Report at c_bands before calling an iterative solver
          1326 MiB given to the printing process from OS
             0 MiB allocation reported by mallinfo(arena+hblkhd)
          3825 MiB available memory on the node where the printing process lives
------------------
     ethr =  4.94E-10,  avg # of iterations =  9.9

     negative rho (up, down):  0.000E+00 1.545E-04

     total cpu time spent up to now is    33376.4 secs

     total energy              =   -2631.24352520 Ry
     estimated scf accuracy    <       0.00002080 Ry

     total magnetization       =     4.00 Bohr mag/cell
     absolute magnetization    =     4.05 Bohr mag/cell

     iteration # 25     ecut=    60.00 Ry     beta= 0.70
     Davidson diagonalization with overlap

---- Real-time Memory Report at c_bands before calling an iterative solver
          1326 MiB given to the printing process from OS
             0 MiB allocation reported by mallinfo(arena+hblkhd)
          3827 MiB available memory on the node where the printing process lives
------------------
     ethr =  4.94E-10,  avg # of iterations =  7.1

     negative rho (up, down):  0.000E+00 1.543E-04

     Magnetic moment per site  (integrated on atomic sphere of radius R)
     atom   1 (R=0.210)  charge=  7.4691  magn=  0.0001
     atom   2 (R=0.210)  charge=  7.4732  magn=  0.0000
     atom   3 (R=0.157)  charge=  8.0946  magn= -0.0000
     atom   4 (R=0.157)  charge=  8.0985  magn=  0.0003
     atom   5 (R=0.157)  charge=  8.0926  magn=  0.0000
     atom   6 (R=0.157)  charge=  8.0963  magn=  0.0001
     atom   7 (R=0.157)  charge=  8.1020  magn=  0.0005
     atom   8 (R=0.160)  charge= 13.3519  magn=  3.3085
     atom   9 (R=0.126)  charge=  0.5493  magn= -0.0000
     atom  10 (R=0.126)  charge=  0.5493  magn= -0.0000
     atom  11 (R=0.126)  charge=  0.5423  magn= -0.0000
     atom  12 (R=0.126)  charge=  0.5423  magn= -0.0000
     atom  13 (R=0.126)  charge=  0.5413  magn=  0.0010
     atom  14 (R=0.126)  charge=  0.5413  magn=  0.0010
     atom  15 (R=0.135)  charge=  0.3378  magn=  0.0011
     atom  16 (R=0.135)  charge=  0.3378  magn=  0.0011
     atom  17 (R=0.075)  charge=  1.9412  magn=  0.0003
     atom  18 (R=0.075)  charge=  1.9412  magn=  0.0003
     atom  19 (R=0.075)  charge=  1.9421  magn=  0.0001
     atom  20 (R=0.075)  charge=  1.9421  magn=  0.0001
     atom  21 (R=0.075)  charge=  1.9387  magn=  0.0155
     atom  22 (R=0.075)  charge=  1.9387  magn=  0.0155
     atom  23 (R=0.075)  charge=  1.9369  magn=  0.0277
     atom  24 (R=0.075)  charge=  1.9369  magn=  0.0277
     atom  25 (R=0.075)  charge=  1.9444  magn=  0.0004
     atom  26 (R=0.075)  charge=  1.9444  magn=  0.0004
     atom  27 (R=0.075)  charge=  1.9470  magn=  0.0000
     atom  28 (R=0.075)  charge=  1.9470  magn=  0.0000
     atom  29 (R=0.075)  charge=  1.9476  magn=  0.0003
     atom  30 (R=0.075)  charge=  1.9476  magn=  0.0003
     atom  31 (R=0.075)  charge=  1.9476  magn=  0.0009
     atom  32 (R=0.075)  charge=  1.9476  magn=  0.0009
     atom  33 (R=0.075)  charge=  1.9413  magn= -0.0000
     atom  34 (R=0.075)  charge=  1.9413  magn= -0.0000
     atom  35 (R=0.075)  charge=  1.9440  magn=  0.0008
     atom  36 (R=0.075)  charge=  1.9440  magn=  0.0008
     atom  37 (R=0.075)  charge=  1.9385  magn=  0.0210
     atom  38 (R=0.075)  charge=  1.9385  magn=  0.0210
     atom  39 (R=0.075)  charge=  1.9438  magn=  0.0007
     atom  40 (R=0.075)  charge=  1.9438  magn=  0.0007
     atom  41 (R=0.075)  charge=  0.4009  magn= -0.0000
     atom  42 (R=0.075)  charge=  0.4009  magn= -0.0000
     atom  43 (R=0.075)  charge=  0.3995  magn= -0.0000
     atom  44 (R=0.075)  charge=  0.3995  magn= -0.0000

     total cpu time spent up to now is    34216.4 secs

     End of self-consistent calculation

 ------ SPIN UP ------------


          k = 0.0000 0.0000 0.0000 ( 25799 PWs)   bands (ev):

   -81.1407 -67.4352 -67.4078 -67.3508 -66.8901 -66.8716 -48.1710 -46.9961
   -46.4253 -34.2033 -34.1936 -34.1785 -34.1705 -34.1604 -34.1438 -34.1143
   -34.1102 -34.0831 -33.6643 -33.6578 -33.6404 -33.6217 -33.6180 -33.6039
   -22.8415 -22.8390 -14.9839 -14.9275 -14.0404 -13.9922 -13.5189 -13.4928
   -13.3177 -13.1906 -13.1488 -12.9884 -12.7608 -12.7594 -12.7425 -12.7254
   -12.6452 -12.5434 -12.4320 -12.3748 -12.1773 -12.1523 -12.1197 -11.9879
   -11.2590 -11.0297  -6.4271  -6.4038  -6.3421  -6.3359  -6.3231  -6.3161
    -4.1524  -4.0928  -2.2932  -2.1897  -1.7607  -1.3255  -1.0823  -1.0371
    -0.9623  -0.8791  -0.5871  -0.4855  -0.3276  -0.2823  -0.2268  -0.0674
     0.0835   0.1447   0.2713   0.5683   0.7057   0.7087   0.7718   0.9418
     0.9845   1.1932   1.2497   1.3085   1.4646   1.5851   1.6077   1.7392
     1.8138   1.8427   2.0360   2.1342   2.2140   2.2493   2.2592   2.3329
     2.4451   2.4455   2.6215   2.7575   2.7656   2.7816   2.8007   2.8531
     2.9544   3.0626   3.0877   3.1103   3.1742   3.2169   3.3761   3.3847
     3.4405   3.4545   3.5176   3.5305   3.6335   3.7197   3.8304   3.8525
     3.8975   3.9239   3.9334   4.0468   4.0474   4.2608   4.4021   4.4506
     5.3352   5.4728   6.5378   6.9490   7.1573   9.2113  10.7398  11.3604
    11.7188  12.0251  12.2567  12.3438  12.6021  12.7290  13.1183  13.1801
    13.2140  13.3576  13.4124  13.5784  13.7111  13.7208  13.8208  13.8364
    13.8817  14.0957  14.4159  14.4329  14.4624

     occupation numbers 
     1.0000   1.0000   1.0000   1.0000   1.0000   1.0000   1.0000   1.0000
     1.0000   1.0000   1.0000   1.0000   1.0000   1.0000   1.0000   1.0000
     1.0000   1.0000   1.0000   1.0000   1.0000   1.0000   1.0000   1.0000
     1.0000   1.0000   1.0000   1.0000   1.0000   1.0000   1.0000   1.0000
     1.0000   1.0000   1.0000   1.0000   1.0000   1.0000   1.0000   1.0000
     1.0000   1.0000   1.0000   1.0000   1.0000   1.0000   1.0000   1.0000
     1.0000   1.0000   1.0000   1.0000   1.0000   1.0000   1.0000   1.0000
     1.0000   1.0000   1.0000   1.0000   1.0000   1.0000   1.0000   1.0000
     1.0000   1.0000   1.0000   1.0000   1.0000   1.0000   1.0000   1.0000
     1.0000   1.0000   1.0000   1.0000   1.0000   1.0000   1.0000   1.0000
     1.0000   1.0000   1.0000   1.0000   1.0000   1.0000   1.0000   1.0000
     1.0000   1.0000   1.0000   1.0000   1.0000   1.0000   1.0000   1.0000
     1.0000   1.0000   1.0000   1.0000   1.0000   1.0000   1.0000   1.0000
     1.0000   1.0000   1.0000   1.0000   1.0000   1.0000   1.0000   1.0000
     1.0000   1.0000   1.0000   1.0000   1.0000   1.0000   1.0000   1.0000
     1.0000   1.0000   1.0000   1.0000   1.0000   1.0000   1.0000   1.0000
     1.0000   1.0000   1.0000   1.0000   1.0000   0.0000   0.0000   0.0000
     0.0000   0.0000   0.0000   0.0000   0.0000   0.0000   0.0000   0.0000
     0.0000   0.0000   0.0000   0.0000   0.0000   0.0000   0.0000   0.0000
     0.0000   0.0000   0.0000   0.0000   0.0000

          k = 0.0000 0.0000 0.1756 ( 25812 PWs)   bands (ev):

   -81.1407 -67.4352 -67.4078 -67.3508 -66.8901 -66.8716 -48.1710 -46.9961
   -46.4254 -34.2033 -34.1936 -34.1785 -34.1705 -34.1604 -34.1439 -34.1143
   -34.1103 -34.0831 -33.6643 -33.6578 -33.6404 -33.6217 -33.6180 -33.6039
   -22.8415 -22.8390 -14.9703 -14.9421 -14.0292 -14.0041 -13.5195 -13.4922
   -13.3062 -13.2119 -13.1400 -12.9838 -12.7641 -12.7514 -12.7447 -12.7347
   -12.6367 -12.5477 -12.4246 -12.3821 -12.1815 -12.1451 -12.1150 -11.9952
   -11.2587 -11.0305  -6.4272  -6.4039  -6.3421  -6.3359  -6.3231  -6.3159
    -4.1509  -4.0947  -2.2696  -2.2181  -1.7273  -1.3140  -1.0758  -1.0367
    -0.9587  -0.8998  -0.5559  -0.4978  -0.3704  -0.2594  -0.2346  -0.1701
     0.0951   0.1874   0.2324   0.5036   0.6863   0.7001   0.7884   0.9808
     1.0268   1.1883   1.2618   1.3077   1.5230   1.5411   1.6661   1.7583
     1.8358   1.8694   2.1046   2.1752   2.2129   2.2435   2.2840   2.3319
     2.3964   2.4418   2.6338   2.7147   2.7324   2.7425   2.7569   2.8629
     2.9005   3.0022   3.0852   3.1730   3.1993   3.2156   3.3333   3.3987
     3.4270   3.4692   3.4728   3.6159   3.6393   3.7572   3.8111   3.8341
     3.8882   3.9232   3.9245   4.0046   4.0258   4.3203   4.3974   4.4501
     5.3344   5.4714   6.5392   6.9403   7.1601   9.5269  10.2547  11.4497
    11.7739  11.8728  12.2369  12.3344  12.8076  12.9317  13.0496  13.1566
    13.2880  13.3362  13.4418  13.5355  13.5757  13.7387  13.8170  13.8520
    13.9852  14.1262  14.1521  14.4059  14.4491

     occupation numbers 
     1.0000   1.0000   1.0000   1.0000   1.0000   1.0000   1.0000   1.0000
     1.0000   1.0000   1.0000   1.0000   1.0000   1.0000   1.0000   1.0000
     1.0000   1.0000   1.0000   1.0000   1.0000   1.0000   1.0000   1.0000
     1.0000   1.0000   1.0000   1.0000   1.0000   1.0000   1.0000   1.0000
     1.0000   1.0000   1.0000   1.0000   1.0000   1.0000   1.0000   1.0000
     1.0000   1.0000   1.0000   1.0000   1.0000   1.0000   1.0000   1.0000
     1.0000   1.0000   1.0000   1.0000   1.0000   1.0000   1.0000   1.0000
     1.0000   1.0000   1.0000   1.0000   1.0000   1.0000   1.0000   1.0000
     1.0000   1.0000   1.0000   1.0000   1.0000   1.0000   1.0000   1.0000
     1.0000   1.0000   1.0000   1.0000   1.0000   1.0000   1.0000   1.0000
     1.0000   1.0000   1.0000   1.0000   1.0000   1.0000   1.0000   1.0000
     1.0000   1.0000   1.0000   1.0000   1.0000   1.0000   1.0000   1.0000
     1.0000   1.0000   1.0000   1.0000   1.0000   1.0000   1.0000   1.0000
     1.0000   1.0000   1.0000   1.0000   1.0000   1.0000   1.0000   1.0000
     1.0000   1.0000   1.0000   1.0000   1.0000   1.0000   1.0000   1.0000
     1.0000   1.0000   1.0000   1.0000   1.0000   1.0000   1.0000   1.0000
     1.0000   1.0000   1.0000   1.0000   1.0000   0.0000   0.0000   0.0000
     0.0000   0.0000   0.0000   0.0000   0.0000   0.0000   0.0000   0.0000
     0.0000   0.0000   0.0000   0.0000   0.0000   0.0000   0.0000   0.0000
     0.0000   0.0000   0.0000   0.0000   0.0000

          k = 0.0000 0.1919 0.0000 ( 25771 PWs)   bands (ev):

   -81.1406 -67.4352 -67.4078 -67.3508 -66.8901 -66.8716 -48.1710 -46.9961
   -46.4253 -34.2033 -34.1936 -34.1784 -34.1705 -34.1604 -34.1439 -34.1142
   -34.1102 -34.0831 -33.6643 -33.6578 -33.6404 -33.6217 -33.6180 -33.6039
   -22.8414 -22.8391 -14.9788 -14.9224 -14.0753 -14.0234 -13.5190 -13.4929
   -13.2309 -13.1347 -13.0829 -13.0048 -12.8486 -12.8123 -12.7529 -12.7176
   -12.6700 -12.5430 -12.4189 -12.3702 -12.1771 -12.1512 -12.1149 -11.9842
   -11.2573 -11.0292  -6.4217  -6.4095  -6.3407  -6.3312  -6.3250  -6.3203
    -4.1136  -4.0527  -2.4381  -2.3303  -1.7080  -1.3766  -0.9799  -0.9470
    -0.8862  -0.8162  -0.6638  -0.5541  -0.3375  -0.2517  -0.1634  -0.0450
     0.0059   0.2119   0.2684   0.5546   0.6446   0.6591   0.7908   0.9493
     0.9791   1.1529   1.1768   1.3095   1.4671   1.6297   1.6362   1.7440
     1.8618   1.9051   2.0562   2.1612   2.2037   2.2411   2.3226   2.3940
     2.4350   2.5196   2.6025   2.6828   2.7514   2.7602   2.8271   2.9121
     2.9866   3.0646   3.0661   3.1140   3.1795   3.2054   3.3329   3.3366
     3.4304   3.4749   3.5114   3.5782   3.6465   3.6483   3.8111   3.8667
     3.8777   3.9065   3.9966   4.0345   4.0398   4.1786   4.2794   4.4259
     5.3479   5.4671   6.5381   6.9107   7.1656   9.6157  10.5661  10.9692
    11.5718  11.9916  12.4081  12.6758  12.6997  12.8657  12.9936  13.1563
    13.2374  13.3580  13.4182  13.5266  13.5780  13.6827  13.7381  13.8366
    13.8541  13.8902  14.4475  14.4493  14.6262

     occupation numbers 
     1.0000   1.0000   1.0000   1.0000   1.0000   1.0000   1.0000   1.0000
     1.0000   1.0000   1.0000   1.0000   1.0000   1.0000   1.0000   1.0000
     1.0000   1.0000   1.0000   1.0000   1.0000   1.0000   1.0000   1.0000
     1.0000   1.0000   1.0000   1.0000   1.0000   1.0000   1.0000   1.0000
     1.0000   1.0000   1.0000   1.0000   1.0000   1.0000   1.0000   1.0000
     1.0000   1.0000   1.0000   1.0000   1.0000   1.0000   1.0000   1.0000
     1.0000   1.0000   1.0000   1.0000   1.0000   1.0000   1.0000   1.0000
     1.0000   1.0000   1.0000   1.0000   1.0000   1.0000   1.0000   1.0000
     1.0000   1.0000   1.0000   1.0000   1.0000   1.0000   1.0000   1.0000
     1.0000   1.0000   1.0000   1.0000   1.0000   1.0000   1.0000   1.0000
     1.0000   1.0000   1.0000   1.0000   1.0000   1.0000   1.0000   1.0000
     1.0000   1.0000   1.0000   1.0000   1.0000   1.0000   1.0000   1.0000
     1.0000   1.0000   1.0000   1.0000   1.0000   1.0000   1.0000   1.0000
     1.0000   1.0000   1.0000   1.0000   1.0000   1.0000   1.0000   1.0000
     1.0000   1.0000   1.0000   1.0000   1.0000   1.0000   1.0000   1.0000
     1.0000   1.0000   1.0000   1.0000   1.0000   1.0000   1.0000   1.0000
     1.0000   1.0000   1.0000   1.0000   1.0000   0.0000   0.0000   0.0000
     0.0000   0.0000   0.0000   0.0000   0.0000   0.0000   0.0000   0.0000
     0.0000   0.0000   0.0000   0.0000   0.0000   0.0000   0.0000   0.0000
     0.0000   0.0000   0.0000   0.0000   0.0000

          k = 0.0000 0.1919 0.1756 ( 25786 PWs)   bands (ev):

   -81.1406 -67.4352 -67.4078 -67.3508 -66.8901 -66.8716 -48.1710 -46.9961
   -46.4254 -34.2033 -34.1936 -34.1785 -34.1705 -34.1604 -34.1439 -34.1142
   -34.1102 -34.0831 -33.6643 -33.6578 -33.6404 -33.6217 -33.6180 -33.6039
   -22.8414 -22.8391 -14.9652 -14.9370 -14.0628 -14.0368 -13.5196 -13.4922
   -13.2234 -13.1278 -13.1025 -12.9935 -12.8634 -12.7967 -12.7544 -12.7208
   -12.6667 -12.5471 -12.4118 -12.3773 -12.1810 -12.1447 -12.1093 -11.9914
   -11.2570 -11.0301  -6.4219  -6.4095  -6.3407  -6.3312  -6.3250  -6.3201
    -4.1090  -4.0578  -2.4145  -2.3568  -1.6790  -1.3658  -0.9667  -0.9488
    -0.8749  -0.8396  -0.6396  -0.5810  -0.3692  -0.2249  -0.1928  -0.1259
     0.0520   0.2012   0.2306   0.5227   0.6244   0.6467   0.8167   0.9610
     1.0390   1.0943   1.1790   1.3595   1.5512   1.6223   1.7137   1.7588
     1.8618   1.9249   2.0841   2.1124   2.1980   2.2959   2.3301   2.4097
     2.4506   2.4768   2.5968   2.6762   2.7006   2.7554   2.8190   2.8827
     2.9238   2.9911   3.0779   3.1413   3.1501   3.2344   3.2861   3.3474
     3.4712   3.4914   3.5249   3.5805   3.6530   3.6798   3.7393   3.8584
     3.8984   3.9332   3.9640   4.0085   4.0326   4.1851   4.3341   4.4275
     5.3481   5.4640   6.5395   6.9009   7.1684   9.8896  10.5396  10.7611
    11.2641  11.9763  12.3979  12.7372  12.8373  13.0339  13.0801  13.1630
    13.3035  13.3307  13.4763  13.5021  13.6240  13.6686  13.6946  13.7835
    13.8465  14.0374  14.3105  14.4325  14.5152

     occupation numbers 
     1.0000   1.0000   1.0000   1.0000   1.0000   1.0000   1.0000   1.0000
     1.0000   1.0000   1.0000   1.0000   1.0000   1.0000   1.0000   1.0000
     1.0000   1.0000   1.0000   1.0000   1.0000   1.0000   1.0000   1.0000
     1.0000   1.0000   1.0000   1.0000   1.0000   1.0000   1.0000   1.0000
     1.0000   1.0000   1.0000   1.0000   1.0000   1.0000   1.0000   1.0000
     1.0000   1.0000   1.0000   1.0000   1.0000   1.0000   1.0000   1.0000
     1.0000   1.0000   1.0000   1.0000   1.0000   1.0000   1.0000   1.0000
     1.0000   1.0000   1.0000   1.0000   1.0000   1.0000   1.0000   1.0000
     1.0000   1.0000   1.0000   1.0000   1.0000   1.0000   1.0000   1.0000
     1.0000   1.0000   1.0000   1.0000   1.0000   1.0000   1.0000   1.0000
     1.0000   1.0000   1.0000   1.0000   1.0000   1.0000   1.0000   1.0000
     1.0000   1.0000   1.0000   1.0000   1.0000   1.0000   1.0000   1.0000
     1.0000   1.0000   1.0000   1.0000   1.0000   1.0000   1.0000   1.0000
     1.0000   1.0000   1.0000   1.0000   1.0000   1.0000   1.0000   1.0000
     1.0000   1.0000   1.0000   1.0000   1.0000   1.0000   1.0000   1.0000
     1.0000   1.0000   1.0000   1.0000   1.0000   1.0000   1.0000   1.0000
     1.0000   1.0000   1.0000   1.0000   1.0000   0.0000   0.0000   0.0000
     0.0000   0.0000   0.0000   0.0000   0.0000   0.0000   0.0000   0.0000
     0.0000   0.0000   0.0000   0.0000   0.0000   0.0000   0.0000   0.0000
     0.0000   0.0000   0.0000   0.0000   0.0000

          k = 0.1667 0.0000 0.0295 ( 25803 PWs)   bands (ev):

   -81.1407 -67.4351 -67.4078 -67.3508 -66.8901 -66.8716 -48.1710 -46.9961
   -46.4254 -34.2027 -34.1942 -34.1780 -34.1710 -34.1602 -34.1438 -34.1142
   -34.1104 -34.0832 -33.6652 -33.6564 -33.6406 -33.6226 -33.6167 -33.6046
   -22.8413 -22.8388 -14.9250 -14.8697 -14.0593 -14.0139 -13.6349 -13.6006
   -13.2487 -13.1253 -13.0928 -12.9724 -12.7837 -12.7682 -12.7334 -12.7273
   -12.6355 -12.5521 -12.4479 -12.3853 -12.2452 -12.1976 -12.1011 -11.9750
   -11.2555 -11.0333  -6.4272  -6.4078  -6.3398  -6.3340  -6.3203  -6.3166
    -3.9956  -3.9326  -2.2633  -2.1585  -1.7424  -1.3352  -1.3034  -1.2680
    -0.7926  -0.6908  -0.5760  -0.5384  -0.3264  -0.2512  -0.2275  -0.0669
     0.0555   0.1961   0.2586   0.5442   0.6218   0.7255   0.7603   0.8649
     1.1020   1.1953   1.2767   1.3056   1.4070   1.4796   1.6330   1.6496
     1.7511   1.9771   2.0190   2.0698   2.1659   2.2952   2.3513   2.4046
     2.4288   2.4687   2.6175   2.6819   2.7378   2.7874   2.8278   2.8727
     2.9696   3.0080   3.0712   3.1522   3.1616   3.2749   3.3183   3.3612
     3.4341   3.4596   3.5188   3.5362   3.6506   3.7040   3.7990   3.8441
     3.8775   3.9095   3.9591   3.9903   4.0236   4.2006   4.2876   4.4044
     5.3220   5.4341   6.5414   6.9542   7.1587   9.5372  10.9153  11.4321
    11.8374  12.0612  12.2653  12.4831  12.6478  12.8184  12.9800  13.1120
    13.2013  13.3398  13.4202  13.5746  13.6590  13.7003  13.7682  13.8579
    13.9504  14.1761  14.2444  14.3799  14.5224

     occupation numbers 
     1.0000   1.0000   1.0000   1.0000   1.0000   1.0000   1.0000   1.0000
     1.0000   1.0000   1.0000   1.0000   1.0000   1.0000   1.0000   1.0000
     1.0000   1.0000   1.0000   1.0000   1.0000   1.0000   1.0000   1.0000
     1.0000   1.0000   1.0000   1.0000   1.0000   1.0000   1.0000   1.0000
     1.0000   1.0000   1.0000   1.0000   1.0000   1.0000   1.0000   1.0000
     1.0000   1.0000   1.0000   1.0000   1.0000   1.0000   1.0000   1.0000
     1.0000   1.0000   1.0000   1.0000   1.0000   1.0000   1.0000   1.0000
     1.0000   1.0000   1.0000   1.0000   1.0000   1.0000   1.0000   1.0000
     1.0000   1.0000   1.0000   1.0000   1.0000   1.0000   1.0000   1.0000
     1.0000   1.0000   1.0000   1.0000   1.0000   1.0000   1.0000   1.0000
     1.0000   1.0000   1.0000   1.0000   1.0000   1.0000   1.0000   1.0000
     1.0000   1.0000   1.0000   1.0000   1.0000   1.0000   1.0000   1.0000
     1.0000   1.0000   1.0000   1.0000   1.0000   1.0000   1.0000   1.0000
     1.0000   1.0000   1.0000   1.0000   1.0000   1.0000   1.0000   1.0000
     1.0000   1.0000   1.0000   1.0000   1.0000   1.0000   1.0000   1.0000
     1.0000   1.0000   1.0000   1.0000   1.0000   1.0000   1.0000   1.0000
     1.0000   1.0000   1.0000   1.0000   1.0000   0.0000   0.0000   0.0000
     0.0000   0.0000   0.0000   0.0000   0.0000   0.0000   0.0000   0.0000
     0.0000   0.0000   0.0000   0.0000   0.0000   0.0000   0.0000   0.0000
     0.0000   0.0000   0.0000   0.0000   0.0000

          k = 0.1667 0.0000 0.2050 ( 25826 PWs)   bands (ev):

   -81.1407 -67.4351 -67.4078 -67.3508 -66.8901 -66.8716 -48.1710 -46.9961
   -46.4254 -34.2028 -34.1943 -34.1780 -34.1710 -34.1602 -34.1438 -34.1142
   -34.1104 -34.0832 -33.6652 -33.6564 -33.6406 -33.6226 -33.6167 -33.6046
   -22.8413 -22.8388 -14.9079 -14.8879 -14.0498 -14.0239 -13.6307 -13.6050
   -13.2377 -13.1438 -13.0872 -12.9664 -12.7772 -12.7682 -12.7490 -12.7248
   -12.6274 -12.5563 -12.4429 -12.3909 -12.2408 -12.2028 -12.0900 -11.9844
   -11.2549 -11.0343  -6.4273  -6.4078  -6.3398  -6.3340  -6.3203  -6.3165
    -3.9995  -3.9288  -2.2424  -2.1848  -1.7060  -1.3630  -1.2992  -1.2382
    -0.7875  -0.6924  -0.5779  -0.5251  -0.3479  -0.2483  -0.2204  -0.1889
     0.0921   0.2110   0.2435   0.4754   0.5992   0.7037   0.7579   0.9246
     1.1411   1.1836   1.2837   1.3095   1.4278   1.5213   1.6211   1.7317
     1.7540   1.9922   2.0435   2.0948   2.2588   2.2748   2.3290   2.3711
     2.4384   2.4925   2.6106   2.6408   2.6744   2.7333   2.7898   2.8482
     2.9469   3.0271   3.0695   3.1405   3.2180   3.2524   3.2910   3.3936
     3.4076   3.4606   3.5036   3.5537   3.6736   3.7540   3.8153   3.8194
     3.8544   3.9059   3.9425   3.9528   3.9914   4.2595   4.3057   4.4104
     5.3196   5.4335   6.5427   6.9479   7.1587   9.9048  10.3710  11.5089
    11.8794  11.9337  12.3203  12.3853  12.6094  12.9375  13.1357  13.2295
    13.2557  13.4131  13.4186  13.4731  13.6098  13.6903  13.8018  13.8808
    13.9456  13.9904  14.2471  14.3747  14.5246

     occupation numbers 
     1.0000   1.0000   1.0000   1.0000   1.0000   1.0000   1.0000   1.0000
     1.0000   1.0000   1.0000   1.0000   1.0000   1.0000   1.0000   1.0000
     1.0000   1.0000   1.0000   1.0000   1.0000   1.0000   1.0000   1.0000
     1.0000   1.0000   1.0000   1.0000   1.0000   1.0000   1.0000   1.0000
     1.0000   1.0000   1.0000   1.0000   1.0000   1.0000   1.0000   1.0000
     1.0000   1.0000   1.0000   1.0000   1.0000   1.0000   1.0000   1.0000
     1.0000   1.0000   1.0000   1.0000   1.0000   1.0000   1.0000   1.0000
     1.0000   1.0000   1.0000   1.0000   1.0000   1.0000   1.0000   1.0000
     1.0000   1.0000   1.0000   1.0000   1.0000   1.0000   1.0000   1.0000
     1.0000   1.0000   1.0000   1.0000   1.0000   1.0000   1.0000   1.0000
     1.0000   1.0000   1.0000   1.0000   1.0000   1.0000   1.0000   1.0000
     1.0000   1.0000   1.0000   1.0000   1.0000   1.0000   1.0000   1.0000
     1.0000   1.0000   1.0000   1.0000   1.0000   1.0000   1.0000   1.0000
     1.0000   1.0000   1.0000   1.0000   1.0000   1.0000   1.0000   1.0000
     1.0000   1.0000   1.0000   1.0000   1.0000   1.0000   1.0000   1.0000
     1.0000   1.0000   1.0000   1.0000   1.0000   1.0000   1.0000   1.0000
     1.0000   1.0000   1.0000   1.0000   1.0000   0.0000   0.0000   0.0000
     0.0000   0.0000   0.0000   0.0000   0.0000   0.0000   0.0000   0.0000
     0.0000   0.0000   0.0000   0.0000   0.0000   0.0000   0.0000   0.0000
     0.0000   0.0000   0.0000   0.0000   0.0000

          k = 0.1667 0.0000-0.1461 ( 25786 PWs)   bands (ev):

   -81.1406 -67.4351 -67.4078 -67.3508 -66.8901 -66.8716 -48.1710 -46.9961
   -46.4254 -34.2027 -34.1942 -34.1780 -34.1710 -34.1602 -34.1438 -34.1142
   -34.1104 -34.0832 -33.6652 -33.6564 -33.6406 -33.6226 -33.6167 -33.6046
   -22.8413 -22.8388 -14.9154 -14.8801 -14.0507 -14.0230 -13.6297 -13.6060
   -13.2417 -13.1304 -13.0976 -12.9673 -12.7797 -12.7666 -12.7466 -12.7221
   -12.6314 -12.5562 -12.4371 -12.3962 -12.2284 -12.2153 -12.0907 -11.9826
   -11.2547 -11.0342  -6.4274  -6.4078  -6.3398  -6.3340  -6.3203  -6.3164
    -3.9820  -3.9467  -2.2386  -2.1866  -1.7202  -1.3648  -1.2897  -1.2463
    -0.7735  -0.7105  -0.5500  -0.5292  -0.3528  -0.2614  -0.2346  -0.1466
     0.0599   0.2121   0.2483   0.4874   0.6417   0.7372   0.7636   0.9114
     1.1218   1.1354   1.2673   1.3175   1.4509   1.5544   1.6050   1.6512
     1.8007   1.9772   2.0079   2.1223   2.1500   2.2902   2.3537   2.3839
     2.4286   2.4938   2.6020   2.6628   2.7237   2.7431   2.7831   2.8892
     2.9135   3.0179   3.1256   3.1756   3.2007   3.2427   3.3076   3.3827
     3.4228   3.4447   3.5372   3.5716   3.6354   3.7250   3.7818   3.8141
     3.8656   3.8917   3.9133   3.9768   4.0097   4.2408   4.3103   4.4200
     5.3206   5.4350   6.5419   6.9461   7.1604   9.7318  10.5947  11.5525
    11.8984  11.9429  12.3575  12.3779  12.6663  12.9447  13.0125  13.1547
    13.2286  13.3142  13.4051  13.4961  13.5845  13.7009  13.7607  13.8680
    13.9662  14.2382  14.2834  14.3395  14.5235

     occupation numbers 
     1.0000   1.0000   1.0000   1.0000   1.0000   1.0000   1.0000   1.0000
     1.0000   1.0000   1.0000   1.0000   1.0000   1.0000   1.0000   1.0000
     1.0000   1.0000   1.0000   1.0000   1.0000   1.0000   1.0000   1.0000
     1.0000   1.0000   1.0000   1.0000   1.0000   1.0000   1.0000   1.0000
     1.0000   1.0000   1.0000   1.0000   1.0000   1.0000   1.0000   1.0000
     1.0000   1.0000   1.0000   1.0000   1.0000   1.0000   1.0000   1.0000
     1.0000   1.0000   1.0000   1.0000   1.0000   1.0000   1.0000   1.0000
     1.0000   1.0000   1.0000   1.0000   1.0000   1.0000   1.0000   1.0000
     1.0000   1.0000   1.0000   1.0000   1.0000   1.0000   1.0000   1.0000
     1.0000   1.0000   1.0000   1.0000   1.0000   1.0000   1.0000   1.0000
     1.0000   1.0000   1.0000   1.0000   1.0000   1.0000   1.0000   1.0000
     1.0000   1.0000   1.0000   1.0000   1.0000   1.0000   1.0000   1.0000
     1.0000   1.0000   1.0000   1.0000   1.0000   1.0000   1.0000   1.0000
     1.0000   1.0000   1.0000   1.0000   1.0000   1.0000   1.0000   1.0000
     1.0000   1.0000   1.0000   1.0000   1.0000   1.0000   1.0000   1.0000
     1.0000   1.0000   1.0000   1.0000   1.0000   1.0000   1.0000   1.0000
     1.0000   1.0000   1.0000   1.0000   1.0000   0.0000   0.0000   0.0000
     0.0000   0.0000   0.0000   0.0000   0.0000   0.0000   0.0000   0.0000
     0.0000   0.0000   0.0000   0.0000   0.0000   0.0000   0.0000   0.0000
     0.0000   0.0000   0.0000   0.0000   0.0000

          k = 0.1667 0.1919 0.0295 ( 25796 PWs)   bands (ev):

   -81.1406 -67.4351 -67.4078 -67.3508 -66.8901 -66.8716 -48.1710 -46.9961
   -46.4254 -34.2027 -34.1943 -34.1780 -34.1710 -34.1602 -34.1438 -34.1141
   -34.1104 -34.0832 -33.6652 -33.6564 -33.6406 -33.6226 -33.6167 -33.6046
   -22.8412 -22.8389 -14.9202 -14.8649 -14.0898 -14.0407 -13.6216 -13.5911
   -13.1911 -13.1088 -13.0302 -12.9668 -12.8315 -12.8138 -12.7643 -12.7225
   -12.6643 -12.5515 -12.4407 -12.3732 -12.2403 -12.1986 -12.0984 -11.9730
   -11.2542 -11.0331  -6.4233  -6.4122  -6.3393  -6.3300  -6.3220  -6.3191
    -3.9598  -3.8956  -2.4210  -2.3140  -1.6737  -1.3441  -1.1783  -1.1508
    -0.7910  -0.6997  -0.6638  -0.5071  -0.3388  -0.2072  -0.1842  -0.0276
     0.0544   0.1905   0.2470   0.5308   0.5772   0.7111   0.7494   0.8268
     1.1035   1.1229   1.2548   1.3288   1.3883   1.5145   1.6426   1.6943
     1.7839   1.9387   2.0068   2.1093   2.1831   2.2520   2.3726   2.4341
     2.4603   2.5637   2.5973   2.6952   2.7621   2.8101   2.8427   2.9138
     2.9501   3.0262   3.0814   3.1294   3.1845   3.2560   3.3085   3.3342
     3.4245   3.4481   3.4946   3.5574   3.6539   3.6755   3.7365   3.8143
     3.8523   3.9118   3.9422   4.0163   4.0502   4.1602   4.2208   4.3776
     5.3338   5.4287   6.5413   6.9171   7.1711   9.8911  10.7485  11.1229
    11.6636  12.0256  12.3768  12.6961  12.7537  12.9226  12.9853  13.1133
    13.2204  13.3279  13.3959  13.5100  13.5481  13.6543  13.7563  13.8372
    13.9894  14.0598  14.3702  14.4784  14.6193

     occupation numbers 
     1.0000   1.0000   1.0000   1.0000   1.0000   1.0000   1.0000   1.0000
     1.0000   1.0000   1.0000   1.0000   1.0000   1.0000   1.0000   1.0000
     1.0000   1.0000   1.0000   1.0000   1.0000   1.0000   1.0000   1.0000
     1.0000   1.0000   1.0000   1.0000   1.0000   1.0000   1.0000   1.0000
     1.0000   1.0000   1.0000   1.0000   1.0000   1.0000   1.0000   1.0000
     1.0000   1.0000   1.0000   1.0000   1.0000   1.0000   1.0000   1.0000
     1.0000   1.0000   1.0000   1.0000   1.0000   1.0000   1.0000   1.0000
     1.0000   1.0000   1.0000   1.0000   1.0000   1.0000   1.0000   1.0000
     1.0000   1.0000   1.0000   1.0000   1.0000   1.0000   1.0000   1.0000
     1.0000   1.0000   1.0000   1.0000   1.0000   1.0000   1.0000   1.0000
     1.0000   1.0000   1.0000   1.0000   1.0000   1.0000   1.0000   1.0000
     1.0000   1.0000   1.0000   1.0000   1.0000   1.0000   1.0000   1.0000
     1.0000   1.0000   1.0000   1.0000   1.0000   1.0000   1.0000   1.0000
     1.0000   1.0000   1.0000   1.0000   1.0000   1.0000   1.0000   1.0000
     1.0000   1.0000   1.0000   1.0000   1.0000   1.0000   1.0000   1.0000
     1.0000   1.0000   1.0000   1.0000   1.0000   1.0000   1.0000   1.0000
     1.0000   1.0000   1.0000   1.0000   1.0000   0.0000   0.0000   0.0000
     0.0000   0.0000   0.0000   0.0000   0.0000   0.0000   0.0000   0.0000
     0.0000   0.0000   0.0000   0.0000   0.0000   0.0000   0.0000   0.0000
     0.0000   0.0000   0.0000   0.0000   0.0000

          k = 0.1667 0.1919 0.2050 ( 25776 PWs)   bands (ev):

   -81.1406 -67.4351 -67.4078 -67.3508 -66.8901 -66.8716 -48.1710 -46.9961
   -46.4254 -34.2027 -34.1943 -34.1780 -34.1710 -34.1602 -34.1438 -34.1141
   -34.1104 -34.0832 -33.6652 -33.6564 -33.6406 -33.6226 -33.6167 -33.6046
   -22.8412 -22.8389 -14.9031 -14.8830 -14.0773 -14.0540 -13.6198 -13.5930
   -13.1837 -13.1025 -13.0516 -12.9522 -12.8475 -12.7997 -12.7655 -12.7232
   -12.6611 -12.5563 -12.4373 -12.3774 -12.2385 -12.2009 -12.0875 -11.9822
   -11.2537 -11.0340  -6.4235  -6.4122  -6.3392  -6.3300  -6.3220  -6.3189
    -3.9602  -3.8953  -2.3957  -2.3426  -1.6448  -1.3329  -1.1968  -1.1337
    -0.7875  -0.7025  -0.6568  -0.4981  -0.3668  -0.2523  -0.1651  -0.0919
     0.0902   0.1708   0.2442   0.4810   0.5602   0.6959   0.7316   0.8771
     1.0719   1.1508   1.2603   1.3575   1.4402   1.5700   1.6458   1.7476
     1.8506   1.9075   1.9836   2.1088   2.1903   2.3294   2.3611   2.4249
     2.4778   2.5426   2.5882   2.6935   2.7145   2.7385   2.8179   2.8994
     2.9272   3.0004   3.0709   3.1269   3.1878   3.2392   3.2871   3.3280
     3.4289   3.4742   3.5504   3.5959   3.6404   3.6835   3.7278   3.8026
     3.8361   3.8916   3.9479   3.9761   4.0406   4.1758   4.2898   4.3811
     5.3317   5.4270   6.5427   6.9105   7.1714  10.2055  10.6468  10.9581
    11.3438  12.0036  12.3637  12.6904  12.8257  12.9544  13.1358  13.2609
    13.3194  13.3893  13.4241  13.4944  13.5790  13.6821  13.7568  13.8210
    13.8864  14.0055  14.2648  14.3927  14.5452

     occupation numbers 
     1.0000   1.0000   1.0000   1.0000   1.0000   1.0000   1.0000   1.0000
     1.0000   1.0000   1.0000   1.0000   1.0000   1.0000   1.0000   1.0000
     1.0000   1.0000   1.0000   1.0000   1.0000   1.0000   1.0000   1.0000
     1.0000   1.0000   1.0000   1.0000   1.0000   1.0000   1.0000   1.0000
     1.0000   1.0000   1.0000   1.0000   1.0000   1.0000   1.0000   1.0000
     1.0000   1.0000   1.0000   1.0000   1.0000   1.0000   1.0000   1.0000
     1.0000   1.0000   1.0000   1.0000   1.0000   1.0000   1.0000   1.0000
     1.0000   1.0000   1.0000   1.0000   1.0000   1.0000   1.0000   1.0000
     1.0000   1.0000   1.0000   1.0000   1.0000   1.0000   1.0000   1.0000
     1.0000   1.0000   1.0000   1.0000   1.0000   1.0000   1.0000   1.0000
     1.0000   1.0000   1.0000   1.0000   1.0000   1.0000   1.0000   1.0000
     1.0000   1.0000   1.0000   1.0000   1.0000   1.0000   1.0000   1.0000
     1.0000   1.0000   1.0000   1.0000   1.0000   1.0000   1.0000   1.0000
     1.0000   1.0000   1.0000   1.0000   1.0000   1.0000   1.0000   1.0000
     1.0000   1.0000   1.0000   1.0000   1.0000   1.0000   1.0000   1.0000
     1.0000   1.0000   1.0000   1.0000   1.0000   1.0000   1.0000   1.0000
     1.0000   1.0000   1.0000   1.0000   1.0000   0.0000   0.0000   0.0000
     0.0000   0.0000   0.0000   0.0000   0.0000   0.0000   0.0000   0.0000
     0.0000   0.0000   0.0000   0.0000   0.0000   0.0000   0.0000   0.0000
     0.0000   0.0000   0.0000   0.0000   0.0000

          k = 0.1667 0.1919-0.1461 ( 25782 PWs)   bands (ev):

   -81.1406 -67.4351 -67.4078 -67.3508 -66.8901 -66.8716 -48.1710 -46.9961
   -46.4254 -34.2027 -34.1943 -34.1780 -34.1710 -34.1602 -34.1438 -34.1141
   -34.1104 -34.0832 -33.6652 -33.6564 -33.6406 -33.6226 -33.6167 -33.6046
   -22.8412 -22.8389 -14.9105 -14.8753 -14.0800 -14.0512 -13.6170 -13.5959
   -13.1865 -13.1028 -13.0450 -12.9584 -12.8445 -12.8007 -12.7661 -12.7239
   -12.6619 -12.5552 -12.4304 -12.3833 -12.2284 -12.2117 -12.0881 -11.9807
   -11.2534 -11.0340  -6.4235  -6.4123  -6.3393  -6.3300  -6.3220  -6.3189
    -3.9437  -3.9122  -2.3968  -2.3408  -1.6555  -1.3362  -1.2020  -1.1276
    -0.7685  -0.7217  -0.6311  -0.5155  -0.3741  -0.2251  -0.1801  -0.0748
     0.0586   0.1874   0.2220   0.5131   0.5931   0.6949   0.7735   0.8664
     1.0648   1.1106   1.2440   1.3357   1.4679   1.5445   1.6712   1.7378
     1.7727   1.9181   1.9840   2.1452   2.2031   2.2716   2.3536   2.4326
     2.4871   2.5114   2.6157   2.6869   2.7163   2.7783   2.8379   2.8796
     2.9238   3.0079   3.0880   3.1614   3.2007   3.2514   3.2868   3.3377
     3.4609   3.4770   3.5169   3.5808   3.6557   3.6763   3.7003   3.8082
     3.8351   3.8914   3.9447   3.9725   4.0092   4.1777   4.2878   4.3802
     5.3333   5.4294   6.5418   6.9076   7.1724  10.0730  10.8305  10.8998
    11.4496  12.0767  12.4020  12.6826  12.7742  12.9398  13.0914  13.1366
    13.2646  13.3325  13.4139  13.4966  13.5925  13.6638  13.7208  13.9090
    13.9815  14.0208  14.2136  14.4240  14.5495

     occupation numbers 
     1.0000   1.0000   1.0000   1.0000   1.0000   1.0000   1.0000   1.0000
     1.0000   1.0000   1.0000   1.0000   1.0000   1.0000   1.0000   1.0000
     1.0000   1.0000   1.0000   1.0000   1.0000   1.0000   1.0000   1.0000
     1.0000   1.0000   1.0000   1.0000   1.0000   1.0000   1.0000   1.0000
     1.0000   1.0000   1.0000   1.0000   1.0000   1.0000   1.0000   1.0000
     1.0000   1.0000   1.0000   1.0000   1.0000   1.0000   1.0000   1.0000
     1.0000   1.0000   1.0000   1.0000   1.0000   1.0000   1.0000   1.0000
     1.0000   1.0000   1.0000   1.0000   1.0000   1.0000   1.0000   1.0000
     1.0000   1.0000   1.0000   1.0000   1.0000   1.0000   1.0000   1.0000
     1.0000   1.0000   1.0000   1.0000   1.0000   1.0000   1.0000   1.0000
     1.0000   1.0000   1.0000   1.0000   1.0000   1.0000   1.0000   1.0000
     1.0000   1.0000   1.0000   1.0000   1.0000   1.0000   1.0000   1.0000
     1.0000   1.0000   1.0000   1.0000   1.0000   1.0000   1.0000   1.0000
     1.0000   1.0000   1.0000   1.0000   1.0000   1.0000   1.0000   1.0000
     1.0000   1.0000   1.0000   1.0000   1.0000   1.0000   1.0000   1.0000
     1.0000   1.0000   1.0000   1.0000   1.0000   1.0000   1.0000   1.0000
     1.0000   1.0000   1.0000   1.0000   1.0000   0.0000   0.0000   0.0000
     0.0000   0.0000   0.0000   0.0000   0.0000   0.0000   0.0000   0.0000
     0.0000   0.0000   0.0000   0.0000   0.0000   0.0000   0.0000   0.0000
     0.0000   0.0000   0.0000   0.0000   0.0000

          k = 0.3333 0.0000 0.0589 ( 25772 PWs)   bands (ev):

[...]
     atom   11 type  7   force =     0.00017378    0.00321951   -0.01380756
     atom   12 type  7   force =    -0.00017380    0.00321951    0.01380760
     atom   13 type  7   force =    -0.00097447   -0.01079190    0.01127111
     atom   14 type  7   force =     0.00097446   -0.01079191   -0.01127107
     atom   15 type  1   force =    -0.00069706   -0.00313326   -0.00910562
     atom   16 type  1   force =     0.00069706   -0.00313326    0.00910565
     atom   17 type  6   force =    -0.00013723    0.00019964    0.00651892
     atom   18 type  6   force =     0.00013721    0.00019964   -0.00651892
     atom   19 type  6   force =    -0.00014503    0.00006902   -0.00704470
     atom   20 type  6   force =     0.00014503    0.00006902    0.00704470
     atom   21 type  6   force =     0.00048020    0.00046785    0.00671511
     atom   22 type  6   force =    -0.00048020    0.00046785   -0.00671512
     atom   23 type  6   force =    -0.00057360   -0.00110077   -0.00269692
     atom   24 type  6   force =     0.00057360   -0.00110077    0.00269690
     atom   25 type  6   force =     0.00448565   -0.00151377   -0.00585467
     atom   26 type  6   force =    -0.00448564   -0.00151378    0.00585469
     atom   27 type  6   force =    -0.00314435    0.00076754   -0.00716872
     atom   28 type  6   force =     0.00314433    0.00076754    0.00716875
     atom   29 type  6   force =    -0.00140373    0.00193143    0.00736599
     atom   30 type  6   force =     0.00140373    0.00193143   -0.00736600
     atom   31 type  6   force =     0.00074277   -0.00186890   -0.00755565
     atom   32 type  6   force =    -0.00074277   -0.00186889    0.00755565
     atom   33 type  6   force =    -0.00223662   -0.00347553   -0.00632848
     atom   34 type  6   force =     0.00223663   -0.00347553    0.00632849
     atom   35 type  6   force =     0.00118421    0.00392804    0.00645839
     atom   36 type  6   force =    -0.00118421    0.00392804   -0.00645838
     atom   37 type  6   force =    -0.00222620    0.00042395    0.01111274
     atom   38 type  6   force =     0.00222619    0.00042394   -0.01111272
     atom   39 type  6   force =     0.00001846   -0.00148742    0.01110369
     atom   40 type  6   force =    -0.00001845   -0.00148741   -0.01110367
     atom   41 type  3   force =     0.00000000    0.00000000    0.00000000
     atom   42 type  3   force =     0.00000000    0.00000000    0.00000000
     atom   43 type  3   force =     0.00000000    0.00000000    0.00000000
     atom   44 type  3   force =     0.00000000    0.00000000    0.00000000
     The Hubbard contrib.    to forces
     atom    1 type  4   force =     0.00000000    0.00000000    0.00000000
     atom    2 type  4   force =     0.00000000    0.00000000    0.00000000
     atom    3 type  5   force =     0.00000000    0.00000000    0.00000000
     atom    4 type  5   force =     0.00000000    0.00000000    0.00000000
     atom    5 type  5   force =     0.00000000    0.00000000    0.00000000
     atom    6 type  5   force =     0.00000000    0.00000000    0.00000000
     atom    7 type  5   force =     0.00000000    0.00000000    0.00000000
     atom    8 type  2   force =     0.00000000    0.00000000    0.00000000
     atom    9 type  7   force =     0.00000000    0.00000000    0.00000000
     atom   10 type  7   force =     0.00000000    0.00000000    0.00000000
     atom   11 type  7   force =     0.00000000    0.00000000    0.00000000
     atom   12 type  7   force =     0.00000000    0.00000000    0.00000000
     atom   13 type  7   force =     0.00000000    0.00000000    0.00000000
     atom   14 type  7   force =     0.00000000    0.00000000    0.00000000
     atom   15 type  1   force =     0.00000000    0.00000000    0.00000000
     atom   16 type  1   force =     0.00000000    0.00000000    0.00000000
     atom   17 type  6   force =     0.00000000    0.00000000    0.00000000
     atom   18 type  6   force =     0.00000000    0.00000000    0.00000000
     atom   19 type  6   force =     0.00000000    0.00000000    0.00000000
     atom   20 type  6   force =     0.00000000    0.00000000    0.00000000
     atom   21 type  6   force =     0.00000000    0.00000000    0.00000000
     atom   22 type  6   force =     0.00000000    0.00000000    0.00000000
     atom   23 type  6   force =     0.00000000    0.00000000    0.00000000
     atom   24 type  6   force =     0.00000000    0.00000000    0.00000000
     atom   25 type  6   force =     0.00000000    0.00000000    0.00000000
     atom   26 type  6   force =     0.00000000    0.00000000    0.00000000
     atom   27 type  6   force =     0.00000000    0.00000000    0.00000000
     atom   28 type  6   force =     0.00000000    0.00000000    0.00000000
     atom   29 type  6   force =     0.00000000    0.00000000    0.00000000
     atom   30 type  6   force =     0.00000000    0.00000000    0.00000000
     atom   31 type  6   force =     0.00000000    0.00000000    0.00000000
     atom   32 type  6   force =     0.00000000    0.00000000    0.00000000
     atom   33 type  6   force =     0.00000000    0.00000000    0.00000000
     atom   34 type  6   force =     0.00000000    0.00000000    0.00000000
     atom   35 type  6   force =     0.00000000    0.00000000    0.00000000
     atom   36 type  6   force =     0.00000000    0.00000000    0.00000000
     atom   37 type  6   force =     0.00000000    0.00000000    0.00000000
     atom   38 type  6   force =     0.00000000    0.00000000    0.00000000
     atom   39 type  6   force =     0.00000000    0.00000000    0.00000000
     atom   40 type  6   force =     0.00000000    0.00000000    0.00000000
     atom   41 type  3   force =     0.00000000    0.00000000    0.00000000
     atom   42 type  3   force =     0.00000000    0.00000000    0.00000000
     atom   43 type  3   force =     0.00000000    0.00000000    0.00000000
     atom   44 type  3   force =     0.00000000    0.00000000    0.00000000
     The SCF correction term to forces
     atom    1 type  4   force =     0.00000000    0.00000969   -0.00000000
     atom    2 type  4   force =    -0.00000000   -0.00000939   -0.00000000
     atom    3 type  5   force =    -0.00000000   -0.00001349    0.00000000
     atom    4 type  5   force =     0.00000000    0.00000201    0.00000000
     atom    5 type  5   force =    -0.00000000    0.00000869    0.00000000
     atom    6 type  5   force =     0.00000000   -0.00000528    0.00000000
     atom    7 type  5   force =    -0.00000000   -0.00001915    0.00000000
     atom    8 type  2   force =    -0.00000000    0.00004773    0.00000000
     atom    9 type  7   force =    -0.00000159   -0.00000580   -0.00001431
     atom   10 type  7   force =     0.00000159   -0.00000580    0.00001431
     atom   11 type  7   force =     0.00000011   -0.00000006    0.00000931
     atom   12 type  7   force =    -0.00000011   -0.00000006   -0.00000931
     atom   13 type  7   force =    -0.00000006    0.00000590   -0.00000809
     atom   14 type  7   force =     0.00000006    0.00000590    0.00000809
     atom   15 type  1   force =    -0.00000088    0.00000019    0.00001233
     atom   16 type  1   force =     0.00000088    0.00000019   -0.00001233
     atom   17 type  6   force =    -0.00000183   -0.00000306   -0.00000835
     atom   18 type  6   force =     0.00000183   -0.00000306    0.00000835
     atom   19 type  6   force =    -0.00000276   -0.00000188    0.00000716
     atom   20 type  6   force =     0.00000276   -0.00000188   -0.00000716
     atom   21 type  6   force =    -0.00000210    0.00000830    0.00000045
     atom   22 type  6   force =     0.00000210    0.00000830   -0.00000045
     atom   23 type  6   force =    -0.00000293   -0.00000081    0.00001931
     atom   24 type  6   force =     0.00000293   -0.00000081   -0.00001931
     atom   25 type  6   force =     0.00000314   -0.00000772   -0.00002483
     atom   26 type  6   force =    -0.00000314   -0.00000772    0.00002483
     atom   27 type  6   force =    -0.00000290   -0.00001203   -0.00002689
     atom   28 type  6   force =     0.00000290   -0.00001203    0.00002689
     atom   29 type  6   force =     0.00000465    0.00000419    0.00002495
     atom   30 type  6   force =    -0.00000465    0.00000419   -0.00002495
     atom   31 type  6   force =     0.00000658    0.00000514   -0.00002745
     atom   32 type  6   force =    -0.00000658    0.00000514    0.00002745
     atom   33 type  6   force =    -0.00000319    0.00000728   -0.00002467
     atom   34 type  6   force =     0.00000319    0.00000728    0.00002467
     atom   35 type  6   force =     0.00000013    0.00000077    0.00002387
     atom   36 type  6   force =    -0.00000013    0.00000077   -0.00002387
     atom   37 type  6   force =    -0.00000331    0.00000677   -0.00001392
     atom   38 type  6   force =     0.00000331    0.00000677    0.00001392
     atom   39 type  6   force =    -0.00000060   -0.00000979   -0.00001499
     atom   40 type  6   force =     0.00000060   -0.00000979    0.00001499
     atom   41 type  3   force =    -0.00000033    0.00000115   -0.00000035
     atom   42 type  3   force =     0.00000033    0.00000115    0.00000035
     atom   43 type  3   force =     0.00000008   -0.00000172    0.00000054
     atom   44 type  3   force =    -0.00000008   -0.00000172   -0.00000054

     DFT-D3 dispersion contribution to forces:
     atom    1 type  4   force =     0.00000000    0.00107829    0.00000000
     atom    2 type  4   force =     0.00000000   -0.00098705    0.00000000
     atom    3 type  5   force =    -0.00000000    0.00030517   -0.00000000
     atom    4 type  5   force =     0.00000000    0.00086000   -0.00000000
     atom    5 type  5   force =     0.00000000   -0.00122248   -0.00000000
     atom    6 type  5   force =     0.00000000    0.00111628   -0.00000000
     atom    7 type  5   force =     0.00000000   -0.00033441   -0.00000000
     atom    8 type  2   force =    -0.00000000   -0.00061698   -0.00000000
     atom    9 type  7   force =     0.00004440   -0.00016099   -0.00032466
     atom   10 type  7   force =    -0.00004440   -0.00016099    0.00032466
     atom   11 type  7   force =     0.00002453    0.00015715    0.00026438
     atom   12 type  7   force =    -0.00002453    0.00015715   -0.00026438
     atom   13 type  7   force =    -0.00010036    0.00010123   -0.00001609
     atom   14 type  7   force =     0.00010036    0.00010123    0.00001609
     atom   15 type  1   force =     0.00012457    0.00016214   -0.00106910
     atom   16 type  1   force =    -0.00012457    0.00016214    0.00106910
     atom   17 type  6   force =    -0.00002054    0.00001262    0.00043825
     atom   18 type  6   force =     0.00002054    0.00001262   -0.00043825
     atom   19 type  6   force =     0.00001537    0.00004290   -0.00038850
     atom   20 type  6   force =    -0.00001537    0.00004290    0.00038849
     atom   21 type  6   force =    -0.00004009   -0.00008114    0.00046790
     atom   22 type  6   force =     0.00004009   -0.00008114   -0.00046789
     atom   23 type  6   force =    -0.00002090    0.00003402    0.00005439
     atom   24 type  6   force =     0.00002090    0.00003402   -0.00005439
     atom   25 type  6   force =    -0.00018569    0.00098968    0.00031717
     atom   26 type  6   force =     0.00018569    0.00098968   -0.00031718
     atom   27 type  6   force =     0.00083858    0.00007120    0.00019941
     atom   28 type  6   force =    -0.00083858    0.00007120   -0.00019941
     atom   29 type  6   force =     0.00032564   -0.00049032    0.00005328
     atom   30 type  6   force =    -0.00032564   -0.00049032   -0.00005328
     atom   31 type  6   force =    -0.00018224    0.00032214   -0.00009899
     atom   32 type  6   force =     0.00018224    0.00032214    0.00009899
     atom   33 type  6   force =     0.00091883   -0.00044255    0.00040314
     atom   34 type  6   force =    -0.00091883   -0.00044254   -0.00040314
     atom   35 type  6   force =     0.00065408   -0.00054202   -0.00046026
     atom   36 type  6   force =    -0.00065408   -0.00054202    0.00046026
     atom   37 type  6   force =     0.00013937   -0.00001459   -0.00044936
     atom   38 type  6   force =    -0.00013937   -0.00001459    0.00044936
     atom   39 type  6   force =     0.00001278    0.00005650   -0.00051134
     atom   40 type  6   force =    -0.00001278    0.00005650    0.00051134
     atom   41 type  3   force =    -0.00002868    0.00005787   -0.00012076
     atom   42 type  3   force =     0.00002868    0.00005787    0.00012076
     atom   43 type  3   force =     0.00001927   -0.00037525   -0.00033411
     atom   44 type  3   force =    -0.00001927   -0.00037525    0.00033411

     Total force =     0.002717     Total SCF correction =     0.000123

     DFT-D3 dispersion Force =     0.004553


     Computing stress (Cartesian axis) and pressure


     negative rho (up, down):  0.000E+00 4.809E-04
          total   stress  (Ry/bohr**3)                   (kbar)     P=       -0.41
  -0.00000286   0.00000000   0.00000015           -0.42        0.00        0.02
   0.00000000  -0.00000444   0.00000000            0.00       -0.65        0.00
   0.00000015   0.00000000  -0.00000102            0.02        0.00       -0.15

     kinetic stress (kbar)  20097.64      0.00     18.95
                                0.00  20015.69      0.00
                               18.95      0.00  19843.87

     local   stress (kbar) -40444.63      0.00    147.98
                                0.00 -40273.54      0.00
                              147.98      0.00  19330.28

     nonloc. stress (kbar)   3792.56      0.00      0.47
                                0.00   3794.40      0.00
                                0.47      0.00   3771.03

     hartree stress (kbar)  22797.01      0.00    -55.91
                                0.00  22719.49     -0.00
                              -55.91     -0.00  -6429.13

     exc-cor stress (kbar)  -2815.34     -0.00     -0.10
                               -0.00  -2815.73     -0.00
                               -0.10     -0.00  -2812.11

     corecor stress (kbar)  -1854.53      0.00     -0.06
                                0.00  -1854.03      0.00
                               -0.06      0.00  -1856.22

     ewald   stress (kbar)  -1558.61     -0.00   -111.47
                               -0.00  -1572.18      0.00
                             -111.47      0.00 -31836.95

     hubbard stress (kbar)      0.00      0.00      0.00
                                0.00      0.00      0.00
                                0.00      0.00      0.00

     DFT-D   stress (kbar)    -14.52     -0.00      0.16
                               -0.00    -14.74      0.00
                                0.16      0.00    -10.91

     XDM     stress (kbar)      0.00      0.00      0.00
                                0.00      0.00      0.00
                                0.00      0.00      0.00

     dft-nl  stress (kbar)      0.00      0.00      0.00
                                0.00      0.00      0.00
                                0.00      0.00      0.00

     TS-vdW  stress (kbar)      0.00      0.00      0.00
                                0.00      0.00      0.00
                                0.00      0.00      0.00

     MDB     stress (kbar)      0.00      0.00      0.00
                                0.00      0.00      0.00
                                0.00      0.00      0.00

     3D-RISM stress (kbar)      0.00      0.00      0.00
                                0.00      0.00      0.00
                                0.00      0.00      0.00


     Writing all to output data dir ./temp/phl-fe1-dftd3.save/ :
     XML data file, charge density, pseudopotentials, collected wavefunctions

     init_run     :    669.85s CPU    677.18s WALL (       2 calls)
     electrons    : 203203.73s CPU 204183.75s WALL (      20 calls)
     update_pot   :     37.94s CPU     38.58s WALL (      18 calls)
     forces       :   3635.53s CPU   3650.56s WALL (      20 calls)
     force_dftd3  :     72.62s CPU     72.73s WALL (      20 calls)
     stress       :   9812.25s CPU   9902.12s WALL (      20 calls)
     stres_dftd3  :     72.61s CPU     72.74s WALL (      20 calls)

     Called by init_run:
     wfcinit      :    646.64s CPU    652.21s WALL (       2 calls)
     wfcinit:atom :      0.95s CPU      0.97s WALL (      80 calls)
     wfcinit:wfcr :    638.15s CPU    643.58s WALL (      80 calls)
     potinit      :      5.87s CPU      6.24s WALL (       2 calls)
     hinit0       :      2.98s CPU      3.11s WALL (       2 calls)

     Called by electrons:
     c_bands      : 187209.48s CPU 187879.25s WALL (     204 calls)
     sum_band     :  14498.38s CPU  14690.17s WALL (     204 calls)
     v_of_rho     :     97.05s CPU    100.93s WALL (     213 calls)
     v_h          :      4.14s CPU      4.39s WALL (     213 calls)
     v_xc         :    109.45s CPU    114.19s WALL (     253 calls)
     newd         :   1115.37s CPU   1241.17s WALL (     213 calls)
     PAW_pot      :    364.44s CPU    364.50s WALL (     231 calls)
     mix_rho      :     17.48s CPU     17.98s WALL (     204 calls)
     energy_dftd3 :     58.74s CPU     58.74s WALL (      20 calls)

     Called by c_bands:
     init_us_2    :    438.48s CPU    439.03s WALL (   18720 calls)
     cegterg      : 186500.33s CPU 187163.50s WALL (    8202 calls)

     Called by sum_band:
     sum_band:wei :      0.08s CPU      0.08s WALL (     204 calls)
     sum_band:loo :  12268.87s CPU  12337.61s WALL (     204 calls)
     sum_band:buf :     58.21s CPU     58.28s WALL (    8160 calls)
     sum_band:ini :    195.12s CPU    195.31s WALL (    8160 calls)
     sum_band:cal :   9707.31s CPU   9711.25s WALL (    8880 calls)
     sum_band:bec :     16.21s CPU     16.24s WALL (    8880 calls)
     addusdens    :   2216.52s CPU   2338.71s WALL (     204 calls)
                                        0.00s GPU  (     204 calls)
     addusd:skk   :      6.61s CPU     10.01s WALL (    1428 calls)
                                        0.00s GPU  (    1428 calls)

     Called by *egterg:
     cdiaghg      :   3387.71s CPU   3425.00s WALL (   59526 calls)
     cegterg:over :  24922.03s CPU  24934.19s WALL (   52526 calls)
     cegterg:upda :  14375.64s CPU  14384.90s WALL (   52526 calls)
     cegterg:last :  38423.34s CPU  38438.70s WALL (   23583 calls)
     cdiaghg:chol :     75.14s CPU     75.24s WALL (   59526 calls)
     cdiaghg:inve :     65.39s CPU     65.51s WALL (   59526 calls)
     cdiaghg:para :   1299.96s CPU   1316.37s WALL (  119052 calls)
     h_psi        :  72170.02s CPU  72640.15s WALL (   60808 calls)
     s_psi        :  28774.07s CPU  28782.89s WALL (   60808 calls)
     g_psi        :     89.40s CPU     89.55s WALL (   52526 calls)

     Called by h_psi:
     h_psi:calbec :  28890.95s CPU  28908.14s WALL (   60808 calls)
     vloc_psi     :  14302.49s CPU  14674.83s WALL (   60808 calls)
     add_vuspsi   :  28843.14s CPU  28852.68s WALL (   60808 calls)

     General routines
     calbec       :  42644.09s CPU  42666.20s WALL (   73688 calls)
     fft          :     67.55s CPU     72.35s WALL (    6125 calls)
     ffts         :      2.44s CPU      2.53s WALL (     834 calls)
     fftw         :  11088.88s CPU  11348.39s WALL ( 9571006 calls)
     interpolate  :      7.55s CPU      7.85s WALL (     426 calls)

     Parallel routines

     PAW routines
     PAW_pot      :    364.44s CPU    364.50s WALL (     231 calls)
     PAW_symme    :      0.11s CPU      0.12s WALL (     435 calls)

     PWSCF        :   2d12h37m CPU   2d12h55m WALL


   This run was terminated on:   5: 3:44   2Jan2025            

=------------------------------------------------------------------------------=
   JOB DONE.
=------------------------------------------------------------------------------=
