
     Program PWSCF v.7.3.1 starts on 19Dec2024 at  2:37:44 

     This program is part of the open-source Quantum ESPRESSO suite
     for quantum simulation of materials; please cite
         "P. Giannozzi et al., J. Phys.:Condens. Matter 21 395502 (2009);
         "P. Giannozzi et al., J. Phys.:Condens. Matter 29 465901 (2017);
         "P. Giannozzi et al., J. Chem. Phys. 152 154105 (2020);
          URL http://www.quantum-espresso.org", 
     in publications or presentations arising from this work. More details at
     http://www.quantum-espresso.org/quote

     Parallel version (MPI), running on     8 processors

     MPI processes distributed on     1 nodes
     9001 MiB available memory on the printing compute node when the environment starts

     Reading input from relax.in
Warning: card  &CELL ignored
Warning: card    CELL_DOFREE     = 'IBRAV' ignored
Warning: card  / ignored

     Current dimensions of program PWSCF are:
     Max number of different atomic species (ntypx) = 10
     Max number of k-points (npk) =  40000
     Max angular momentum in pseudopotentials (lmaxx) =  4
     file Al.pbe-n-kjpaw_psl.1.0.0.UPF: wavefunction(s)  3S 3P renormalized
     file Fe.pbe-spn-kjpaw_psl.1.0.0.UPF: wavefunction(s)  3P 3D renormalized
     file H.pbe-kjpaw_psl.1.0.0.UPF: wavefunction(s)  1S renormalized
     file K.pbe-spn-kjpaw_psl.1.0.0.UPF: wavefunction(s)  3S renormalized
     file Mg.pbe-spnl-kjpaw_psl.1.0.0.UPF: wavefunction(s)  2P renormalized
     file O.pbe-n-kjpaw_psl.1.0.0.UPF: wavefunction(s)  2S 2P renormalized
     file Si.pbe-n-kjpaw_psl.1.0.0.UPF: wavefunction(s)  3S 3P renormalized

     R & G space division:  proc/nbgrp/npool/nimage =       8
     Subspace diagonalization in iterative solution of the eigenvalue problem:
     one sub-group per band group will be used
     custom distributed-memory algorithm (size of sub-group:  2*  2 procs)


     Parallelization info
     --------------------
     sticks:   dense  smooth     PW     G-vecs:    dense   smooth      PW
     Min         826     414    112                72941    25797    3671
     Max         827     415    113                72945    25802    3672
     Sum        6609    3313    901               583539   206401   29369

     Using Slab Decomposition



     bravais-lattice index     =          -12
     lattice parameter (alat)  =       9.9883  a.u.
     unit-cell volume          =    3285.8057 (a.u.)^3
     number of atoms/cell      =           44
     number of atomic types    =            7
     number of electrons       =       262.00
     number of Kohn-Sham states=          157
     kinetic-energy cutoff     =      60.0000  Ry
     charge density cutoff     =     480.0000  Ry
     scf convergence threshold =      1.0E-06
     mixing beta               =       0.7000
     number of iterations used =            8  plain     mixing
     energy convergence thresh.=      1.0E-04
     force convergence thresh. =      1.0E-03
     Exchange-correlation= SLA  PW   PBX  PBC
                           (   1   4   3   4   0   0   0)
     nstep                     =           50


     celldm(1)=   9.988336  celldm(2)=   1.736567  celldm(3)=   1.928182
     celldm(4)=   0.000000  celldm(5)=  -0.174018  celldm(6)=   0.000000

     crystal axes: (cart. coord. in units of alat)
               a(1) = (   1.000000   0.000000   0.000000 )  
               a(2) = (   0.000000   1.736567   0.000000 )  
               a(3) = (  -0.335538   0.000000   1.898763 )  

     reciprocal axes: (cart. coord. in units 2 pi/alat)
               b(1) = (  1.000000 -0.000000  0.176714 )  
               b(2) = (  0.000000  0.575849 -0.000000 )  
               b(3) = (  0.000000  0.000000  0.526659 )  


     PseudoPot. # 1 for Al read from file:
     ./../../pseudos/Al.pbe-n-kjpaw_psl.1.0.0.UPF
     MD5 check sum: 502b6b27b9c6270cab5dd1084b96fa6d
     Pseudo is Projector augmented-wave + core cor, Zval =  3.0
     Generated using &quot;atomic&quot; code by A. Dal Corso  v.6.3
     Shape of augmentation charge: PSQ
     Using radial grid of 1135 points,  6 beta functions with: 
                l(1) =   0
                l(2) =   0
                l(3) =   1
                l(4) =   1
                l(5) =   2
                l(6) =   2
     Q(r) pseudized with 0 coefficients 


     PseudoPot. # 2 for Fe read from file:
     ./../../pseudos/Fe.pbe-spn-kjpaw_psl.1.0.0.UPF
     MD5 check sum: fc81f059e5c5069939230b1155715ae8
     Pseudo is Projector augmented-wave + core cor, Zval = 16.0
     Generated using &quot;atomic&quot; code by A. Dal Corso  v.6.3
     Shape of augmentation charge: PSQ
     Using radial grid of 1191 points,  6 beta functions with: 
                l(1) =   0
                l(2) =   0
                l(3) =   1
                l(4) =   1
                l(5) =   2
                l(6) =   2
     Q(r) pseudized with 0 coefficients 


     PseudoPot. # 3 for H  read from file:
     ./../../pseudos/H.pbe-kjpaw_psl.1.0.0.UPF
     MD5 check sum: d81a744832360e4a8af0b0b5b123bc2a
     Pseudo is Projector augmented-wave, Zval =  1.0
     Generated using &quot;atomic&quot; code by A. Dal Corso  v.6.3MaX
     Shape of augmentation charge: PSQ
     Using radial grid of  929 points,  2 beta functions with: 
                l(1) =   0
                l(2) =   0
     Q(r) pseudized with 0 coefficients 


     PseudoPot. # 4 for K  read from file:
     ./../../pseudos/K.pbe-spn-kjpaw_psl.1.0.0.UPF
     MD5 check sum: 34cc42130a09071ebe376fd42eb21491
     Pseudo is Projector augmented-wave + core cor, Zval =  9.0
     Generated using &quot;atomic&quot; code by A. Dal Corso  v.6.2.2
     Shape of augmentation charge: PSQ
     Using radial grid of 1165 points,  6 beta functions with: 
                l(1) =   0
                l(2) =   0
                l(3) =   1
                l(4) =   1
                l(5) =   2
                l(6) =   2
     Q(r) pseudized with 0 coefficients 


     PseudoPot. # 5 for Mg read from file:
     ./../../pseudos/Mg.pbe-spnl-kjpaw_psl.1.0.0.UPF
     MD5 check sum: fda14e0d92a6a9a5ebed782e5a4b3067
     Pseudo is Projector augmented-wave + core cor, Zval = 10.0
     Generated using &quot;atomic&quot; code by A. Dal Corso  v.6.3
     Shape of augmentation charge: PSQ
     Using radial grid of 1129 points,  4 beta functions with: 
                l(1) =   0
                l(2) =   0
                l(3) =   1
                l(4) =   1
     Q(r) pseudized with 0 coefficients 


     PseudoPot. # 6 for O  read from file:
     ./../../pseudos/O.pbe-n-kjpaw_psl.1.0.0.UPF
     MD5 check sum: e99d9cef9b487d1ca56f5b95ecd0fd7a
     Pseudo is Projector augmented-wave + core cor, Zval =  6.0
     Generated using &quot;atomic&quot; code by A. Dal Corso  v.6.3
     Shape of augmentation charge: PSQ
     Using radial grid of 1095 points,  4 beta functions with: 
                l(1) =   0
                l(2) =   0
                l(3) =   1
                l(4) =   1
     Q(r) pseudized with 0 coefficients 


     PseudoPot. # 7 for Si read from file:
     ./../../pseudos/Si.pbe-n-kjpaw_psl.1.0.0.UPF
     MD5 check sum: c39c59da582df4a0d9f10159256ea34e
     Pseudo is Projector augmented-wave + core cor, Zval =  4.0
     Generated using &quot;atomic&quot; code by A. Dal Corso  v.6.3
     Shape of augmentation charge: PSQ
     Using radial grid of 1141 points,  6 beta functions with: 
                l(1) =   0
                l(2) =   0
                l(3) =   1
                l(4) =   1
                l(5) =   2
                l(6) =   2
     Q(r) pseudized with 0 coefficients 


     atomic species   valence    mass     pseudopotential
     Al                3.00    26.98154     Al( 1.00)
     Fe               16.00    55.84500     Fe( 1.00)
     H                 1.00     1.00794     H ( 1.00)
     K                 9.00    39.09830     K ( 1.00)
     Mg               10.00    24.30500     Mg( 1.00)
     O                 6.00    15.99940     O ( 1.00)
     Si                4.00    28.08550     Si( 1.00)

      2 Sym. Ops. (no inversion) found


                                    s                        frac. trans.

      isym =  1     identity                                     

 cryst.   s( 1) = (     1          0          0      )
                  (     0          1          0      )
                  (     0          0          1      )

 cart.    s( 1) = (  1.0000000  0.0000000  0.0000000 )
                  (  0.0000000  1.0000000  0.0000000 )
                  (  0.0000000  0.0000000  1.0000000 )


      isym =  2     180 deg rotation - cart. axis [0,1,0]        

 cryst.   s( 2) = (    -1          0          0      )
                  (     0          1          0      )
                  (     0          0         -1      )

 cart.    s( 2) = ( -1.0000000  0.0000000  0.0000000 )
                  (  0.0000000  1.0000000  0.0000000 )
                  (  0.0000000  0.0000000 -1.0000000 )


     point group C_2  (2)   
     there are  2 classes
     the character table:

       E     C2   
A      1.00  1.00
B      1.00 -1.00

     the symmetry operations in each class and the name of the first element:

     E        1
          identity                                               
     C2       2
          180 deg rotation - cart. axis [0,1,0]                  

   Cartesian axes

     site n.     atom                  positions (alat units)
         1        K      tau(   1) = (   0.0000000   0.8568223   0.0000000  )
         2        K      tau(   2) = (   0.5000000   0.0097248   0.0000000  )
         3        Mg     tau(   3) = (  -0.1677688   0.0062516   0.9493815  )
         4        Mg     tau(   4) = (  -0.1677688   0.5789715   0.9493815  )
         5        Mg     tau(   5) = (  -0.1677688   1.1532543   0.9493815  )
         6        Mg     tau(   6) = (   0.3322312   1.4489917   0.9493815  )
         7        Mg     tau(   7) = (   0.3322312   0.3011208   0.9493815  )
         8        Fe     tau(   8) = (   0.3322312   0.8644632   0.9493815  )
         9        Si     tau(   9) = (   0.0078751   0.2868809   0.4234242  )
        10        Si     tau(  10) = (   0.6565873   0.2868809   1.4753389  )
        11        Si     tau(  11) = (   0.6740999   1.4484708   1.4645160  )
        12        Si     tau(  12) = (  -0.0096375   1.4484708   0.4342471  )
        13        Si     tau(  13) = (   0.4895001   1.1563801   0.4306395  )
        14        Si     tau(  14) = (   0.1749623   1.1563801   1.4681237  )
        15        Al     tau(  15) = (   0.1565906   0.5770613   1.4724908  )
        16        Al     tau(  16) = (   0.5078718   0.5770613   0.4262723  )
        17        O      tau(  17) = (  -0.0026826   0.2835814   0.7315934  )
        18        O      tau(  18) = (   0.6671450   0.2835814   1.1671696  )
        19        O      tau(  19) = (   0.6695214   1.4455186   1.1588151  )
        20        O      tau(  20) = (  -0.0050590   1.4455186   0.7399480  )
        21        O      tau(  21) = (   0.4958430   1.1596796   0.7382391  )
        22        O      tau(  22) = (   0.1686195   1.1596796   1.1605239  )
        23        O      tau(  23) = (   0.1614037   0.5826183   1.1453339  )
        24        O      tau(  24) = (   0.5030587   0.5826183   0.7534292  )
        25        O      tau(  25) = (   0.2868665   0.3546070   0.3159542  )
        26        O      tau(  26) = (   0.3775959   0.3546070   1.5828089  )
        27        O      tau(  27) = (   0.9409297   1.7313575   0.3189922  )
        28        O      tau(  28) = (  -0.2764673   1.7313575   1.5797709  )
        29        O      tau(  29) = (   0.4011696   1.3470552   1.5767328  )
        30        O      tau(  30) = (   0.2632928   1.3470552   0.3220302  )
        31        O      tau(  31) = (   0.7619283   1.2692570   0.3201314  )
        32        O      tau(  32) = (  -0.0974659   1.2692570   1.5786317  )
        33        O      tau(  33) = (   0.4412429   0.8820025   0.3075996  )
        34        O      tau(  34) = (   0.2232195   0.8820025   1.5911635  )
        35        O      tau(  35) = (  -0.1370160   0.4799872   1.5930622  )
        36        O      tau(  36) = (   0.8014784   0.4799872   0.3057009  )
        37        O      tau(  37) = (   0.0045271   0.8729723   0.7519102  )
        38        O      tau(  38) = (   0.6599353   0.8729723   1.1468528  )
        39        O      tau(  39) = (   0.4991915   1.7355254   0.7538090  )
        40        O      tau(  40) = (   0.1652709   1.7355254   1.1449541  )
        41        H      tau(  41) = (   0.0188690   0.8575169   0.5722872  )
        42        H      tau(  42) = (   0.6455934   0.8575169   1.3264759  )
        43        H      tau(  43) = (   0.4947663   0.0220544   0.5745657  )
        44        H      tau(  44) = (   0.1696961   0.0220544   1.3241973  )

     -------------------------------------------------
     Parameters for Dispersion (Grimme-D2) Correction:
     -------------------------------------------------
       atom      VdW radius       C_6     

        Al         3.097        374.319
        Fe         2.952        374.666
        H          1.892          4.857
        K          2.806        374.666
        Mg         2.578        198.087
        O          2.536         24.284
        Si         3.243        320.200

   Crystallographic axes

     site n.     atom                  positions (cryst. coord.)
         1        K      tau(   1) = (  0.0000000  0.4934000  0.0000000  )
         2        K      tau(   2) = (  0.5000000  0.0056000  0.0000000  )
         3        Mg     tau(   3) = (  0.0000000  0.0036000  0.5000000  )
         4        Mg     tau(   4) = (  0.0000000  0.3334000  0.5000000  )
         5        Mg     tau(   5) = (  0.0000000  0.6641000  0.5000000  )
         6        Mg     tau(   6) = (  0.5000000  0.8344000  0.5000000  )
         7        Mg     tau(   7) = (  0.5000000  0.1734000  0.5000000  )
         8        Fe     tau(   8) = (  0.5000000  0.4978000  0.5000000  )
         9        Si     tau(   9) = (  0.0827000  0.1652000  0.2230000  )
        10        Si     tau(  10) = (  0.9173000  0.1652000  0.7770000  )
        11        Si     tau(  11) = (  0.9329000  0.8341000  0.7713000  )
        12        Si     tau(  12) = (  0.0671000  0.8341000  0.2287000  )
        13        Si     tau(  13) = (  0.5656000  0.6659000  0.2268000  )
        14        Si     tau(  14) = (  0.4344000  0.6659000  0.7732000  )
        15        Al     tau(  15) = (  0.4168000  0.3323000  0.7755000  )
        16        Al     tau(  16) = (  0.5832000  0.3323000  0.2245000  )
        17        O      tau(  17) = (  0.1266000  0.1633000  0.3853000  )
        18        O      tau(  18) = (  0.8734000  0.1633000  0.6147000  )
        19        O      tau(  19) = (  0.8743000  0.8324000  0.6103000  )
        20        O      tau(  20) = (  0.1257000  0.8324000  0.3897000  )
        21        O      tau(  21) = (  0.6263000  0.6678000  0.3888000  )
        22        O      tau(  22) = (  0.3737000  0.6678000  0.6112000  )
        23        O      tau(  23) = (  0.3638000  0.3355000  0.6032000  )
        24        O      tau(  24) = (  0.6362000  0.3355000  0.3968000  )
        25        O      tau(  25) = (  0.3427000  0.2042000  0.1664000  )
        26        O      tau(  26) = (  0.6573000  0.2042000  0.8336000  )
        27        O      tau(  27) = (  0.9973000  0.9970000  0.1680000  )
        28        O      tau(  28) = (  0.0027000  0.9970000  0.8320000  )
        29        O      tau(  29) = (  0.6798000  0.7757000  0.8304000  )
        30        O      tau(  30) = (  0.3202000  0.7757000  0.1696000  )
        31        O      tau(  31) = (  0.8185000  0.7309000  0.1686000  )
        32        O      tau(  32) = (  0.1815000  0.7309000  0.8314000  )
        33        O      tau(  33) = (  0.4956000  0.5079000  0.1620000  )
        34        O      tau(  34) = (  0.5044000  0.5079000  0.8380000  )
        35        O      tau(  35) = (  0.1445000  0.2764000  0.8390000  )
        36        O      tau(  36) = (  0.8555000  0.2764000  0.1610000  )
        37        O      tau(  37) = (  0.1374000  0.5027000  0.3960000  )
        38        O      tau(  38) = (  0.8626000  0.5027000  0.6040000  )
        39        O      tau(  39) = (  0.6324000  0.9994000  0.3970000  )
        40        O      tau(  40) = (  0.3676000  0.9994000  0.6030000  )
        41        H      tau(  41) = (  0.1200000  0.4938000  0.3014000  )
        42        H      tau(  42) = (  0.8800000  0.4938000  0.6986000  )
        43        H      tau(  43) = (  0.5963000  0.0127000  0.3026000  )
        44        H      tau(  44) = (  0.4037000  0.0127000  0.6974000  )

     number of k points=    20  Gaussian smearing, width (Ry)=  0.0010
                       cart. coord. in units 2pi/alat
        k(    1) = (   0.0000000   0.0000000   0.0000000), wk =   0.0370370
        k(    2) = (   0.0000000   0.0000000   0.1755529), wk =   0.0740741
        k(    3) = (   0.0000000   0.1919496   0.0000000), wk =   0.0740741
        k(    4) = (   0.0000000   0.1919496   0.1755529), wk =   0.1481481
        k(    5) = (   0.1666667   0.0000000   0.0294523), wk =   0.0740741
        k(    6) = (   0.1666667   0.0000000   0.2050052), wk =   0.0740741
        k(    7) = (   0.1666667   0.0000000  -0.1461006), wk =   0.0740741
        k(    8) = (   0.1666667   0.1919496   0.0294523), wk =   0.1481481
        k(    9) = (   0.1666667   0.1919496   0.2050052), wk =   0.1481481
        k(   10) = (   0.1666667   0.1919496  -0.1461006), wk =   0.1481481
        k(   11) = (   0.3333333   0.0000000   0.0589046), wk =   0.0740741
        k(   12) = (   0.3333333   0.0000000   0.2344575), wk =   0.0740741
        k(   13) = (   0.3333333   0.0000000  -0.1166483), wk =   0.0740741
        k(   14) = (   0.3333333   0.1919496   0.0589046), wk =   0.1481481
        k(   15) = (   0.3333333   0.1919496   0.2344575), wk =   0.1481481
        k(   16) = (   0.3333333   0.1919496  -0.1166483), wk =   0.1481481
        k(   17) = (  -0.5000000   0.0000000  -0.0883569), wk =   0.0370370
        k(   18) = (  -0.5000000   0.0000000   0.0871960), wk =   0.0740741
        k(   19) = (  -0.5000000   0.1919496  -0.0883569), wk =   0.0740741
        k(   20) = (  -0.5000000   0.1919496   0.0871960), wk =   0.1481481

                       cryst. coord.
        k(    1) = (   0.0000000   0.0000000   0.0000000), wk =   0.0370370
        k(    2) = (   0.0000000   0.0000000   0.3333333), wk =   0.0740741
        k(    3) = (   0.0000000   0.3333333   0.0000000), wk =   0.0740741
        k(    4) = (   0.0000000   0.3333333   0.3333333), wk =   0.1481481
        k(    5) = (   0.1666667   0.0000000   0.0000000), wk =   0.0740741
        k(    6) = (   0.1666667   0.0000000   0.3333333), wk =   0.0740741
        k(    7) = (   0.1666667   0.0000000  -0.3333333), wk =   0.0740741
        k(    8) = (   0.1666667   0.3333333   0.0000000), wk =   0.1481481
        k(    9) = (   0.1666667   0.3333333   0.3333333), wk =   0.1481481
        k(   10) = (   0.1666667   0.3333333  -0.3333333), wk =   0.1481481
        k(   11) = (   0.3333333   0.0000000   0.0000000), wk =   0.0740741
        k(   12) = (   0.3333333   0.0000000   0.3333333), wk =   0.0740741
        k(   13) = (   0.3333333   0.0000000  -0.3333333), wk =   0.0740741
        k(   14) = (   0.3333333   0.3333333   0.0000000), wk =   0.1481481
        k(   15) = (   0.3333333   0.3333333   0.3333333), wk =   0.1481481
        k(   16) = (   0.3333333   0.3333333  -0.3333333), wk =   0.1481481
        k(   17) = (  -0.5000000   0.0000000   0.0000000), wk =   0.0370370
        k(   18) = (  -0.5000000   0.0000000   0.3333333), wk =   0.0740741
        k(   19) = (  -0.5000000   0.3333333   0.0000000), wk =   0.0740741
        k(   20) = (  -0.5000000   0.3333333   0.3333333), wk =   0.1481481

     Dense  grid:   583539 G-vectors     FFT dimensions: (  72, 125, 135)

     Smooth grid:   206401 G-vectors     FFT dimensions: (  50,  90,  96)

     Dynamical RAM for                 wfc:       7.72 MB

     Dynamical RAM for     wfc (w. buffer):     162.14 MB

     Dynamical RAM for           str. fact:       7.79 MB

     Dynamical RAM for           local pot:       0.00 MB

     Dynamical RAM for          nlocal pot:      21.54 MB

     Dynamical RAM for                qrad:      12.30 MB

     Dynamical RAM for          rho,v,vnew:       6.84 MB

     Dynamical RAM for               rhoin:       2.28 MB

     Dynamical RAM for            rho*nmix:      17.81 MB

     Dynamical RAM for           G-vectors:       4.37 MB

     Dynamical RAM for          h,s,v(r/c):       1.13 MB

     Dynamical RAM for          <psi|beta>:       1.05 MB

     Dynamical RAM for                 psi:      15.44 MB

     Dynamical RAM for                hpsi:      15.44 MB

     Dynamical RAM for                spsi:      15.44 MB

     Dynamical RAM for      wfcinit/wfcrot:      18.77 MB

     Dynamical RAM for           addusdens:     233.73 MB

     Dynamical RAM for          addusforce:     285.58 MB

     Dynamical RAM for         addusstress:     223.72 MB

     Estimated static dynamical RAM per process >     232.01 MB

     Estimated max dynamical RAM per process >     535.40 MB

     Estimated total dynamical RAM >       4.18 GB

     Check: negative core charge=   -0.000004

     Initial potential from superposition of free atoms

     starting charge     261.9493, renormalised to     262.0000
     Starting wfcs are  183 randomized atomic wfcs
     Checking if some PAW data can be deallocated... 
       PAW data deallocated on    7 nodes for type:  1
       PAW data deallocated on    7 nodes for type:  2
       PAW data deallocated on    7 nodes for type:  3
       PAW data deallocated on    7 nodes for type:  4
       PAW data deallocated on    6 nodes for type:  5
       PAW data deallocated on    2 nodes for type:  6
       PAW data deallocated on    6 nodes for type:  7

     total cpu time spent up to now is      120.6 secs

     Self-consistent Calculation

     iteration #  1     ecut=    60.00 Ry     beta= 0.70
     Davidson diagonalization with overlap

---- Real-time Memory Report at c_bands before calling an iterative solver
           302 MiB given to the printing process from OS
             0 MiB allocation reported by mallinfo(arena+hblkhd)
          7486 MiB available memory on the node where the printing process lives
------------------
     ethr =  1.00E-02,  avg # of iterations =  6.0

     total cpu time spent up to now is      485.9 secs

     total energy              =   -2623.96964608 Ry
     estimated scf accuracy    <      12.24144130 Ry

     iteration #  2     ecut=    60.00 Ry     beta= 0.70
     Davidson diagonalization with overlap

---- Real-time Memory Report at c_bands before calling an iterative solver
           517 MiB given to the printing process from OS
             0 MiB allocation reported by mallinfo(arena+hblkhd)
          7266 MiB available memory on the node where the printing process lives
------------------
     ethr =  4.67E-03,  avg # of iterations =  5.3

     total cpu time spent up to now is     1049.6 secs

     total energy              =   -2629.25468938 Ry
     estimated scf accuracy    <      11.34322642 Ry

     iteration #  3     ecut=    60.00 Ry     beta= 0.70
     Davidson diagonalization with overlap

---- Real-time Memory Report at c_bands before calling an iterative solver
           522 MiB given to the printing process from OS
             0 MiB allocation reported by mallinfo(arena+hblkhd)
          7224 MiB available memory on the node where the printing process lives
------------------
     ethr =  4.33E-03,  avg # of iterations =  2.0

     total cpu time spent up to now is     1334.3 secs

     total energy              =   -2630.09679226 Ry
     estimated scf accuracy    <       2.75610267 Ry

     iteration #  4     ecut=    60.00 Ry     beta= 0.70
     Davidson diagonalization with overlap

---- Real-time Memory Report at c_bands before calling an iterative solver
           522 MiB given to the printing process from OS
             0 MiB allocation reported by mallinfo(arena+hblkhd)
          7216 MiB available memory on the node where the printing process lives
------------------
     ethr =  1.05E-03,  avg # of iterations =  4.8

     total cpu time spent up to now is     1742.6 secs

     total energy              =   -2631.13344110 Ry
     estimated scf accuracy    <       0.42955385 Ry

     iteration #  5     ecut=    60.00 Ry     beta= 0.70
     Davidson diagonalization with overlap

---- Real-time Memory Report at c_bands before calling an iterative solver
           523 MiB given to the printing process from OS
             0 MiB allocation reported by mallinfo(arena+hblkhd)
          7210 MiB available memory on the node where the printing process lives
------------------
     c_bands:  1 eigenvalues not converged
     c_bands:  2 eigenvalues not converged
     c_bands:  3 eigenvalues not converged
     c_bands:  1 eigenvalues not converged
     ethr =  1.64E-04,  avg # of iterations = 15.4

     total cpu time spent up to now is     2250.7 secs

     total energy              =   -2631.32752287 Ry
     estimated scf accuracy    <       0.07300192 Ry

     iteration #  6     ecut=    60.00 Ry     beta= 0.70
     Davidson diagonalization with overlap

---- Real-time Memory Report at c_bands before calling an iterative solver
           523 MiB given to the printing process from OS
             0 MiB allocation reported by mallinfo(arena+hblkhd)
          7211 MiB available memory on the node where the printing process lives
------------------
     c_bands:  2 eigenvalues not converged
     c_bands:  2 eigenvalues not converged
     c_bands:  1 eigenvalues not converged
     c_bands:  3 eigenvalues not converged
     c_bands:  1 eigenvalues not converged
     c_bands:  1 eigenvalues not converged
     c_bands:  1 eigenvalues not converged
     c_bands:  3 eigenvalues not converged
     c_bands:  2 eigenvalues not converged
     c_bands:  1 eigenvalues not converged
     ethr =  2.79E-05,  avg # of iterations = 18.5

     total cpu time spent up to now is     2825.5 secs

     total energy              =   -2631.33568254 Ry
     estimated scf accuracy    <       0.05543391 Ry

     iteration #  7     ecut=    60.00 Ry     beta= 0.70
     Davidson diagonalization with overlap

---- Real-time Memory Report at c_bands before calling an iterative solver
           523 MiB given to the printing process from OS
             0 MiB allocation reported by mallinfo(arena+hblkhd)
          7244 MiB available memory on the node where the printing process lives
------------------
     c_bands:  1 eigenvalues not converged
     ethr =  2.12E-05,  avg # of iterations =  4.7

     total cpu time spent up to now is     3126.4 secs

     total energy              =   -2631.33218286 Ry
     estimated scf accuracy    <       0.02020939 Ry

     iteration #  8     ecut=    60.00 Ry     beta= 0.70
     Davidson diagonalization with overlap

---- Real-time Memory Report at c_bands before calling an iterative solver
           524 MiB given to the printing process from OS
             0 MiB allocation reported by mallinfo(arena+hblkhd)
          7198 MiB available memory on the node where the printing process lives
------------------
     c_bands:  1 eigenvalues not converged
     c_bands:  1 eigenvalues not converged
     c_bands:  1 eigenvalues not converged
     c_bands:  2 eigenvalues not converged
     c_bands:  1 eigenvalues not converged
     c_bands:  1 eigenvalues not converged
     ethr =  7.71E-06,  avg # of iterations = 12.4

     total cpu time spent up to now is     3528.2 secs

     total energy              =   -2631.33724129 Ry
     estimated scf accuracy    <       0.00200858 Ry

     iteration #  9     ecut=    60.00 Ry     beta= 0.70
     Davidson diagonalization with overlap

---- Real-time Memory Report at c_bands before calling an iterative solver
           525 MiB given to the printing process from OS
             0 MiB allocation reported by mallinfo(arena+hblkhd)
          7190 MiB available memory on the node where the printing process lives
------------------
     c_bands:  1 eigenvalues not converged
     c_bands:  1 eigenvalues not converged
     ethr =  7.67E-07,  avg # of iterations = 14.2

     total cpu time spent up to now is     4213.5 secs

     total energy              =   -2631.33896543 Ry
     estimated scf accuracy    <       0.00020765 Ry

     iteration # 10     ecut=    60.00 Ry     beta= 0.70
     Davidson diagonalization with overlap

---- Real-time Memory Report at c_bands before calling an iterative solver
           525 MiB given to the printing process from OS
             0 MiB allocation reported by mallinfo(arena+hblkhd)
          7226 MiB available memory on the node where the printing process lives
------------------
     ethr =  7.93E-08,  avg # of iterations =  7.3

     total cpu time spent up to now is     4714.8 secs

     total energy              =   -2631.33907509 Ry
     estimated scf accuracy    <       0.00007432 Ry

     iteration # 11     ecut=    60.00 Ry     beta= 0.70
     Davidson diagonalization with overlap

---- Real-time Memory Report at c_bands before calling an iterative solver
           529 MiB given to the printing process from OS
             0 MiB allocation reported by mallinfo(arena+hblkhd)
          7207 MiB available memory on the node where the printing process lives
------------------
     ethr =  2.84E-08,  avg # of iterations =  3.4

     total cpu time spent up to now is     5041.5 secs

     total energy              =   -2631.33908079 Ry
     estimated scf accuracy    <       0.00001487 Ry

     iteration # 12     ecut=    60.00 Ry     beta= 0.70
     Davidson diagonalization with overlap

---- Real-time Memory Report at c_bands before calling an iterative solver
           529 MiB given to the printing process from OS
             0 MiB allocation reported by mallinfo(arena+hblkhd)
          7170 MiB available memory on the node where the printing process lives
------------------
     ethr =  5.67E-09,  avg # of iterations =  7.2

     total cpu time spent up to now is     5649.1 secs

     total energy              =   -2631.33909429 Ry
     estimated scf accuracy    <       0.00000867 Ry

     iteration # 13     ecut=    60.00 Ry     beta= 0.70
     Davidson diagonalization with overlap

---- Real-time Memory Report at c_bands before calling an iterative solver
           529 MiB given to the printing process from OS
             0 MiB allocation reported by mallinfo(arena+hblkhd)
          7162 MiB available memory on the node where the printing process lives
------------------
     ethr =  3.31E-09,  avg # of iterations =  1.9

     total cpu time spent up to now is     5936.6 secs

     total energy              =   -2631.33909305 Ry
     estimated scf accuracy    <       0.00000527 Ry

     iteration # 14     ecut=    60.00 Ry     beta= 0.70
     Davidson diagonalization with overlap

---- Real-time Memory Report at c_bands before calling an iterative solver
           529 MiB given to the printing process from OS
             0 MiB allocation reported by mallinfo(arena+hblkhd)
          7162 MiB available memory on the node where the printing process lives
------------------
     ethr =  2.01E-09,  avg # of iterations =  2.7

     total cpu time spent up to now is     6271.7 secs

     total energy              =   -2631.33909338 Ry
     estimated scf accuracy    <       0.00000140 Ry

     iteration # 15     ecut=    60.00 Ry     beta= 0.70
     Davidson diagonalization with overlap

---- Real-time Memory Report at c_bands before calling an iterative solver
           529 MiB given to the printing process from OS
             0 MiB allocation reported by mallinfo(arena+hblkhd)
          7163 MiB available memory on the node where the printing process lives
------------------
     ethr =  5.33E-10,  avg # of iterations =  6.6

     total cpu time spent up to now is     6804.1 secs

     End of self-consistent calculation

          k = 0.0000 0.0000 0.0000 ( 25799 PWs)   bands (ev):

   -77.9382 -67.4588 -67.4222 -67.3463 -66.8877 -66.8614 -44.0970 -44.0755
   -43.9848 -34.2316 -34.2041 -34.2033 -34.1793 -34.1789 -34.1628 -34.1077
   -34.1071 -34.0815 -33.6634 -33.6379 -33.6364 -33.6233 -33.6230 -33.5793
   -22.9958 -22.9477 -15.0636 -15.0109 -14.1219 -14.0767 -13.6000 -13.5773
   -13.3911 -13.2671 -13.2154 -13.0838 -12.8470 -12.8315 -12.8133 -12.7891
   -12.7093 -12.5888 -12.4452 -12.3744 -12.2636 -12.2369 -12.1735 -12.0326
   -11.0961 -10.8540  -6.5643  -6.5128  -6.4918  -6.4813  -6.4324  -6.4248
    -4.2483  -4.1906  -2.3913  -2.2930  -1.7678  -1.3355  -1.1216  -1.1199
    -1.0694  -0.9739  -0.6246  -0.5130  -0.4048  -0.3113  -0.2977  -0.1116
     0.0712   0.1465   0.2797   0.5274   0.6131   0.6395   0.7405   0.9322
     0.9535   1.1845   1.3204   1.3778   1.4351   1.5799   1.5816   1.6888
     1.8857   1.8970   2.0208   2.1173   2.1378   2.2336   2.2950   2.3606
     2.4689   2.4699   2.6060   2.6937   2.7621   2.8073   2.8416   2.9039
     2.9534   3.0696   3.0899   3.1650   3.2395   3.2490   3.3492   3.3773
     3.4787   3.4969   3.5337   3.6131   3.6536   3.7331   3.8485   3.8707
     3.9404   4.0020   4.0027   4.0324   4.0528   4.2916   4.5010   4.6123
     8.2342   8.3026   8.4312   9.2256   9.7037   9.8309  10.7255  11.4164
    11.6830  12.0233  12.2182  12.3545  12.6515  12.7948  13.1034  13.1479
    13.2045  13.3852  13.3947  13.6217  13.7127  13.7417  13.8918  13.9016
    13.9474  14.1683  14.2842  14.3412  14.4177

     occupation numbers 
     1.0000   1.0000   1.0000   1.0000   1.0000   1.0000   1.0000   1.0000
     1.0000   1.0000   1.0000   1.0000   1.0000   1.0000   1.0000   1.0000
     1.0000   1.0000   1.0000   1.0000   1.0000   1.0000   1.0000   1.0000
     1.0000   1.0000   1.0000   1.0000   1.0000   1.0000   1.0000   1.0000
     1.0000   1.0000   1.0000   1.0000   1.0000   1.0000   1.0000   1.0000
     1.0000   1.0000   1.0000   1.0000   1.0000   1.0000   1.0000   1.0000
     1.0000   1.0000   1.0000   1.0000   1.0000   1.0000   1.0000   1.0000
     1.0000   1.0000   1.0000   1.0000   1.0000   1.0000   1.0000   1.0000
     1.0000   1.0000   1.0000   1.0000   1.0000   1.0000   1.0000   1.0000
     1.0000   1.0000   1.0000   1.0000   1.0000   1.0000   1.0000   1.0000
     1.0000   1.0000   1.0000   1.0000   1.0000   1.0000   1.0000   1.0000
     1.0000   1.0000   1.0000   1.0000   1.0000   1.0000   1.0000   1.0000
     1.0000   1.0000   1.0000   1.0000   1.0000   1.0000   1.0000   1.0000
     1.0000   1.0000   1.0000   1.0000   1.0000   1.0000   1.0000   1.0000
     1.0000   1.0000   1.0000   1.0000   1.0000   1.0000   1.0000   1.0000
     1.0000   1.0000   1.0000   1.0000   1.0000   1.0000   1.0000   1.0000
     1.0000   1.0000   1.0000   0.0000   0.0000   0.0000   0.0000   0.0000
     0.0000   0.0000   0.0000   0.0000   0.0000   0.0000   0.0000   0.0000
     0.0000   0.0000   0.0000   0.0000   0.0000   0.0000   0.0000   0.0000
     0.0000   0.0000   0.0000   0.0000   0.0000

          k = 0.0000 0.0000 0.1756 ( 25812 PWs)   bands (ev):

   -77.9382 -67.4588 -67.4222 -67.3463 -66.8877 -66.8614 -44.0970 -44.0755
   -43.9848 -34.2316 -34.2041 -34.2034 -34.1793 -34.1789 -34.1629 -34.1077
   -34.1071 -34.0815 -33.6634 -33.6379 -33.6364 -33.6233 -33.6230 -33.5793
   -22.9958 -22.9477 -15.0509 -15.0243 -14.1111 -14.0880 -13.6005 -13.5768
   -13.3800 -13.2873 -13.2079 -13.0792 -12.8486 -12.8329 -12.8094 -12.7945
   -12.7030 -12.5930 -12.4380 -12.3813 -12.2663 -12.2335 -12.1676 -12.0389
   -11.0958 -10.8547  -6.5643  -6.5129  -6.4918  -6.4812  -6.4323  -6.4248
    -4.2445  -4.1948  -2.3685  -2.3196  -1.7362  -1.3241  -1.1436  -1.0886
    -1.0638  -0.9980  -0.5968  -0.5278  -0.4398  -0.3062  -0.2870  -0.2064
     0.0951   0.1788   0.2304   0.4787   0.6061   0.6101   0.7660   0.9527
     0.9955   1.2501   1.2639   1.3813   1.4888   1.5101   1.6253   1.7473
     1.9053   1.9178   2.0959   2.1269   2.1765   2.2272   2.3134   2.3563
     2.3984   2.4746   2.6193   2.6837   2.7184   2.7381   2.8444   2.8682
     2.8901   3.1085   3.1223   3.1666   3.1795   3.2399   3.3684   3.4055
     3.4379   3.4939   3.5512   3.6485   3.6736   3.7906   3.8221   3.8608
     3.9087   3.9528   3.9754   4.0345   4.0611   4.3305   4.4974   4.6168
     8.2365   8.3022   8.4301   9.5289   9.6882   9.8441  10.2668  11.4536
    11.7452  11.9210  12.2398  12.2841  12.7606  12.9885  13.0804  13.1866
    13.3157  13.3539  13.4314  13.5654  13.6064  13.7730  13.8617  13.8909
    14.0206  14.1114  14.2471  14.3482  14.3916

     occupation numbers 
     1.0000   1.0000   1.0000   1.0000   1.0000   1.0000   1.0000   1.0000
     1.0000   1.0000   1.0000   1.0000   1.0000   1.0000   1.0000   1.0000
     1.0000   1.0000   1.0000   1.0000   1.0000   1.0000   1.0000   1.0000
     1.0000   1.0000   1.0000   1.0000   1.0000   1.0000   1.0000   1.0000
     1.0000   1.0000   1.0000   1.0000   1.0000   1.0000   1.0000   1.0000
     1.0000   1.0000   1.0000   1.0000   1.0000   1.0000   1.0000   1.0000
     1.0000   1.0000   1.0000   1.0000   1.0000   1.0000   1.0000   1.0000
     1.0000   1.0000   1.0000   1.0000   1.0000   1.0000   1.0000   1.0000
     1.0000   1.0000   1.0000   1.0000   1.0000   1.0000   1.0000   1.0000
     1.0000   1.0000   1.0000   1.0000   1.0000   1.0000   1.0000   1.0000
     1.0000   1.0000   1.0000   1.0000   1.0000   1.0000   1.0000   1.0000
     1.0000   1.0000   1.0000   1.0000   1.0000   1.0000   1.0000   1.0000
     1.0000   1.0000   1.0000   1.0000   1.0000   1.0000   1.0000   1.0000
     1.0000   1.0000   1.0000   1.0000   1.0000   1.0000   1.0000   1.0000
     1.0000   1.0000   1.0000   1.0000   1.0000   1.0000   1.0000   1.0000
     1.0000   1.0000   1.0000   1.0000   1.0000   1.0000   1.0000   1.0000
     1.0000   1.0000   1.0000   0.0000   0.0000   0.0000   0.0000   0.0000
     0.0000   0.0000   0.0000   0.0000   0.0000   0.0000   0.0000   0.0000
     0.0000   0.0000   0.0000   0.0000   0.0000   0.0000   0.0000   0.0000
     0.0000   0.0000   0.0000   0.0000   0.0000

          k = 0.0000 0.1919 0.0000 ( 25771 PWs)   bands (ev):

   -77.9382 -67.4588 -67.4222 -67.3463 -66.8877 -66.8614 -44.0970 -44.0754
   -43.9848 -34.2316 -34.2041 -34.2034 -34.1793 -34.1789 -34.1629 -34.1076
   -34.1071 -34.0815 -33.6634 -33.6379 -33.6363 -33.6233 -33.6229 -33.5793
   -22.9957 -22.9477 -15.0584 -15.0058 -14.1568 -14.1077 -13.6000 -13.5774
   -13.3020 -13.2069 -13.1626 -13.0926 -12.9110 -12.8792 -12.8368 -12.8115
   -12.7207 -12.5850 -12.4355 -12.3702 -12.2633 -12.2366 -12.1676 -12.0291
   -11.0946 -10.8536  -6.5626  -6.5148  -6.4916  -6.4802  -6.4331  -6.4254
    -4.2090  -4.1499  -2.5349  -2.4314  -1.7159  -1.3836  -1.0664  -1.0542
    -0.9519  -0.9001  -0.6986  -0.5893  -0.4027  -0.2600  -0.2150  -0.1003
    -0.0264   0.2076   0.2697   0.4950   0.5653   0.6185   0.7477   0.9328
     0.9641   1.1719   1.2298   1.3570   1.4427   1.5979   1.6075   1.7399
     1.9365   1.9510   2.0091   2.1249   2.1915   2.2487   2.3281   2.4031
     2.4404   2.5065   2.5897   2.6940   2.7374   2.7933   2.8096   2.9374
     3.0063   3.0743   3.1115   3.1611   3.2655   3.2799   3.3403   3.3842
     3.4448   3.4498   3.5012   3.5991   3.6550   3.6772   3.8613   3.8848
     3.9150   3.9790   3.9882   4.0606   4.0668   4.2872   4.2972   4.6024
     8.2344   8.3136   8.4308   9.6003   9.6593   9.8577  10.6002  10.9682
    11.5844  11.9582  12.3755  12.6664  12.6912  12.9070  13.0684  13.1528
    13.2520  13.3863  13.4238  13.5588  13.5827  13.7087  13.7692  13.8783
    13.9060  13.9626  14.3687  14.4440  14.5702

     occupation numbers 
     1.0000   1.0000   1.0000   1.0000   1.0000   1.0000   1.0000   1.0000
     1.0000   1.0000   1.0000   1.0000   1.0000   1.0000   1.0000   1.0000
     1.0000   1.0000   1.0000   1.0000   1.0000   1.0000   1.0000   1.0000
     1.0000   1.0000   1.0000   1.0000   1.0000   1.0000   1.0000   1.0000
     1.0000   1.0000   1.0000   1.0000   1.0000   1.0000   1.0000   1.0000
     1.0000   1.0000   1.0000   1.0000   1.0000   1.0000   1.0000   1.0000
     1.0000   1.0000   1.0000   1.0000   1.0000   1.0000   1.0000   1.0000
     1.0000   1.0000   1.0000   1.0000   1.0000   1.0000   1.0000   1.0000
     1.0000   1.0000   1.0000   1.0000   1.0000   1.0000   1.0000   1.0000
     1.0000   1.0000   1.0000   1.0000   1.0000   1.0000   1.0000   1.0000
     1.0000   1.0000   1.0000   1.0000   1.0000   1.0000   1.0000   1.0000
     1.0000   1.0000   1.0000   1.0000   1.0000   1.0000   1.0000   1.0000
     1.0000   1.0000   1.0000   1.0000   1.0000   1.0000   1.0000   1.0000
     1.0000   1.0000   1.0000   1.0000   1.0000   1.0000   1.0000   1.0000
     1.0000   1.0000   1.0000   1.0000   1.0000   1.0000   1.0000   1.0000
     1.0000   1.0000   1.0000   1.0000   1.0000   1.0000   1.0000   1.0000
     1.0000   1.0000   1.0000   0.0000   0.0000   0.0000   0.0000   0.0000
     0.0000   0.0000   0.0000   0.0000   0.0000   0.0000   0.0000   0.0000
     0.0000   0.0000   0.0000   0.0000   0.0000   0.0000   0.0000   0.0000
     0.0000   0.0000   0.0000   0.0000   0.0000

          k = 0.0000 0.1919 0.1756 ( 25786 PWs)   bands (ev):

   -77.9382 -67.4588 -67.4222 -67.3463 -66.8877 -66.8614 -44.0970 -44.0754
   -43.9848 -34.2316 -34.2041 -34.2034 -34.1793 -34.1789 -34.1629 -34.1076
   -34.1071 -34.0815 -33.6634 -33.6379 -33.6363 -33.6233 -33.6229 -33.5794
   -22.9957 -22.9477 -15.0457 -15.0193 -14.1450 -14.1204 -13.6006 -13.5768
   -13.2947 -13.2017 -13.1813 -13.0815 -12.9251 -12.8631 -12.8382 -12.8149
   -12.7177 -12.5892 -12.4287 -12.3769 -12.2660 -12.2333 -12.1612 -12.0354
   -11.0943 -10.8542  -6.5626  -6.5149  -6.4916  -6.4801  -6.4330  -6.4254
    -4.2023  -4.1571  -2.5114  -2.4573  -1.6888  -1.3733  -1.0618  -1.0540
    -0.9467  -0.9110  -0.6741  -0.6157  -0.4212  -0.2689  -0.2183  -0.1741
     0.0205   0.1973   0.2224   0.4793   0.5661   0.5753   0.7852   0.9310
     1.0218   1.1374   1.2097   1.4068   1.5061   1.5867   1.7049   1.7638
     1.9040   1.9800   2.0455   2.0989   2.1633   2.2982   2.3244   2.3919
     2.4628   2.4915   2.5696   2.6854   2.7203   2.7343   2.8511   2.8767
     2.9703   3.0571   3.1334   3.1684   3.2245   3.2830   3.3268   3.3556
     3.4341   3.4664   3.5484   3.5873   3.6855   3.7362   3.8254   3.8590
     3.9142   3.9609   3.9748   4.0259   4.0786   4.3069   4.3312   4.6087
     8.2369   8.3134   8.4286   9.6111   9.8019   9.9617  10.5600  10.7916
    11.2950  11.9308  12.3461  12.7220  12.7917  12.9832  13.1641  13.2339
    13.3264  13.3788  13.4861  13.5505  13.6408  13.7095  13.7294  13.8403
    13.8884  14.0870  14.3240  14.3777  14.4779

     occupation numbers 
     1.0000   1.0000   1.0000   1.0000   1.0000   1.0000   1.0000   1.0000
     1.0000   1.0000   1.0000   1.0000   1.0000   1.0000   1.0000   1.0000
     1.0000   1.0000   1.0000   1.0000   1.0000   1.0000   1.0000   1.0000
     1.0000   1.0000   1.0000   1.0000   1.0000   1.0000   1.0000   1.0000
     1.0000   1.0000   1.0000   1.0000   1.0000   1.0000   1.0000   1.0000
     1.0000   1.0000   1.0000   1.0000   1.0000   1.0000   1.0000   1.0000
     1.0000   1.0000   1.0000   1.0000   1.0000   1.0000   1.0000   1.0000
     1.0000   1.0000   1.0000   1.0000   1.0000   1.0000   1.0000   1.0000
     1.0000   1.0000   1.0000   1.0000   1.0000   1.0000   1.0000   1.0000
     1.0000   1.0000   1.0000   1.0000   1.0000   1.0000   1.0000   1.0000
     1.0000   1.0000   1.0000   1.0000   1.0000   1.0000   1.0000   1.0000
     1.0000   1.0000   1.0000   1.0000   1.0000   1.0000   1.0000   1.0000
     1.0000   1.0000   1.0000   1.0000   1.0000   1.0000   1.0000   1.0000
     1.0000   1.0000   1.0000   1.0000   1.0000   1.0000   1.0000   1.0000
     1.0000   1.0000   1.0000   1.0000   1.0000   1.0000   1.0000   1.0000
     1.0000   1.0000   1.0000   1.0000   1.0000   1.0000   1.0000   1.0000
     1.0000   1.0000   1.0000   0.0000   0.0000   0.0000   0.0000   0.0000
     0.0000   0.0000   0.0000   0.0000   0.0000   0.0000   0.0000   0.0000
     0.0000   0.0000   0.0000   0.0000   0.0000   0.0000   0.0000   0.0000
     0.0000   0.0000   0.0000   0.0000   0.0000

          k = 0.1667 0.0000 0.0295 ( 25803 PWs)   bands (ev):

   -77.9382 -67.4588 -67.4222 -67.3464 -66.8877 -66.8614 -44.0970 -44.0754
   -43.9848 -34.2313 -34.2049 -34.2029 -34.1795 -34.1784 -34.1630 -34.1077
   -34.1070 -34.0815 -33.6634 -33.6389 -33.6347 -33.6246 -33.6222 -33.5795
   -22.9956 -22.9475 -15.0048 -14.9532 -14.1397 -14.0973 -13.7153 -13.6846
   -13.3221 -13.2006 -13.1655 -13.0647 -12.8662 -12.8502 -12.8004 -12.7937
   -12.6988 -12.5971 -12.4619 -12.3925 -12.3259 -12.2766 -12.1529 -12.0211
   -11.0924 -10.8585  -6.5646  -6.5166  -6.4906  -6.4799  -6.4323  -6.4212
    -4.0910  -4.0305  -2.3570  -2.2584  -1.7652  -1.4085  -1.3633  -1.2941
    -0.8576  -0.7769  -0.6269  -0.5682  -0.4140  -0.2958  -0.2655  -0.1094
     0.0617   0.1703   0.2621   0.5078   0.5530   0.6787   0.6973   0.8216
     1.1031   1.2202   1.3081   1.3829   1.3884   1.4907   1.5987   1.6589
     1.7555   1.9541   1.9802   2.0741   2.1256   2.2962   2.3525   2.4110
     2.4582   2.5195   2.6207   2.6679   2.7597   2.7730   2.8433   2.9300
     2.9763   3.0101   3.1159   3.1659   3.1873   3.2656   3.3050   3.3552
     3.4624   3.5039   3.5409   3.6506   3.6792   3.7257   3.7769   3.8459
     3.8991   3.9427   4.0005   4.0404   4.0642   4.2295   4.4470   4.5288
     8.2354   8.3036   8.4085   9.5510   9.7112   9.8114  10.9188  11.4731
    11.8011  12.0742  12.2302  12.5018  12.6199  12.9016  13.0012  13.1005
    13.2456  13.3607  13.4039  13.6091  13.6726  13.7158  13.8201  13.8831
    13.9637  14.2428  14.2538  14.3433  14.4583

     occupation numbers 
     1.0000   1.0000   1.0000   1.0000   1.0000   1.0000   1.0000   1.0000
     1.0000   1.0000   1.0000   1.0000   1.0000   1.0000   1.0000   1.0000
     1.0000   1.0000   1.0000   1.0000   1.0000   1.0000   1.0000   1.0000
     1.0000   1.0000   1.0000   1.0000   1.0000   1.0000   1.0000   1.0000
     1.0000   1.0000   1.0000   1.0000   1.0000   1.0000   1.0000   1.0000
     1.0000   1.0000   1.0000   1.0000   1.0000   1.0000   1.0000   1.0000
     1.0000   1.0000   1.0000   1.0000   1.0000   1.0000   1.0000   1.0000
     1.0000   1.0000   1.0000   1.0000   1.0000   1.0000   1.0000   1.0000
     1.0000   1.0000   1.0000   1.0000   1.0000   1.0000   1.0000   1.0000
     1.0000   1.0000   1.0000   1.0000   1.0000   1.0000   1.0000   1.0000
     1.0000   1.0000   1.0000   1.0000   1.0000   1.0000   1.0000   1.0000
     1.0000   1.0000   1.0000   1.0000   1.0000   1.0000   1.0000   1.0000
     1.0000   1.0000   1.0000   1.0000   1.0000   1.0000   1.0000   1.0000
     1.0000   1.0000   1.0000   1.0000   1.0000   1.0000   1.0000   1.0000
     1.0000   1.0000   1.0000   1.0000   1.0000   1.0000   1.0000   1.0000
     1.0000   1.0000   1.0000   1.0000   1.0000   1.0000   1.0000   1.0000
     1.0000   1.0000   1.0000   0.0000   0.0000   0.0000   0.0000   0.0000
     0.0000   0.0000   0.0000   0.0000   0.0000   0.0000   0.0000   0.0000
     0.0000   0.0000   0.0000   0.0000   0.0000   0.0000   0.0000   0.0000
     0.0000   0.0000   0.0000   0.0000   0.0000

          k = 0.1667 0.0000 0.2050 ( 25826 PWs)   bands (ev):

   -77.9382 -67.4588 -67.4222 -67.3464 -66.8877 -66.8614 -44.0970 -44.0755
   -43.9848 -34.2314 -34.2050 -34.2029 -34.1795 -34.1784 -34.1630 -34.1077
   -34.1070 -34.0815 -33.6634 -33.6389 -33.6347 -33.6246 -33.6222 -33.5795
   -22.9956 -22.9475 -14.9889 -14.9700 -14.1304 -14.1072 -13.7114 -13.6886
   -13.3117 -13.2195 -13.1600 -13.0583 -12.8641 -12.8503 -12.8123 -12.7878
   -12.6928 -12.6015 -12.4556 -12.4005 -12.3180 -12.2834 -12.1438 -12.0290
   -11.0919 -10.8593  -6.5646  -6.5167  -6.4905  -6.4798  -6.4322  -6.4212
    -4.0924  -4.0292  -2.3376  -2.2822  -1.7309  -1.4450  -1.3350  -1.2800
    -0.8568  -0.7772  -0.6244  -0.5671  -0.4225  -0.2919  -0.2618  -0.2184
     0.1010   0.2000   0.2204   0.4447   0.5404   0.6664   0.6784   0.8776
     1.1666   1.2042   1.2932   1.3779   1.4285   1.5025   1.6122   1.6837
     1.8105   1.9372   2.0109   2.0703   2.2275   2.3158   2.3456   2.3835
     2.4545   2.5178   2.6039   2.6509   2.6538   2.7670   2.8319   2.8714
     2.9505   3.0357   3.1266   3.1703   3.2085   3.2533   3.2912   3.3605
     3.4271   3.5130   3.5495   3.6686   3.7066   3.7406   3.8193   3.8349
     3.8843   3.9138   3.9286   4.0411   4.0609   4.2765   4.4496   4.5422
     8.2375   8.3025   8.4078   9.6979   9.7630   9.9551  10.4120  11.5010
    11.8458  11.9906  12.2686  12.4143  12.5793  12.9154  13.1399  13.2552
    13.3389  13.4327  13.4489  13.5301  13.6284  13.7327  13.8496  13.8951
    13.9565  14.0328  14.1706  14.4262  14.4599

     occupation numbers 
     1.0000   1.0000   1.0000   1.0000   1.0000   1.0000   1.0000   1.0000
     1.0000   1.0000   1.0000   1.0000   1.0000   1.0000   1.0000   1.0000
     1.0000   1.0000   1.0000   1.0000   1.0000   1.0000   1.0000   1.0000
     1.0000   1.0000   1.0000   1.0000   1.0000   1.0000   1.0000   1.0000
     1.0000   1.0000   1.0000   1.0000   1.0000   1.0000   1.0000   1.0000
     1.0000   1.0000   1.0000   1.0000   1.0000   1.0000   1.0000   1.0000
     1.0000   1.0000   1.0000   1.0000   1.0000   1.0000   1.0000   1.0000
     1.0000   1.0000   1.0000   1.0000   1.0000   1.0000   1.0000   1.0000
     1.0000   1.0000   1.0000   1.0000   1.0000   1.0000   1.0000   1.0000
     1.0000   1.0000   1.0000   1.0000   1.0000   1.0000   1.0000   1.0000
     1.0000   1.0000   1.0000   1.0000   1.0000   1.0000   1.0000   1.0000
     1.0000   1.0000   1.0000   1.0000   1.0000   1.0000   1.0000   1.0000
     1.0000   1.0000   1.0000   1.0000   1.0000   1.0000   1.0000   1.0000
     1.0000   1.0000   1.0000   1.0000   1.0000   1.0000   1.0000   1.0000
     1.0000   1.0000   1.0000   1.0000   1.0000   1.0000   1.0000   1.0000
     1.0000   1.0000   1.0000   1.0000   1.0000   1.0000   1.0000   1.0000
     1.0000   1.0000   1.0000   0.0000   0.0000   0.0000   0.0000   0.0000
     0.0000   0.0000   0.0000   0.0000   0.0000   0.0000   0.0000   0.0000
     0.0000   0.0000   0.0000   0.0000   0.0000   0.0000   0.0000   0.0000
     0.0000   0.0000   0.0000   0.0000   0.0000

          k = 0.1667 0.0000-0.1461 ( 25786 PWs)   bands (ev):

   -77.9382 -67.4588 -67.4222 -67.3464 -66.8877 -66.8614 -44.0970 -44.0754
   -43.9848 -34.2313 -34.2049 -34.2029 -34.1795 -34.1784 -34.1630 -34.1077
   -34.1070 -34.0815 -33.6634 -33.6389 -33.6347 -33.6246 -33.6222 -33.5795
   -22.9956 -22.9475 -14.9957 -14.9629 -14.1314 -14.1061 -13.7102 -13.6898
   -13.3153 -13.2080 -13.1685 -13.0591 -12.8657 -12.8482 -12.8129 -12.7848
   -12.6962 -12.6010 -12.4519 -12.4038 -12.3076 -12.2939 -12.1442 -12.0279
   -11.0918 -10.8592  -6.5647  -6.5167  -6.4905  -6.4798  -6.4322  -6.4212
    -4.0761  -4.0459  -2.3332  -2.2852  -1.7438  -1.4423  -1.3318  -1.2866
    -0.8411  -0.7978  -0.5863  -0.5722  -0.4402  -0.2914  -0.2769  -0.1894
     0.0656   0.2044   0.2305   0.4566   0.5672   0.6614   0.7316   0.8634
     1.1168   1.1903   1.2807   1.3730   1.4441   1.5385   1.6196   1.6337
     1.8130   1.9243   2.0340   2.0462   2.1548   2.2777   2.3662   2.3949
     2.4531   2.5310   2.6090   2.6452   2.7232   2.7799   2.8260   2.8961
     2.9548   3.0203   3.1412   3.1859   3.2190   3.2612   3.2869   3.3915
     3.4379   3.5090   3.5707   3.6349   3.6549   3.7523   3.7689   3.8149
     3.8928   3.9319   3.9530   4.0257   4.0605   4.2785   4.4473   4.5450
     8.2356   8.3024   8.4092   9.6765   9.7005   9.8810  10.6131  11.5784
    11.8887  11.9432  12.3101  12.3872  12.6133  12.9929  13.0431  13.1684
    13.2497  13.3652  13.4507  13.5339  13.6001  13.7532  13.8030  13.8978
    13.9868  14.1184  14.2426  14.3965  14.4456

     occupation numbers 
     1.0000   1.0000   1.0000   1.0000   1.0000   1.0000   1.0000   1.0000
     1.0000   1.0000   1.0000   1.0000   1.0000   1.0000   1.0000   1.0000
     1.0000   1.0000   1.0000   1.0000   1.0000   1.0000   1.0000   1.0000
     1.0000   1.0000   1.0000   1.0000   1.0000   1.0000   1.0000   1.0000
     1.0000   1.0000   1.0000   1.0000   1.0000   1.0000   1.0000   1.0000
     1.0000   1.0000   1.0000   1.0000   1.0000   1.0000   1.0000   1.0000
     1.0000   1.0000   1.0000   1.0000   1.0000   1.0000   1.0000   1.0000
     1.0000   1.0000   1.0000   1.0000   1.0000   1.0000   1.0000   1.0000
     1.0000   1.0000   1.0000   1.0000   1.0000   1.0000   1.0000   1.0000
     1.0000   1.0000   1.0000   1.0000   1.0000   1.0000   1.0000   1.0000
     1.0000   1.0000   1.0000   1.0000   1.0000   1.0000   1.0000   1.0000
     1.0000   1.0000   1.0000   1.0000   1.0000   1.0000   1.0000   1.0000
     1.0000   1.0000   1.0000   1.0000   1.0000   1.0000   1.0000   1.0000
     1.0000   1.0000   1.0000   1.0000   1.0000   1.0000   1.0000   1.0000
     1.0000   1.0000   1.0000   1.0000   1.0000   1.0000   1.0000   1.0000
     1.0000   1.0000   1.0000   1.0000   1.0000   1.0000   1.0000   1.0000
     1.0000   1.0000   1.0000   0.0000   0.0000   0.0000   0.0000   0.0000
     0.0000   0.0000   0.0000   0.0000   0.0000   0.0000   0.0000   0.0000
     0.0000   0.0000   0.0000   0.0000   0.0000   0.0000   0.0000   0.0000
     0.0000   0.0000   0.0000   0.0000   0.0000

          k = 0.1667 0.1919 0.0295 ( 25796 PWs)   bands (ev):

   -77.9382 -67.4588 -67.4222 -67.3464 -66.8877 -66.8614 -44.0970 -44.0754
   -43.9848 -34.2313 -34.2049 -34.2029 -34.1795 -34.1784 -34.1630 -34.1077
   -34.1070 -34.0815 -33.6634 -33.6389 -33.6347 -33.6246 -33.6222 -33.5795
   -22.9956 -22.9475 -14.9999 -14.9484 -14.1704 -14.1241 -13.7021 -13.6751
   -13.2623 -13.1840 -13.1113 -13.0535 -12.8954 -12.8826 -12.8488 -12.8126
   -12.7179 -12.5929 -12.4560 -12.3803 -12.3211 -12.2801 -12.1497 -12.0191
   -11.0912 -10.8582  -6.5634  -6.5183  -6.4905  -6.4790  -6.4326  -6.4216
    -4.0548  -3.9931  -2.5139  -2.4118  -1.6909  -1.3485  -1.2710  -1.2366
    -0.8522  -0.7775  -0.7148  -0.5333  -0.4205  -0.2368  -0.2067  -0.0805
     0.0256   0.1727   0.2396   0.4748   0.5329   0.6453   0.7080   0.7942
     1.1147   1.1397   1.3140   1.3594   1.3993   1.4912   1.5920   1.7001
     1.8060   1.9331   1.9489   2.1149   2.1866   2.2956   2.3510   2.4013
     2.4915   2.5345   2.5892   2.7412   2.7712   2.8006   2.8673   2.9148
     2.9970   3.0593   3.1433   3.1672   3.2150   3.2582   3.3202   3.3746
     3.4143   3.4519   3.4972   3.6327   3.6559   3.6882   3.7847   3.8417
     3.8668   3.9019   3.9867   4.0509   4.0831   4.2192   4.3386   4.5292
     8.2354   8.3144   8.4072   9.6660   9.8107   9.9218  10.7640  11.1379
    11.6811  11.9956  12.3513  12.6533  12.7644  12.8599  13.1069  13.1747
    13.2491  13.3772  13.4154  13.5297  13.5794  13.6616  13.7684  13.8544
    14.0232  14.0916  14.3168  14.4917  14.6379

     occupation numbers 
     1.0000   1.0000   1.0000   1.0000   1.0000   1.0000   1.0000   1.0000
     1.0000   1.0000   1.0000   1.0000   1.0000   1.0000   1.0000   1.0000
     1.0000   1.0000   1.0000   1.0000   1.0000   1.0000   1.0000   1.0000
     1.0000   1.0000   1.0000   1.0000   1.0000   1.0000   1.0000   1.0000
     1.0000   1.0000   1.0000   1.0000   1.0000   1.0000   1.0000   1.0000
     1.0000   1.0000   1.0000   1.0000   1.0000   1.0000   1.0000   1.0000
     1.0000   1.0000   1.0000   1.0000   1.0000   1.0000   1.0000   1.0000
     1.0000   1.0000   1.0000   1.0000   1.0000   1.0000   1.0000   1.0000
     1.0000   1.0000   1.0000   1.0000   1.0000   1.0000   1.0000   1.0000
     1.0000   1.0000   1.0000   1.0000   1.0000   1.0000   1.0000   1.0000
     1.0000   1.0000   1.0000   1.0000   1.0000   1.0000   1.0000   1.0000
     1.0000   1.0000   1.0000   1.0000   1.0000   1.0000   1.0000   1.0000
     1.0000   1.0000   1.0000   1.0000   1.0000   1.0000   1.0000   1.0000
     1.0000   1.0000   1.0000   1.0000   1.0000   1.0000   1.0000   1.0000
     1.0000   1.0000   1.0000   1.0000   1.0000   1.0000   1.0000   1.0000
     1.0000   1.0000   1.0000   1.0000   1.0000   1.0000   1.0000   1.0000
     1.0000   1.0000   1.0000   0.0000   0.0000   0.0000   0.0000   0.0000
     0.0000   0.0000   0.0000   0.0000   0.0000   0.0000   0.0000   0.0000
     0.0000   0.0000   0.0000   0.0000   0.0000   0.0000   0.0000   0.0000
     0.0000   0.0000   0.0000   0.0000   0.0000

          k = 0.1667 0.1919 0.2050 ( 25776 PWs)   bands (ev):

   -77.9382 -67.4588 -67.4222 -67.3463 -66.8877 -66.8614 -44.0970 -44.0754
   -43.9848 -34.2313 -34.2049 -34.2029 -34.1795 -34.1784 -34.1630 -34.1077
   -34.1070 -34.0815 -33.6634 -33.6389 -33.6346 -33.6246 -33.6222 -33.5795
   -22.9956 -22.9475 -14.9840 -14.9652 -14.1583 -14.1371 -13.7003 -13.6769
   -13.2551 -13.1798 -13.1314 -13.0394 -12.9082 -12.8736 -12.8503 -12.8096
   -12.7153 -12.5976 -12.4507 -12.3875 -12.3162 -12.2838 -12.1407 -12.0268
   -11.0908 -10.8590  -6.5635  -6.5184  -6.4905  -6.4789  -6.4325  -6.4216
    -4.0530  -3.9951  -2.4898  -2.4387  -1.6644  -1.3384  -1.2887  -1.2187
    -0.8556  -0.7751  -0.7106  -0.5272  -0.4283  -0.2917  -0.1890  -0.1377
     0.0662   0.1542   0.2270   0.4408   0.5128   0.6294   0.6919   0.8404
     1.1015   1.1563   1.2866   1.4142   1.4440   1.5268   1.6230   1.7560
     1.8490   1.8891   1.9481   2.1004   2.2079   2.3106   2.3747   2.4179
     2.4755   2.5385   2.5691   2.6878   2.7296   2.7885   2.8599   2.9117
     2.9490   3.0667   3.1173   3.1839   3.2145   3.2453   3.3098   3.3274
     3.4038   3.4595   3.5865   3.6349   3.6592   3.7136   3.7681   3.8421
     3.8601   3.8966   3.9455   4.0205   4.0941   4.2617   4.3522   4.5416
     8.2376   8.3135   8.4058   9.6485   9.8190  10.2139  10.6991  10.9532
    11.3953  11.9648  12.3194  12.6494  12.8382  12.9047  13.1648  13.3279
    13.3532  13.4090  13.4734  13.5127  13.6162  13.7063  13.7720  13.8489
    13.9644  14.0984  14.2345  14.3823  14.5898

     occupation numbers 
     1.0000   1.0000   1.0000   1.0000   1.0000   1.0000   1.0000   1.0000
     1.0000   1.0000   1.0000   1.0000   1.0000   1.0000   1.0000   1.0000
     1.0000   1.0000   1.0000   1.0000   1.0000   1.0000   1.0000   1.0000
     1.0000   1.0000   1.0000   1.0000   1.0000   1.0000   1.0000   1.0000
     1.0000   1.0000   1.0000   1.0000   1.0000   1.0000   1.0000   1.0000
     1.0000   1.0000   1.0000   1.0000   1.0000   1.0000   1.0000   1.0000
     1.0000   1.0000   1.0000   1.0000   1.0000   1.0000   1.0000   1.0000
     1.0000   1.0000   1.0000   1.0000   1.0000   1.0000   1.0000   1.0000
     1.0000   1.0000   1.0000   1.0000   1.0000   1.0000   1.0000   1.0000
     1.0000   1.0000   1.0000   1.0000   1.0000   1.0000   1.0000   1.0000
     1.0000   1.0000   1.0000   1.0000   1.0000   1.0000   1.0000   1.0000
     1.0000   1.0000   1.0000   1.0000   1.0000   1.0000   1.0000   1.0000
     1.0000   1.0000   1.0000   1.0000   1.0000   1.0000   1.0000   1.0000
     1.0000   1.0000   1.0000   1.0000   1.0000   1.0000   1.0000   1.0000
     1.0000   1.0000   1.0000   1.0000   1.0000   1.0000   1.0000   1.0000
     1.0000   1.0000   1.0000   1.0000   1.0000   1.0000   1.0000   1.0000
     1.0000   1.0000   1.0000   0.0000   0.0000   0.0000   0.0000   0.0000
     0.0000   0.0000   0.0000   0.0000   0.0000   0.0000   0.0000   0.0000
     0.0000   0.0000   0.0000   0.0000   0.0000   0.0000   0.0000   0.0000
     0.0000   0.0000   0.0000   0.0000   0.0000

          k = 0.1667 0.1919-0.1461 ( 25782 PWs)   bands (ev):

   -77.9382 -67.4588 -67.4222 -67.3464 -66.8877 -66.8614 -44.0970 -44.0754
   -43.9848 -34.2313 -34.2049 -34.2029 -34.1795 -34.1784 -34.1630 -34.1077
   -34.1070 -34.0815 -33.6634 -33.6389 -33.6346 -33.6246 -33.6222 -33.5795
   -22.9956 -22.9475 -14.9908 -14.9581 -14.1609 -14.1343 -13.6978 -13.6796
   -13.2577 -13.1800 -13.1243 -13.0457 -12.9077 -12.8701 -12.8518 -12.8123
   -12.7153 -12.5967 -12.4462 -12.3906 -12.3075 -12.2934 -12.1410 -12.0259
   -11.0906 -10.8590  -6.5635  -6.5184  -6.4905  -6.4789  -6.4325  -6.4216
    -4.0377  -4.0106  -2.4901  -2.4379  -1.6740  -1.3417  -1.2930  -1.2143
    -0.8364  -0.7971  -0.6789  -0.5413  -0.4481  -0.2557  -0.2031  -0.1270
     0.0340   0.1702   0.2096   0.4709   0.5336   0.6218   0.7414   0.8329
     1.0945   1.1170   1.2765   1.3864   1.4468   1.5402   1.6264   1.7294
     1.8234   1.8983   1.9473   2.1194   2.2048   2.2683   2.3641   2.4120
     2.4910   2.5292   2.5708   2.7144   2.7638   2.8090   2.8406   2.9116
     2.9571   3.0729   3.1200   3.1913   3.2340   3.2454   3.3072   3.3662
     3.4356   3.4801   3.5230   3.6185   3.6838   3.7054   3.7421   3.8084
     3.8711   3.9020   3.9524   4.0321   4.0638   4.2718   4.3433   4.5381
     8.2356   8.3137   8.4081   9.6310   9.7953  10.1456  10.8446  10.9374
    11.4561  12.0316  12.3681  12.6655  12.7453  12.8987  13.1116  13.2491
    13.3034  13.3806  13.4718  13.5416  13.6133  13.6938  13.7275  13.9524
    13.9796  14.0439  14.2064  14.4068  14.5503

     occupation numbers 
     1.0000   1.0000   1.0000   1.0000   1.0000   1.0000   1.0000   1.0000
     1.0000   1.0000   1.0000   1.0000   1.0000   1.0000   1.0000   1.0000
     1.0000   1.0000   1.0000   1.0000   1.0000   1.0000   1.0000   1.0000
     1.0000   1.0000   1.0000   1.0000   1.0000   1.0000   1.0000   1.0000
     1.0000   1.0000   1.0000   1.0000   1.0000   1.0000   1.0000   1.0000
     1.0000   1.0000   1.0000   1.0000   1.0000   1.0000   1.0000   1.0000
     1.0000   1.0000   1.0000   1.0000   1.0000   1.0000   1.0000   1.0000
     1.0000   1.0000   1.0000   1.0000   1.0000   1.0000   1.0000   1.0000
     1.0000   1.0000   1.0000   1.0000   1.0000   1.0000   1.0000   1.0000
     1.0000   1.0000   1.0000   1.0000   1.0000   1.0000   1.0000   1.0000
     1.0000   1.0000   1.0000   1.0000   1.0000   1.0000   1.0000   1.0000
     1.0000   1.0000   1.0000   1.0000   1.0000   1.0000   1.0000   1.0000
     1.0000   1.0000   1.0000   1.0000   1.0000   1.0000   1.0000   1.0000
     1.0000   1.0000   1.0000   1.0000   1.0000   1.0000   1.0000   1.0000
     1.0000   1.0000   1.0000   1.0000   1.0000   1.0000   1.0000   1.0000
     1.0000   1.0000   1.0000   1.0000   1.0000   1.0000   1.0000   1.0000
     1.0000   1.0000   1.0000   0.0000   0.0000   0.0000   0.0000   0.0000
     0.0000   0.0000   0.0000   0.0000   0.0000   0.0000   0.0000   0.0000
     0.0000   0.0000   0.0000   0.0000   0.0000   0.0000   0.0000   0.0000
     0.0000   0.0000   0.0000   0.0000   0.0000

          k = 0.3333 0.0000 0.0589 ( 25772 PWs)   bands (ev):

   -77.9382 -67.4588 -67.4222 -67.3464 -66.8876 -66.8614 -44.0970 -44.0754
   -43.9848 -34.2308 -34.2063 -34.2023 -34.1796 -34.1778 -34.1633 -34.1076
   -34.1071 -34.0816 -33.6634 -33.6397 -33.6320 -33.6266 -33.6217 -33.5799
   -22.9953 -22.9472 -14.8433 -14.7953 -14.2611 -14.2235 -13.8359 -13.8006
   -13.2151 -13.1080 -13.0435 -13.0209 -12.9233 -12.8864 -12.8164 -12.8012
   -12.7003 -12.6117 -12.5161 -12.4629 -12.3990 -12.3174 -12.1324 -12.0120
   -11.0860 -10.8678  -6.5658  -6.5242  -6.4876  -6.4773  -6.4319  -6.4139
    -3.6807  -3.6103  -2.4889  -2.3810  -1.7670  -1.6195  -1.3577  -1.2047
    -0.8051  -0.7138  -0.6777  -0.6420  -0.3502  -0.2487  -0.1645  -0.0870
    -0.0498   0.1810   0.2970   0.4657   0.5401   0.6721   0.7088   0.7636
     1.0437   1.1713   1.2581   1.3181   1.4609   1.5000   1.5961   1.6183
     1.6900   1.7063   1.8511   2.0251   2.1384   2.3493   2.3911   2.4335
     2.4899   2.5870   2.7104   2.7605   2.7826   2.8155   2.8587   2.9457
     2.9771   3.0160   3.0767   3.1422   3.2068   3.2388   3.2766   3.3269
     3.4391   3.4636   3.5046   3.5967   3.6602   3.7023   3.7124   3.7842
     3.8236   3.8559   3.9683   4.0262   4.1007   4.1325   4.3390   4.4870
     8.2367   8.3066   8.3618   9.7253   9.7896  10.3309  11.3392  11.5865
    12.0018  12.1473  12.2885  12.3320  12.7850  12.7860  12.8443  13.1201
    13.2242  13.3130  13.5135  13.5876  13.6419  13.6767  13.8419  13.9978
    14.0484  14.2942  14.3262  14.4260  14.5239

     occupation numbers 
     1.0000   1.0000   1.0000   1.0000   1.0000   1.0000   1.0000   1.0000
     1.0000   1.0000   1.0000   1.0000   1.0000   1.0000   1.0000   1.0000
     1.0000   1.0000   1.0000   1.0000   1.0000   1.0000   1.0000   1.0000
     1.0000   1.0000   1.0000   1.0000   1.0000   1.0000   1.0000   1.0000
     1.0000   1.0000   1.0000   1.0000   1.0000   1.0000   1.0000   1.0000
     1.0000   1.0000   1.0000   1.0000   1.0000   1.0000   1.0000   1.0000
     1.0000   1.0000   1.0000   1.0000   1.0000   1.0000   1.0000   1.0000
     1.0000   1.0000   1.0000   1.0000   1.0000   1.0000   1.0000   1.0000
     1.0000   1.0000   1.0000   1.0000   1.0000   1.0000   1.0000   1.0000
     1.0000   1.0000   1.0000   1.0000   1.0000   1.0000   1.0000   1.0000
     1.0000   1.0000   1.0000   1.0000   1.0000   1.0000   1.0000   1.0000
     1.0000   1.0000   1.0000   1.0000   1.0000   1.0000   1.0000   1.0000
     1.0000   1.0000   1.0000   1.0000   1.0000   1.0000   1.0000   1.0000
     1.0000   1.0000   1.0000   1.0000   1.0000   1.0000   1.0000   1.0000
     1.0000   1.0000   1.0000   1.0000   1.0000   1.0000   1.0000   1.0000
     1.0000   1.0000   1.0000   1.0000   1.0000   1.0000   1.0000   1.0000
     1.0000   1.0000   1.0000   0.0000   0.0000   0.0000   0.0000   0.0000
     0.0000   0.0000   0.0000   0.0000   0.0000   0.0000   0.0000   0.0000
     0.0000   0.0000   0.0000   0.0000   0.0000   0.0000   0.0000   0.0000
     0.0000   0.0000   0.0000   0.0000   0.0000

          k = 0.3333 0.0000 0.2345 ( 25788 PWs)   bands (ev):

   -77.9382 -67.4588 -67.4222 -67.3464 -66.8876 -66.8614 -44.0970 -44.0754
   -43.9848 -34.2308 -34.2063 -34.2023 -34.1796 -34.1778 -34.1633 -34.1076
   -34.1071 -34.0816 -33.6634 -33.6397 -33.6320 -33.6266 -33.6218 -33.5799
   -22.9953 -22.9472 -14.8257 -14.8138 -14.2589 -14.2258 -13.8295 -13.8075
   -13.2075 -13.1132 -13.0560 -13.0102 -12.9209 -12.8819 -12.8307 -12.7936
   -12.6989 -12.6144 -12.5090 -12.4727 -12.3846 -12.3282 -12.1228 -12.0206
   -11.0852 -10.8688  -6.5659  -6.5242  -6.4875  -6.4773  -6.4319  -6.4139
    -3.6824  -3.6087  -2.4628  -2.4106  -1.7387  -1.6560  -1.3300  -1.1946
    -0.8068  -0.7240  -0.6714  -0.6289  -0.3192  -0.2475  -0.1989  -0.1721
    -0.0004   0.1341   0.3063   0.4329   0.5500   0.6496   0.6893   0.8180
     1.0810   1.1890   1.2270   1.3370   1.3774   1.5486   1.6270   1.6503
     1.7094   1.7537   1.7949   2.0992   2.1692   2.3010   2.3928   2.4463
     2.4734   2.5155   2.6945   2.7566   2.8165   2.8232   2.8825   2.8927
     2.9657   2.9804   3.0469   3.1351   3.1847   3.2537   3.3226   3.3847
     3.4361   3.4563   3.5379   3.5802   3.6437   3.7052   3.7230   3.7433
     3.8379   3.8870   3.9040   3.9868   4.0928   4.1917   4.3448   4.5086
     8.2366   8.3046   8.3624   9.7193   9.7753  10.6680  10.9056  11.6228
    12.0385  12.0844  12.2678  12.3895  12.7221  12.7510  12.8491  13.0089
    13.3567  13.4064  13.5450  13.5526  13.6697  13.6976  13.9147  14.0204
    14.0278  14.1074  14.1529  14.5291  14.6711

     occupation numbers 
     1.0000   1.0000   1.0000   1.0000   1.0000   1.0000   1.0000   1.0000
     1.0000   1.0000   1.0000   1.0000   1.0000   1.0000   1.0000   1.0000
     1.0000   1.0000   1.0000   1.0000   1.0000   1.0000   1.0000   1.0000
     1.0000   1.0000   1.0000   1.0000   1.0000   1.0000   1.0000   1.0000
     1.0000   1.0000   1.0000   1.0000   1.0000   1.0000   1.0000   1.0000
     1.0000   1.0000   1.0000   1.0000   1.0000   1.0000   1.0000   1.0000
     1.0000   1.0000   1.0000   1.0000   1.0000   1.0000   1.0000   1.0000
     1.0000   1.0000   1.0000   1.0000   1.0000   1.0000   1.0000   1.0000
     1.0000   1.0000   1.0000   1.0000   1.0000   1.0000   1.0000   1.0000
     1.0000   1.0000   1.0000   1.0000   1.0000   1.0000   1.0000   1.0000
     1.0000   1.0000   1.0000   1.0000   1.0000   1.0000   1.0000   1.0000
     1.0000   1.0000   1.0000   1.0000   1.0000   1.0000   1.0000   1.0000
     1.0000   1.0000   1.0000   1.0000   1.0000   1.0000   1.0000   1.0000
     1.0000   1.0000   1.0000   1.0000   1.0000   1.0000   1.0000   1.0000
     1.0000   1.0000   1.0000   1.0000   1.0000   1.0000   1.0000   1.0000
     1.0000   1.0000   1.0000   1.0000   1.0000   1.0000   1.0000   1.0000
     1.0000   1.0000   1.0000   0.0000   0.0000   0.0000   0.0000   0.0000
     0.0000   0.0000   0.0000   0.0000   0.0000   0.0000   0.0000   0.0000
     0.0000   0.0000   0.0000   0.0000   0.0000   0.0000   0.0000   0.0000
     0.0000   0.0000   0.0000   0.0000   0.0000

          k = 0.3333 0.0000-0.1166 ( 25772 PWs)   bands (ev):

   -77.9382 -67.4588 -67.4222 -67.3464 -66.8876 -66.8614 -44.0969 -44.0754
   -43.9848 -34.2308 -34.2063 -34.2023 -34.1796 -34.1778 -34.1633 -34.1076
   -34.1071 -34.0816 -33.6633 -33.6397 -33.6320 -33.6266 -33.6217 -33.5799
   -22.9953 -22.9472 -14.8379 -14.8011 -14.2533 -14.2318 -13.8306 -13.8062
   -13.2129 -13.1009 -13.0614 -13.0136 -12.9200 -12.8826 -12.8351 -12.7868
   -12.6998 -12.6142 -12.5062 -12.4777 -12.3796 -12.3317 -12.1240 -12.0192
   -11.0851 -10.8687  -6.5660  -6.5243  -6.4876  -6.4772  -6.4318  -6.4139
    -3.6493  -3.6427  -2.4778  -2.3944  -1.7516  -1.6374  -1.3509  -1.1998
    -0.7951  -0.7059  -0.6720  -0.6295  -0.3554  -0.2351  -0.1874  -0.1392
    -0.0532   0.1480   0.3346   0.4293   0.5654   0.6448   0.7421   0.7788
     1.0832   1.1477   1.2541   1.3490   1.4046   1.5121   1.6053   1.6472
     1.6828   1.7048   1.8603   2.0503   2.1321   2.3124   2.3853   2.4175
     2.4769   2.5874   2.7296   2.7612   2.7845   2.8413   2.8599   2.9173
     2.9792   2.9987   3.0350   3.1425   3.2170   3.2712   3.3485   3.3531
     3.4298   3.4424   3.5665   3.6129   3.6581   3.6713   3.6934   3.7295
     3.8086   3.8730   3.9341   3.9463   4.1171   4.1798   4.3465   4.5098
     8.2346   8.3048   8.3633   9.7181   9.7898  10.3938  11.2219  11.7139
    11.9898  12.1182  12.2960  12.4303  12.7080  12.7672  12.8841  12.9819
    13.2265  13.3791  13.4495  13.5691  13.6708  13.7297  13.7566  13.9340
    14.0949  14.2126  14.2896  14.4925  14.5974

     occupation numbers 
     1.0000   1.0000   1.0000   1.0000   1.0000   1.0000   1.0000   1.0000
     1.0000   1.0000   1.0000   1.0000   1.0000   1.0000   1.0000   1.0000
     1.0000   1.0000   1.0000   1.0000   1.0000   1.0000   1.0000   1.0000
     1.0000   1.0000   1.0000   1.0000   1.0000   1.0000   1.0000   1.0000
     1.0000   1.0000   1.0000   1.0000   1.0000   1.0000   1.0000   1.0000
     1.0000   1.0000   1.0000   1.0000   1.0000   1.0000   1.0000   1.0000
     1.0000   1.0000   1.0000   1.0000   1.0000   1.0000   1.0000   1.0000
     1.0000   1.0000   1.0000   1.0000   1.0000   1.0000   1.0000   1.0000
     1.0000   1.0000   1.0000   1.0000   1.0000   1.0000   1.0000   1.0000
     1.0000   1.0000   1.0000   1.0000   1.0000   1.0000   1.0000   1.0000
     1.0000   1.0000   1.0000   1.0000   1.0000   1.0000   1.0000   1.0000
     1.0000   1.0000   1.0000   1.0000   1.0000   1.0000   1.0000   1.0000
     1.0000   1.0000   1.0000   1.0000   1.0000   1.0000   1.0000   1.0000
     1.0000   1.0000   1.0000   1.0000   1.0000   1.0000   1.0000   1.0000
     1.0000   1.0000   1.0000   1.0000   1.0000   1.0000   1.0000   1.0000
     1.0000   1.0000   1.0000   1.0000   1.0000   1.0000   1.0000   1.0000
     1.0000   1.0000   1.0000   0.0000   0.0000   0.0000   0.0000   0.0000
     0.0000   0.0000   0.0000   0.0000   0.0000   0.0000   0.0000   0.0000
     0.0000   0.0000   0.0000   0.0000   0.0000   0.0000   0.0000   0.0000
     0.0000   0.0000   0.0000   0.0000   0.0000

          k = 0.3333 0.1919 0.0589 ( 25803 PWs)   bands (ev):

   -77.9382 -67.4588 -67.4222 -67.3464 -66.8876 -66.8614 -44.0970 -44.0755
   -43.9848 -34.2308 -34.2063 -34.2023 -34.1796 -34.1778 -34.1633 -34.1076
   -34.1071 -34.0816 -33.6634 -33.6397 -33.6320 -33.6266 -33.6218 -33.5799
   -22.9953 -22.9472 -14.8396 -14.7915 -14.2731 -14.2338 -13.8321 -13.7995
   -13.1806 -13.1260 -13.0253 -12.9804 -12.9288 -12.8948 -12.8574 -12.8204
   -12.7105 -12.6079 -12.5117 -12.4482 -12.3986 -12.3238 -12.1310 -12.0116
   -11.0854 -10.8679  -6.5657  -6.5256  -6.4878  -6.4767  -6.4315  -6.4141
    -3.6585  -3.5879  -2.5921  -2.4936  -1.6825  -1.5114  -1.3072  -1.2296
    -0.8196  -0.7470  -0.6726  -0.5944  -0.3539  -0.2106  -0.1548  -0.0702
    -0.0032   0.1383   0.2823   0.4575   0.5383   0.6410   0.6870   0.7116
     1.0177   1.0906   1.3171   1.3655   1.4274   1.5159   1.5820   1.6365
     1.6866   1.7271   1.8433   1.9879   2.1614   2.3151   2.3874   2.4343
     2.4932   2.6025   2.6711   2.7349   2.7807   2.8752   2.9230   2.9658
     2.9914   3.0358   3.1352   3.1619   3.2251   3.2524   3.2747   3.3602
     3.4042   3.4745   3.4976   3.5645   3.6189   3.6456   3.6849   3.7259
     3.8467   3.8986   3.9642   4.0372   4.0765   4.1828   4.2743   4.4641
     8.2365   8.3164   8.3602   9.6930   9.8098  10.5786  11.1835  11.5191
    11.9276  12.0012  12.1986  12.5582  12.6305  12.7676  12.9348  13.1840
    13.2645  13.3304  13.4933  13.5170  13.6088  13.7157  13.8800  14.0070
    14.1494  14.3325  14.3664  14.4374  14.5290

     occupation numbers 
     1.0000   1.0000   1.0000   1.0000   1.0000   1.0000   1.0000   1.0000
     1.0000   1.0000   1.0000   1.0000   1.0000   1.0000   1.0000   1.0000
     1.0000   1.0000   1.0000   1.0000   1.0000   1.0000   1.0000   1.0000
     1.0000   1.0000   1.0000   1.0000   1.0000   1.0000   1.0000   1.0000
     1.0000   1.0000   1.0000   1.0000   1.0000   1.0000   1.0000   1.0000
     1.0000   1.0000   1.0000   1.0000   1.0000   1.0000   1.0000   1.0000
     1.0000   1.0000   1.0000   1.0000   1.0000   1.0000   1.0000   1.0000
     1.0000   1.0000   1.0000   1.0000   1.0000   1.0000   1.0000   1.0000
     1.0000   1.0000   1.0000   1.0000   1.0000   1.0000   1.0000   1.0000
     1.0000   1.0000   1.0000   1.0000   1.0000   1.0000   1.0000   1.0000
     1.0000   1.0000   1.0000   1.0000   1.0000   1.0000   1.0000   1.0000
     1.0000   1.0000   1.0000   1.0000   1.0000   1.0000   1.0000   1.0000
     1.0000   1.0000   1.0000   1.0000   1.0000   1.0000   1.0000   1.0000
     1.0000   1.0000   1.0000   1.0000   1.0000   1.0000   1.0000   1.0000
     1.0000   1.0000   1.0000   1.0000   1.0000   1.0000   1.0000   1.0000
     1.0000   1.0000   1.0000   1.0000   1.0000   1.0000   1.0000   1.0000
     1.0000   1.0000   1.0000   0.0000   0.0000   0.0000   0.0000   0.0000
     0.0000   0.0000   0.0000   0.0000   0.0000   0.0000   0.0000   0.0000
     0.0000   0.0000   0.0000   0.0000   0.0000   0.0000   0.0000   0.0000
     0.0000   0.0000   0.0000   0.0000   0.0000

          k = 0.3333 0.1919 0.2345 ( 25763 PWs)   bands (ev):

   -77.9382 -67.4588 -67.4222 -67.3464 -66.8876 -66.8614 -44.0970 -44.0754
   -43.9848 -34.2308 -34.2063 -34.2023 -34.1796 -34.1778 -34.1633 -34.1076
   -34.1071 -34.0816 -33.6633 -33.6397 -33.6320 -33.6266 -33.6217 -33.5799
   -22.9953 -22.9472 -14.8223 -14.8097 -14.2689 -14.2381 -13.8262 -13.8059
   -13.1749 -13.1225 -13.0422 -12.9700 -12.9285 -12.8910 -12.8700 -12.8120
   -12.7088 -12.6115 -12.5035 -12.4621 -12.3849 -12.3322 -12.1216 -12.0200
   -11.0846 -10.8688  -6.5658  -6.5257  -6.4877  -6.4766  -6.4314  -6.4140
    -3.6574  -3.5889  -2.5585  -2.5308  -1.6635  -1.5379  -1.2841  -1.2172
    -0.8129  -0.7706  -0.6241  -0.6172  -0.3251  -0.2542  -0.1721  -0.0891
     0.0104   0.0974   0.3159   0.4122   0.5271   0.6198   0.6755   0.7542
     1.0104   1.1174   1.3181   1.3555   1.4434   1.5010   1.6156   1.6644
     1.7165   1.7666   1.8323   1.9977   2.2051   2.2627   2.4024   2.4265
     2.4648   2.5895   2.6507   2.7499   2.7982   2.8394   2.8965   2.9232
     2.9882   3.0462   3.1175   3.1415   3.2082   3.2466   3.3049   3.3713
     3.4384   3.4863   3.5358   3.5824   3.6012   3.6518   3.6869   3.7167
     3.8412   3.8807   3.9447   3.9864   4.1066   4.2015   4.2816   4.4856
     8.2363   8.3147   8.3609   9.6861   9.7996  10.8568  11.1411  11.3470
    11.7112  11.9749  12.1680  12.5773  12.7086  12.7857  12.9234  13.0958
    13.2428  13.4403  13.5103  13.5793  13.7127  13.7620  13.9282  13.9887
    14.1097  14.1983  14.2655  14.4312  14.5087

     occupation numbers 
     1.0000   1.0000   1.0000   1.0000   1.0000   1.0000   1.0000   1.0000
     1.0000   1.0000   1.0000   1.0000   1.0000   1.0000   1.0000   1.0000
     1.0000   1.0000   1.0000   1.0000   1.0000   1.0000   1.0000   1.0000
     1.0000   1.0000   1.0000   1.0000   1.0000   1.0000   1.0000   1.0000
     1.0000   1.0000   1.0000   1.0000   1.0000   1.0000   1.0000   1.0000
     1.0000   1.0000   1.0000   1.0000   1.0000   1.0000   1.0000   1.0000
     1.0000   1.0000   1.0000   1.0000   1.0000   1.0000   1.0000   1.0000
     1.0000   1.0000   1.0000   1.0000   1.0000   1.0000   1.0000   1.0000
     1.0000   1.0000   1.0000   1.0000   1.0000   1.0000   1.0000   1.0000
     1.0000   1.0000   1.0000   1.0000   1.0000   1.0000   1.0000   1.0000
     1.0000   1.0000   1.0000   1.0000   1.0000   1.0000   1.0000   1.0000
     1.0000   1.0000   1.0000   1.0000   1.0000   1.0000   1.0000   1.0000
     1.0000   1.0000   1.0000   1.0000   1.0000   1.0000   1.0000   1.0000
     1.0000   1.0000   1.0000   1.0000   1.0000   1.0000   1.0000   1.0000
     1.0000   1.0000   1.0000   1.0000   1.0000   1.0000   1.0000   1.0000
     1.0000   1.0000   1.0000   1.0000   1.0000   1.0000   1.0000   1.0000
     1.0000   1.0000   1.0000   0.0000   0.0000   0.0000   0.0000   0.0000
     0.0000   0.0000   0.0000   0.0000   0.0000   0.0000   0.0000   0.0000
     0.0000   0.0000   0.0000   0.0000   0.0000   0.0000   0.0000   0.0000
     0.0000   0.0000   0.0000   0.0000   0.0000

          k = 0.3333 0.1919-0.1166 ( 25766 PWs)   bands (ev):

   -77.9382 -67.4588 -67.4222 -67.3464 -66.8876 -66.8614 -44.0970 -44.0754
   -43.9848 -34.2308 -34.2063 -34.2023 -34.1796 -34.1778 -34.1633 -34.1076
   -34.1071 -34.0816 -33.6634 -33.6397 -33.6320 -33.6266 -33.6217 -33.5799
   -22.9953 -22.9472 -14.8341 -14.7974 -14.2653 -14.2420 -13.8260 -13.8060
   -13.1791 -13.1229 -13.0308 -12.9787 -12.9222 -12.8920 -12.8767 -12.8112
   -12.7092 -12.6098 -12.5010 -12.4643 -12.3779 -12.3388 -12.1226 -12.0187
   -11.0845 -10.8687  -6.5659  -6.5257  -6.4877  -6.4766  -6.4314  -6.4140
    -3.6280  -3.6195  -2.5797  -2.5079  -1.6739  -1.5207  -1.3025  -1.2264
    -0.8017  -0.7451  -0.6593  -0.5910  -0.3598  -0.2016  -0.1851  -0.0684
    -0.0446   0.1141   0.2859   0.4641   0.5523   0.6251   0.7018   0.7200
     1.0403   1.0799   1.3091   1.3568   1.4544   1.5058   1.6113   1.6321
     1.6839   1.7215   1.8706   2.0125   2.1423   2.3006   2.3897   2.4002
     2.4756   2.6262   2.6599   2.7281   2.7844   2.8595   2.8955   2.9504
     3.0242   3.0625   3.0999   3.1586   3.2288   3.2505   3.3021   3.3754
     3.4586   3.4730   3.5167   3.5624   3.6256   3.6459   3.6887   3.7293
     3.8043   3.8920   3.9270   3.9632   4.1147   4.2071   4.2730   4.4830
     8.2342   8.3150   8.3620   9.6798   9.8053  10.6668  11.3048  11.3883
    11.7951  12.0400  12.1963  12.5832  12.6367  12.7946  12.9147  13.1392
    13.2484  13.3696  13.4672  13.5518  13.6293  13.7622  13.8492  14.0428
    14.1514  14.2296  14.2988  14.4343  14.5332

     occupation numbers 
     1.0000   1.0000   1.0000   1.0000   1.0000   1.0000   1.0000   1.0000
     1.0000   1.0000   1.0000   1.0000   1.0000   1.0000   1.0000   1.0000
     1.0000   1.0000   1.0000   1.0000   1.0000   1.0000   1.0000   1.0000
     1.0000   1.0000   1.0000   1.0000   1.0000   1.0000   1.0000   1.0000
     1.0000   1.0000   1.0000   1.0000   1.0000   1.0000   1.0000   1.0000
     1.0000   1.0000   1.0000   1.0000   1.0000   1.0000   1.0000   1.0000
     1.0000   1.0000   1.0000   1.0000   1.0000   1.0000   1.0000   1.0000
     1.0000   1.0000   1.0000   1.0000   1.0000   1.0000   1.0000   1.0000
[...]
     atom   12 type  7   force =     0.00000000    0.00000000    0.00000000
     atom   13 type  7   force =     0.00000000    0.00000000    0.00000000
     atom   14 type  7   force =     0.00000000    0.00000000    0.00000000
     atom   15 type  1   force =     0.00000000    0.00000000    0.00000000
     atom   16 type  1   force =     0.00000000    0.00000000    0.00000000
     atom   17 type  6   force =     0.00000000    0.00000000    0.00000000
     atom   18 type  6   force =     0.00000000    0.00000000    0.00000000
     atom   19 type  6   force =     0.00000000    0.00000000    0.00000000
     atom   20 type  6   force =     0.00000000    0.00000000    0.00000000
     atom   21 type  6   force =     0.00000000    0.00000000    0.00000000
     atom   22 type  6   force =     0.00000000    0.00000000    0.00000000
     atom   23 type  6   force =     0.00000000    0.00000000    0.00000000
     atom   24 type  6   force =     0.00000000    0.00000000    0.00000000
     atom   25 type  6   force =     0.00000000    0.00000000    0.00000000
     atom   26 type  6   force =     0.00000000    0.00000000    0.00000000
     atom   27 type  6   force =     0.00000000    0.00000000    0.00000000
     atom   28 type  6   force =     0.00000000    0.00000000    0.00000000
     atom   29 type  6   force =     0.00000000    0.00000000    0.00000000
     atom   30 type  6   force =     0.00000000    0.00000000    0.00000000
     atom   31 type  6   force =     0.00000000    0.00000000    0.00000000
     atom   32 type  6   force =     0.00000000    0.00000000    0.00000000
     atom   33 type  6   force =     0.00000000    0.00000000    0.00000000
     atom   34 type  6   force =     0.00000000    0.00000000    0.00000000
     atom   35 type  6   force =     0.00000000    0.00000000    0.00000000
     atom   36 type  6   force =     0.00000000    0.00000000    0.00000000
     atom   37 type  6   force =     0.00000000    0.00000000    0.00000000
     atom   38 type  6   force =     0.00000000    0.00000000    0.00000000
     atom   39 type  6   force =     0.00000000    0.00000000    0.00000000
     atom   40 type  6   force =     0.00000000    0.00000000    0.00000000
     atom   41 type  3   force =     0.00000000    0.00000000    0.00000000
     atom   42 type  3   force =     0.00000000    0.00000000    0.00000000
     atom   43 type  3   force =     0.00000000    0.00000000    0.00000000
     atom   44 type  3   force =     0.00000000    0.00000000    0.00000000
     The SCF correction term to forces
     atom    1 type  4   force =     0.00000000   -0.00001261    0.00000000
     atom    2 type  4   force =    -0.00000000    0.00001577    0.00000000
     atom    3 type  5   force =    -0.00000000   -0.00000331   -0.00000000
     atom    4 type  5   force =     0.00000000    0.00004387   -0.00000000
     atom    5 type  5   force =    -0.00000000   -0.00009442    0.00000000
     atom    6 type  5   force =    -0.00000000   -0.00000831   -0.00000000
     atom    7 type  5   force =     0.00000000    0.00003870   -0.00000000
     atom    8 type  2   force =    -0.00000000   -0.00000574    0.00000000
     atom    9 type  7   force =    -0.00000176    0.00000433    0.00000944
     atom   10 type  7   force =     0.00000176    0.00000433   -0.00000944
     atom   11 type  7   force =     0.00000258   -0.00000003   -0.00001789
     atom   12 type  7   force =    -0.00000258   -0.00000003    0.00001789
     atom   13 type  7   force =     0.00000627   -0.00000572    0.00002438
     atom   14 type  7   force =    -0.00000627   -0.00000572   -0.00002438
     atom   15 type  1   force =    -0.00000069    0.00000041   -0.00000913
     atom   16 type  1   force =     0.00000069    0.00000041    0.00000913
     atom   17 type  6   force =     0.00000508    0.00001471   -0.00000038
     atom   18 type  6   force =    -0.00000508    0.00001471    0.00000038
     atom   19 type  6   force =    -0.00000024   -0.00000461   -0.00000704
     atom   20 type  6   force =     0.00000024   -0.00000461    0.00000704
     atom   21 type  6   force =     0.00001302   -0.00002170    0.00001112
     atom   22 type  6   force =    -0.00001302   -0.00002170   -0.00001112
     atom   23 type  6   force =     0.00001281    0.00002797   -0.00003014
     atom   24 type  6   force =    -0.00001281    0.00002797    0.00003014
     atom   25 type  6   force =     0.00001167    0.00002749    0.00000100
     atom   26 type  6   force =    -0.00001167    0.00002749   -0.00000100
     atom   27 type  6   force =     0.00002064    0.00001034    0.00000643
     atom   28 type  6   force =    -0.00002064    0.00001034   -0.00000643
     atom   29 type  6   force =     0.00000127    0.00000167   -0.00003004
     atom   30 type  6   force =    -0.00000127    0.00000167    0.00003004
     atom   31 type  6   force =    -0.00001409    0.00000278    0.00005165
     atom   32 type  6   force =     0.00001409    0.00000278   -0.00005165
     atom   33 type  6   force =     0.00003093   -0.00002261    0.00002625
     atom   34 type  6   force =    -0.00003093   -0.00002261   -0.00002625
     atom   35 type  6   force =     0.00002882   -0.00002861   -0.00001333
     atom   36 type  6   force =    -0.00002882   -0.00002861    0.00001333
     atom   37 type  6   force =    -0.00000293   -0.00000605    0.00005836
     atom   38 type  6   force =     0.00000293   -0.00000605   -0.00005836
     atom   39 type  6   force =    -0.00000248   -0.00000306    0.00000995
     atom   40 type  6   force =     0.00000248   -0.00000306   -0.00000995
     atom   41 type  3   force =    -0.00000089   -0.00000005    0.00000770
     atom   42 type  3   force =     0.00000089   -0.00000005   -0.00000770
     atom   43 type  3   force =    -0.00000014    0.00000021    0.00000067
     atom   44 type  3   force =     0.00000014    0.00000021   -0.00000067

     Dispersion contribution to forces:
     atom    1 type  4   force =    -0.00000000    0.00225153    0.00000000
     atom    2 type  4   force =     0.00000000   -0.00171729    0.00000000
     atom    3 type  5   force =    -0.00000000    0.00058523    0.00000000
     atom    4 type  5   force =    -0.00000000   -0.00217703    0.00000000
     atom    5 type  5   force =     0.00000000    0.00183347    0.00000000
     atom    6 type  5   force =    -0.00000000    0.00372374    0.00000000
     atom    7 type  5   force =     0.00000000   -0.00434451    0.00000000
     atom    8 type  2   force =    -0.00000000    0.00091239    0.00000000
     atom    9 type  7   force =    -0.00005268   -0.00036800    0.00125219
     atom   10 type  7   force =     0.00005268   -0.00036800   -0.00125219
     atom   11 type  7   force =    -0.00014203    0.00006522   -0.00080223
     atom   12 type  7   force =     0.00014203    0.00006522    0.00080223
     atom   13 type  7   force =     0.00057872    0.00147199   -0.00077573
     atom   14 type  7   force =    -0.00057872    0.00147199    0.00077572
     atom   15 type  1   force =    -0.00053816   -0.00109056   -0.00135255
     atom   16 type  1   force =     0.00053816   -0.00109056    0.00135255
     atom   17 type  6   force =    -0.00011885    0.00026129    0.00045233
     atom   18 type  6   force =     0.00011885    0.00026129   -0.00045233
     atom   19 type  6   force =     0.00002057   -0.00026000   -0.00032078
     atom   20 type  6   force =    -0.00002057   -0.00026000    0.00032078
     atom   21 type  6   force =    -0.00027149   -0.00025127    0.00039527
     atom   22 type  6   force =     0.00027149   -0.00025127   -0.00039527
     atom   23 type  6   force =    -0.00006369   -0.00014585    0.00129822
     atom   24 type  6   force =     0.00006369   -0.00014585   -0.00129822
     atom   25 type  6   force =     0.00032501    0.00194868    0.00154143
     atom   26 type  6   force =    -0.00032501    0.00194868   -0.00154144
     atom   27 type  6   force =     0.00027105    0.00012961    0.00067026
     atom   28 type  6   force =    -0.00027105    0.00012961   -0.00067026
     atom   29 type  6   force =    -0.00008893    0.00014712   -0.00018050
     atom   30 type  6   force =     0.00008893    0.00014713    0.00018050
     atom   31 type  6   force =     0.00022993   -0.00036416   -0.00023641
     atom   32 type  6   force =    -0.00022993   -0.00036416    0.00023641
     atom   33 type  6   force =     0.00102743   -0.00145296    0.00122723
     atom   34 type  6   force =    -0.00102743   -0.00145296   -0.00122723
     atom   35 type  6   force =     0.00151667   -0.00032485   -0.00129587
     atom   36 type  6   force =    -0.00151667   -0.00032485    0.00129587
     atom   37 type  6   force =    -0.00002029    0.00009927   -0.00237142
     atom   38 type  6   force =     0.00002029    0.00009927    0.00237142
     atom   39 type  6   force =     0.00017273    0.00005604   -0.00251604
     atom   40 type  6   force =    -0.00017273    0.00005604    0.00251604
     atom   41 type  3   force =    -0.00114828   -0.00030523   -0.00067848
     atom   42 type  3   force =     0.00114828   -0.00030523    0.00067848
     atom   43 type  3   force =     0.00032645   -0.00015011    0.00092414
     atom   44 type  3   force =    -0.00032645   -0.00015011   -0.00092414

     Total force =     0.004397     Total SCF correction =     0.000216

     Total Dispersion Force =     0.011576


     Computing stress (Cartesian axis) and pressure

          total   stress  (Ry/bohr**3)                   (kbar)     P=       -3.15
  -0.00003400   0.00000000   0.00000331           -5.00        0.00        0.49
   0.00000000  -0.00002441   0.00000000            0.00       -3.59        0.00
   0.00000331   0.00000000  -0.00000576            0.49        0.00       -0.85

     kinetic stress (kbar)  20947.79      0.00     12.37
                                0.00  20949.08      0.00
                               12.37      0.00  20667.38

     local   stress (kbar) -39788.86      0.00    100.44
                                0.00 -39458.17      0.00
                              100.44      0.00  18295.39

     nonloc. stress (kbar)   3939.81      0.00      0.42
                                0.00   3941.23      0.00
                                0.42      0.00   3922.89

     hartree stress (kbar)  22645.91     -0.00    -43.54
                               -0.00  22493.74      0.00
                              -43.54      0.00  -5743.06

     exc-cor stress (kbar)  -2932.55     -0.00     -0.05
                               -0.00  -2932.79     -0.00
                               -0.05     -0.00  -2929.57

     corecor stress (kbar)  -1932.70      0.00     -0.06
                                0.00  -1932.81      0.00
                               -0.06      0.00  -1934.42

     ewald   stress (kbar)  -2854.65      0.00    -69.10
                                0.00  -3034.06     -0.00
                              -69.10     -0.00 -32250.44

     hubbard stress (kbar)      0.00      0.00      0.00
                                0.00      0.00      0.00
                                0.00      0.00      0.00

     DFT-D   stress (kbar)    -29.75      0.00      0.01
                                0.00    -29.81     -0.00
                                0.01     -0.00    -29.01

     XDM     stress (kbar)      0.00      0.00      0.00
                                0.00      0.00      0.00
                                0.00      0.00      0.00

     dft-nl  stress (kbar)      0.00      0.00      0.00
                                0.00      0.00      0.00
                                0.00      0.00      0.00

     TS-vdW  stress (kbar)      0.00      0.00      0.00
                                0.00      0.00      0.00
                                0.00      0.00      0.00

     MDB     stress (kbar)      0.00      0.00      0.00
                                0.00      0.00      0.00
                                0.00      0.00      0.00

     3D-RISM stress (kbar)      0.00      0.00      0.00
                                0.00      0.00      0.00
                                0.00      0.00      0.00

     Energy error            =      5.1E-05 Ry
     Gradient error          =      9.7E-04 Ry/Bohr

     bfgs converged in  11 scf cycles and  10 bfgs steps
     (criteria: energy <  1.0E-04 Ry, force <  1.0E-03 Ry/Bohr)

     End of BFGS Geometry Optimization

     Final energy             =   -2631.3420742623 Ry

     File ./temp/phl-fe1.bfgs deleted, as requested
Begin final coordinates

ATOMIC_POSITIONS (crystal)
K                0.0000000000        0.4954640025        0.0000000000
K                0.5000000000        0.0029697616        0.0000000000
Mg               0.0000000000        0.0034602117        0.5000000000
Mg               0.0000000000        0.3341929512        0.5000000000
Mg               0.0000000000        0.6624369426        0.5000000000
Mg               0.5000000000        0.8332019639        0.5000000000
Mg               0.5000000000        0.1738754383        0.5000000000
Fe               0.5000000000        0.4985830897        0.5000000000
Si               0.0822086667        0.1651082621        0.2234228009
Si               0.9177913183        0.1651082621        0.7765772141
Si               0.9334180095        0.8340519422        0.7709341537
Si               0.0665819905        0.8340519422        0.2290658463
Si               0.5646972042        0.6656721310        0.2261584892
Si               0.4353027958        0.6656721310        0.7738415408
Al               0.4177946378        0.3328628085        0.7752795344
Al               0.5822053322        0.3328628085        0.2247204656
O                0.1260563831        0.1637117101        0.3858084132
O                0.8739435869        0.1637117101        0.6141915568
O                0.8741430455        0.8320255122        0.6098692012
O                0.1258569545        0.8320255122        0.3901307988
O                0.6274390104        0.6670668360        0.3883941754
O                0.3725609896        0.6670668360        0.6116057946
O                0.3646857505        0.3374192213        0.6024734798
O                0.6353142495        0.3374192213        0.3975265202
O                0.3435831369        0.2023394028        0.1664605961
O                0.6564168631        0.2023394028        0.8335393889
O                0.9931679798        0.9971517144        0.1680237530
O                0.0068320202        0.9971517144        0.8319762620
O                0.6791789311        0.7773767702        0.8308835984
O                0.3208210689        0.7773767702        0.1691164016
O                0.8189907125        0.7297184170        0.1677019660
O                0.1810092875        0.7297184170        0.8322980640
O                0.4910970539        0.5080614197        0.1599058109
O                0.5089029461        0.5080614197        0.8400941891
O                0.1437706731        0.2775885980        0.8393708471
O                0.8562293119        0.2775885980        0.1606291529
O                0.1390183891        0.5022356895        0.3949403580
O                0.8609815809        0.5022356895        0.6050596120
O                0.6316855322        0.9994679616        0.3965711771
O                0.3683144678        0.9994679616        0.6034288229
H                0.1252742042        0.4916032185        0.2994216715
H                0.8747257878        0.4916032185        0.7005783285
H                0.5955687516        0.0144961813        0.3013587539
H                0.4044312484        0.0144961813        0.6986412161
End final coordinates



     Writing all to output data dir ./temp/phl-fe1.save/ :
     XML data file, charge density, pseudopotentials, collected wavefunctions

     init_run     :    112.35s CPU    119.49s WALL (       1 calls)
     electrons    :  40555.06s CPU  41444.66s WALL (      11 calls)
     update_pot   :     10.21s CPU     12.08s WALL (      10 calls)
     forces       :    941.80s CPU    985.95s WALL (      11 calls)
     force_london :      4.38s CPU      4.52s WALL (      11 calls)
     stress       :   2518.86s CPU   2588.91s WALL (      11 calls)
     stres_london :      5.62s CPU      5.70s WALL (      11 calls)

     Called by init_run:
     wfcinit      :    107.32s CPU    113.64s WALL (       1 calls)
     wfcinit:atom :      0.19s CPU      0.20s WALL (      20 calls)
     wfcinit:wfcr :    105.87s CPU    112.17s WALL (      20 calls)
     potinit      :      1.16s CPU      1.35s WALL (       1 calls)
     hinit0       :      0.65s CPU      0.72s WALL (       1 calls)

     Called by electrons:
     c_bands      :  37230.58s CPU  37971.16s WALL (      94 calls)
     sum_band     :   2992.69s CPU   3088.77s WALL (      94 calls)
     v_of_rho     :     18.97s CPU     20.04s WALL (      97 calls)
     v_h          :      1.83s CPU      1.94s WALL (      97 calls)
     v_xc         :     21.11s CPU     22.27s WALL (     119 calls)
     newd         :    276.65s CPU    321.28s WALL (      97 calls)
     PAW_pot      :     73.31s CPU     90.91s WALL (     107 calls)
     mix_rho      :      3.45s CPU      3.62s WALL (      94 calls)
     energy_londo :      3.85s CPU      4.24s WALL (      11 calls)

     Called by c_bands:
     init_us_2    :    101.82s CPU    103.26s WALL (    4420 calls)
     cegterg      :  37075.01s CPU  37811.40s WALL (    1880 calls)

     Called by sum_band:
     sum_band:wei :      0.03s CPU      0.03s WALL (      94 calls)
     sum_band:loo :   2565.54s CPU   2618.36s WALL (      94 calls)
     sum_band:buf :     13.04s CPU     13.14s WALL (    1880 calls)
     sum_band:ini :     44.86s CPU     45.23s WALL (    1880 calls)
     sum_band:cal :   2010.76s CPU   2038.37s WALL (    2080 calls)
     sum_band:bec :      4.41s CPU      4.45s WALL (    2080 calls)
     addusdens    :    422.97s CPU    464.62s WALL (      94 calls)
                                        0.00s GPU  (      94 calls)
     addusd:skk   :      2.53s CPU      2.65s WALL (     658 calls)
                                        0.00s GPU  (     658 calls)

     Called by *egterg:
     cdiaghg      :   1440.34s CPU   1622.30s WALL (   14214 calls)
     cegterg:over :   4746.34s CPU   4830.66s WALL (   12694 calls)
     cegterg:upda :   2715.10s CPU   2748.74s WALL (   12694 calls)
     cegterg:last :   7426.95s CPU   7503.55s WALL (    5194 calls)
     cdiaghg:chol :     30.92s CPU     36.94s WALL (   14214 calls)
     cdiaghg:inve :     21.02s CPU     28.87s WALL (   14214 calls)
     cdiaghg:para :    512.19s CPU    599.07s WALL (   28428 calls)
     h_psi        :  14232.02s CPU  14533.89s WALL (   14594 calls)
     s_psi        :   5614.06s CPU   5641.52s WALL (   14594 calls)
     g_psi        :     17.85s CPU     17.99s WALL (   12694 calls)

     Called by h_psi:
     h_psi:calbec :   5615.11s CPU   5669.10s WALL (   14594 calls)
     vloc_psi     :   2964.60s CPU   3184.15s WALL (   14594 calls)
     add_vuspsi   :   5615.62s CPU   5642.02s WALL (   14594 calls)

     General routines
     calbec       :   8682.97s CPU   8812.39s WALL (   17774 calls)
     fft          :     17.23s CPU     19.04s WALL (    1532 calls)
     ffts         :      0.61s CPU      0.66s WALL (     191 calls)
     fftw         :   2248.96s CPU   2418.28s WALL ( 2113150 calls)
     interpolate  :      1.79s CPU      1.91s WALL (      97 calls)

     Parallel routines

     PAW routines
     PAW_pot      :     73.31s CPU     90.91s WALL (     107 calls)
     PAW_symme    :      0.07s CPU      0.08s WALL (     201 calls)

     PWSCF        :     12h19m CPU     12h36m WALL


   This run was terminated on:  15:14:34  19Dec2024            

=------------------------------------------------------------------------------=
   JOB DONE.
=------------------------------------------------------------------------------=
