
     Program PWSCF v.7.3.1 starts on  4Mar2025 at 21:31:10 

     This program is part of the open-source Quantum ESPRESSO suite
     for quantum simulation of materials; please cite
         "P. Giannozzi et al., J. Phys.:Condens. Matter 21 395502 (2009);
         "P. Giannozzi et al., J. Phys.:Condens. Matter 29 465901 (2017);
         "P. Giannozzi et al., J. Chem. Phys. 152 154105 (2020);
          URL http://www.quantum-espresso.org", 
     in publications or presentations arising from this work. More details at
     http://www.quantum-espresso.org/quote

     Parallel version (MPI), running on     6 processors

     MPI processes distributed on     1 nodes
     1751 MiB available memory on the printing compute node when the environment starts

     Reading input from relax.in

     Current dimensions of program PWSCF are:
     Max number of different atomic species (ntypx) = 10
     Max number of k-points (npk) =  40000
     Max angular momentum in pseudopotentials (lmaxx) =  4
     file Al.pbe-n-kjpaw_psl.1.0.0.UPF: wavefunction(s)  3S 3P renormalized
     file Ti.pbe-spn-kjpaw_psl.1.0.0.UPF: wavefunction(s)  3S 3P 3D renormalized
     file H.pbe-kjpaw_psl.1.0.0.UPF: wavefunction(s)  1S renormalized
     file K.pbe-spn-kjpaw_psl.1.0.0.UPF: wavefunction(s)  3S renormalized
     file Mg.pbe-spnl-kjpaw_psl.1.0.0.UPF: wavefunction(s)  2P renormalized
     file O.pbe-n-kjpaw_psl.1.0.0.UPF: wavefunction(s)  2S 2P renormalized
     file Si.pbe-n-kjpaw_psl.1.0.0.UPF: wavefunction(s)  3S 3P renormalized

     R & G space division:  proc/nbgrp/npool/nimage =       6
     Subspace diagonalization in iterative solution of the eigenvalue problem:
     a serial algorithm will be used


     Parallelization info
     --------------------
     sticks:   dense  smooth     PW     G-vecs:    dense   smooth      PW
     Min        1105     554    150                97744    34578    4918
     Max        1106     555    151                97745    34580    4920
     Sum        6633    3329    905               586467   207475   29511

     Using Slab Decomposition



     bravais-lattice index     =          -12
     lattice parameter (alat)  =      10.0136  a.u.
     unit-cell volume          =    3303.4414 (a.u.)^3
     number of atoms/cell      =           43
     number of atomic types    =            7
     number of electrons       =       248.00
     number of Kohn-Sham states=          149
     kinetic-energy cutoff     =      60.0000  Ry
     charge density cutoff     =     480.0000  Ry
     scf convergence threshold =      1.0E-06
     mixing beta               =       0.7000
     number of iterations used =            8  plain     mixing
     energy convergence thresh.=      1.0E-04
     force convergence thresh. =      1.0E-03
     Exchange-correlation= SLA  PW   PBX  PBC
                           (   1   4   3   4   0   0   0)
     nstep                     =           50


     celldm(1)=  10.013640  celldm(2)=   1.735306  celldm(3)=   1.926511
     celldm(4)=   0.000000  celldm(5)=  -0.177565  celldm(6)=   0.000000

     crystal axes: (cart. coord. in units of alat)
               a(1) = (   1.000000   0.000000   0.000000 )  
               a(2) = (   0.000000   1.735306   0.000000 )  
               a(3) = (  -0.342081   0.000000   1.895896 )  

     reciprocal axes: (cart. coord. in units 2 pi/alat)
               b(1) = (  1.000000 -0.000000  0.180432 )  
               b(2) = (  0.000000  0.576267 -0.000000 )  
               b(3) = (  0.000000  0.000000  0.527455 )  


     PseudoPot. # 1 for Al read from file:
     ./../../../pseudos/Al.pbe-n-kjpaw_psl.1.0.0.UPF
     MD5 check sum: 502b6b27b9c6270cab5dd1084b96fa6d
     Pseudo is Projector augmented-wave + core cor, Zval =  3.0
     Generated using &quot;atomic&quot; code by A. Dal Corso  v.6.3
     Shape of augmentation charge: PSQ
     Using radial grid of 1135 points,  6 beta functions with: 
                l(1) =   0
                l(2) =   0
                l(3) =   1
                l(4) =   1
                l(5) =   2
                l(6) =   2
     Q(r) pseudized with 0 coefficients 


     PseudoPot. # 2 for Ti read from file:
     ./../../../pseudos/Ti.pbe-spn-kjpaw_psl.1.0.0.UPF
     MD5 check sum: 01f69b0d8ba4438b2e03ac6ea4af1c0b
     Pseudo is Projector augmented-wave + core cor, Zval = 12.0
     Generated using &quot;atomic&quot; code by A. Dal Corso  v.6.2.2
     Shape of augmentation charge: PSQ
     Using radial grid of 1177 points,  6 beta functions with: 
                l(1) =   0
                l(2) =   0
                l(3) =   1
                l(4) =   1
                l(5) =   2
                l(6) =   2
     Q(r) pseudized with 0 coefficients 


     PseudoPot. # 3 for H  read from file:
     ./../../../pseudos/H.pbe-kjpaw_psl.1.0.0.UPF
     MD5 check sum: d81a744832360e4a8af0b0b5b123bc2a
     Pseudo is Projector augmented-wave, Zval =  1.0
     Generated using &quot;atomic&quot; code by A. Dal Corso  v.6.3MaX
     Shape of augmentation charge: PSQ
     Using radial grid of  929 points,  2 beta functions with: 
                l(1) =   0
                l(2) =   0
     Q(r) pseudized with 0 coefficients 


     PseudoPot. # 4 for K  read from file:
     ./../../../pseudos/K.pbe-spn-kjpaw_psl.1.0.0.UPF
     MD5 check sum: 34cc42130a09071ebe376fd42eb21491
     Pseudo is Projector augmented-wave + core cor, Zval =  9.0
     Generated using &quot;atomic&quot; code by A. Dal Corso  v.6.2.2
     Shape of augmentation charge: PSQ
     Using radial grid of 1165 points,  6 beta functions with: 
                l(1) =   0
                l(2) =   0
                l(3) =   1
                l(4) =   1
                l(5) =   2
                l(6) =   2
     Q(r) pseudized with 0 coefficients 


     PseudoPot. # 5 for Mg read from file:
     ./../../../pseudos/Mg.pbe-spnl-kjpaw_psl.1.0.0.UPF
     MD5 check sum: fda14e0d92a6a9a5ebed782e5a4b3067
     Pseudo is Projector augmented-wave + core cor, Zval = 10.0
     Generated using &quot;atomic&quot; code by A. Dal Corso  v.6.3
     Shape of augmentation charge: PSQ
     Using radial grid of 1129 points,  4 beta functions with: 
                l(1) =   0
                l(2) =   0
                l(3) =   1
                l(4) =   1
     Q(r) pseudized with 0 coefficients 


     PseudoPot. # 6 for O  read from file:
     ./../../../pseudos/O.pbe-n-kjpaw_psl.1.0.0.UPF
     MD5 check sum: e99d9cef9b487d1ca56f5b95ecd0fd7a
     Pseudo is Projector augmented-wave + core cor, Zval =  6.0
     Generated using &quot;atomic&quot; code by A. Dal Corso  v.6.3
     Shape of augmentation charge: PSQ
     Using radial grid of 1095 points,  4 beta functions with: 
                l(1) =   0
                l(2) =   0
                l(3) =   1
                l(4) =   1
     Q(r) pseudized with 0 coefficients 


     PseudoPot. # 7 for Si read from file:
     ./../../../pseudos/Si.pbe-n-kjpaw_psl.1.0.0.UPF
     MD5 check sum: c39c59da582df4a0d9f10159256ea34e
     Pseudo is Projector augmented-wave + core cor, Zval =  4.0
     Generated using &quot;atomic&quot; code by A. Dal Corso  v.6.3
     Shape of augmentation charge: PSQ
     Using radial grid of 1141 points,  6 beta functions with: 
                l(1) =   0
                l(2) =   0
                l(3) =   1
                l(4) =   1
                l(5) =   2
                l(6) =   2
     Q(r) pseudized with 0 coefficients 


     atomic species   valence    mass     pseudopotential
     Al                3.00    26.98154     Al( 1.00)
     Ti               12.00    47.86700     Ti( 1.00)
     H                 1.00     1.00794     H ( 1.00)
     K                 9.00    39.09830     K ( 1.00)
     Mg               10.00    24.30500     Mg( 1.00)
     O                 6.00    15.99940     O ( 1.00)
     Si                4.00    28.08550     Si( 1.00)

     Starting magnetic structure 
     atomic species   magnetization
     Al              0.000
     Ti              0.300
     H               0.000
     K               0.000
     Mg              0.000
     O               0.000
     Si              0.000

      2 Sym. Ops. (no inversion) found


                                    s                        frac. trans.

      isym =  1     identity                                     

 cryst.   s( 1) = (     1          0          0      )
                  (     0          1          0      )
                  (     0          0          1      )

 cart.    s( 1) = (  1.0000000  0.0000000 -0.0000000 )
                  (  0.0000000  1.0000000  0.0000000 )
                  (  0.0000000  0.0000000  1.0000000 )


      isym =  2     180 deg rotation - cart. axis [0,1,0]        

 cryst.   s( 2) = (    -1          0          0      )
                  (     0          1          0      )
                  (     0          0         -1      )

 cart.    s( 2) = ( -1.0000000  0.0000000  0.0000000 )
                  (  0.0000000  1.0000000  0.0000000 )
                  (  0.0000000  0.0000000 -1.0000000 )


     point group C_2  (2)   
     there are  2 classes
     the character table:

       E     C2   
A      1.00  1.00
B      1.00 -1.00

     the symmetry operations in each class and the name of the first element:

     E        1
          identity                                               
     C2       2
          180 deg rotation - cart. axis [0,1,0]                  

   Cartesian axes

     site n.     atom                  positions (alat units)
         1        K      tau(   1) = (   0.0000000   0.8559224   0.0000000  )
         2        K      tau(   2) = (   0.5000000   0.0093568   0.0000000  )
         3        Mg     tau(   3) = (  -0.1710407   1.1543881   0.9479482  )
         4        Mg     tau(   4) = (   0.3289593   0.8562226   0.9479482  )
         5        Mg     tau(   5) = (   0.3289593   1.4480089   0.9479482  )
         6        Mg     tau(   6) = (   0.3289593   0.2986375   0.9479482  )
         7        Si     tau(   7) = (   0.0066674   0.2865251   0.4219393  )
         8        Si     tau(   8) = (   0.6512512   0.2865251   1.4739571  )
         9        Si     tau(   9) = (   0.6701371   1.4476688   1.4628623  )
        10        Si     tau(  10) = (  -0.0122184   1.4476688   0.4330341  )
        11        Si     tau(  11) = (   0.4872056   1.1568454   0.4292651  )
        12        Si     tau(  12) = (   0.1707131   1.1568454   1.4666313  )
        13        Al     tau(  13) = (   0.1506005   0.5746762   1.4713786  )
        14        Al     tau(  14) = (   0.5073182   0.5746762   0.4245178  )
        15        O      tau(  15) = (  -0.0043508   0.2833738   0.7297400  )
        16        O      tau(  16) = (   0.6622695   0.2833738   1.1661564  )
        17        O      tau(  17) = (   0.6658139   1.4451231   1.1576912  )
        18        O      tau(  18) = (  -0.0078952   1.4451231   0.7382052  )
        19        O      tau(  19) = (   0.4926234   1.1618863   0.7357690  )
        20        O      tau(  20) = (   0.1652953   1.1618863   1.1601274  )
        21        O      tau(  21) = (   0.1548298   0.5779784   1.1454267  )
        22        O      tau(  22) = (   0.5030889   0.5779784   0.7504697  )
        23        O      tau(  23) = (   0.2847398   0.3548857   0.3143567  )
        24        O      tau(  24) = (   0.3731789   0.3548857   1.5815397  )
        25        O      tau(  25) = (   0.9404978   1.7303189   0.3181314  )
        26        O      tau(  26) = (  -0.2825791   1.7303189   1.5777650  )
        27        O      tau(  27) = (   0.3988927   1.3439356   1.5754330  )
        28        O      tau(  28) = (   0.2590260   1.3439356   0.3204634  )
        29        O      tau(  29) = (   0.7582660   1.2710892   0.3185125  )
        30        O      tau(  30) = (  -0.1003473   1.2710892   1.5773839  )
        31        O      tau(  31) = (   0.4432368   0.8811364   0.3085875  )
        32        O      tau(  32) = (   0.2146819   0.8811364   1.5873090  )
        33        O      tau(  33) = (  -0.1423236   0.4782556   1.5925436  )
        34        O      tau(  34) = (   0.8002423   0.4782556   0.3033529  )
        35        O      tau(  35) = (  -0.0041068   0.8750247   0.7469263  )
        36        O      tau(  36) = (   0.6620255   0.8750247   1.1489701  )
        37        O      tau(  37) = (   0.4966158   1.7335917   0.7534577  )
        38        O      tau(  38) = (   0.1613029   1.7335917   1.1424387  )
        39        H      tau(  39) = (  -0.0032097   0.8603995   0.5673129  )
        40        H      tau(  40) = (   0.6611284   0.8603995   1.3285835  )
        41        H      tau(  41) = (   0.4926802   0.0219534   0.5746291  )
        42        H      tau(  42) = (   0.1652385   0.0219534   1.3212673  )
        43        Ti     tau(  43) = (  -0.1710407   0.0067712   0.9479482  )

     --------------------------------------------
     DFT-D3 Dispersion Correction (3-body terms):
     --------------------------------------------
       Reference C6 values for interpolation: 

         atom   Coordination number   C6
         H          0.912             6.05
         H          0.000            15.18
         O          0.000            31.01
         O          0.993            25.63
         O          1.989            20.74
         Mg         0.000          1366.75
         Mg         0.963           902.54
         Mg         1.950           351.12
         Al         0.000          1081.08
         Al         0.965           875.51
         Al         1.931           513.50
         Al         2.915           307.19
         Si         0.000           635.71
         Si         0.951           540.53
         Si         1.944           466.25
         Si         2.941           443.01
         Si         3.868           299.55
         K          0.000          9967.00
         K          0.977           676.04
         Ti         0.000          2723.84
         Ti         1.830           604.00
         Ti         3.868           643.18

       Values used:

         atom   Coordination number  R0_AB[au]  C6      C8
         K         13.574            4.007    676.04 129074.98
         K         13.815            4.007    676.04 129074.98
         Mg        10.947            3.292    351.12  31436.69
         Mg        10.412            3.292    351.12  31436.69
         Mg        11.683            3.292    351.12  31436.69
         Mg        10.506            3.292    351.12  31436.69
         Si         6.720            3.583    299.55  21425.58
         Si         6.720            3.583    299.55  21425.58
         Si         6.506            3.583    299.55  21425.58
         Si         6.506            3.583    299.55  21425.58
         Si         6.589            3.583    299.55  21425.58
         Si         6.589            3.583    299.55  21425.58
         Al         7.459            3.789    307.19  29441.29
         Al         7.459            3.789    307.19  29441.29
         O          2.977            2.345     20.74    418.58
         O          2.977            2.345     20.74    418.58
         O          3.913            2.345     20.74    418.58
         O          3.913            2.345     20.74    418.58
         O          3.906            2.345     20.74    418.58
         O          3.906            2.345     20.74    418.58
         O          3.005            2.345     20.74    418.58
         O          3.005            2.345     20.74    418.58
         O          3.190            2.345     20.74    418.58
         O          3.190            2.345     20.74    418.58
         O          3.151            2.345     20.74    418.58
         O          3.151            2.345     20.74    418.58
         O          3.055            2.345     20.74    418.58
         O          3.055            2.345     20.74    418.58
         O          3.059            2.345     20.74    418.58
         O          3.059            2.345     20.74    418.58
         O          3.188            2.345     20.74    418.58
         O          3.188            2.345     20.74    418.58
         O          3.251            2.345     20.74    418.58
         O          3.251            2.345     20.74    418.58
         O          3.046            2.345     20.74    418.58
         O          3.046            2.345     20.74    418.58
         O          3.987            2.345     20.74    418.58
         O          3.987            2.345     20.74    418.58
         H          1.291            2.062      6.07     73.36
         H          1.291            2.062      6.07     73.36
         H          1.293            2.062      6.07     73.36
         H          1.293            2.062      6.07     73.36
         Ti        10.589            3.557    643.18  76289.64

         Molecular C6 ( Ry / a.u.^6 ) =    158916.34


   Crystallographic axes

     site n.     atom                  positions (cryst. coord.)
         1        K      tau(   1) = (  0.0000000  0.4932400  0.0000000  )
         2        K      tau(   2) = (  0.5000000  0.0053920  0.0000000  )
         3        Mg     tau(   3) = (  0.0000000  0.6652360  0.5000000  )
         4        Mg     tau(   4) = (  0.5000000  0.4934130  0.5000000  )
         5        Mg     tau(   5) = (  0.5000000  0.8344400  0.5000000  )
         6        Mg     tau(   6) = (  0.5000000  0.1720950  0.5000000  )
         7        Si     tau(   7) = (  0.0827990  0.1651150  0.2225540  )
         8        Si     tau(   8) = (  0.9172010  0.1651150  0.7774460  )
         9        Si     tau(   9) = (  0.9340850  0.8342440  0.7715940  )
        10        Si     tau(  10) = (  0.0659150  0.8342440  0.2284060  )
        11        Si     tau(  11) = (  0.5646590  0.6666520  0.2264180  )
        12        Si     tau(  12) = (  0.4353410  0.6666520  0.7735820  )
        13        Al     tau(  13) = (  0.4160850  0.3311670  0.7760860  )
        14        Al     tau(  14) = (  0.5839150  0.3311670  0.2239140  )
        15        O      tau(  15) = (  0.1273180  0.1632990  0.3849050  )
        16        O      tau(  16) = (  0.8726820  0.1632990  0.6150950  )
        17        O      tau(  17) = (  0.8746990  0.8327770  0.6106300  )
        18        O      tau(  18) = (  0.1253010  0.8327770  0.3893700  )
        19        O      tau(  19) = (  0.6253800  0.6695570  0.3880850  )
        20        O      tau(  20) = (  0.3746200  0.6695570  0.6119150  )
        21        O      tau(  21) = (  0.3615020  0.3330700  0.6041610  )
        22        O      tau(  22) = (  0.6384980  0.3330700  0.3958390  )
        23        O      tau(  23) = (  0.3414600  0.2045090  0.1658090  )
        24        O      tau(  24) = (  0.6585400  0.2045090  0.8341910  )
        25        O      tau(  25) = (  0.9978990  0.9971260  0.1678000  )
        26        O      tau(  26) = (  0.0021010  0.9971260  0.8322000  )
        27        O      tau(  27) = (  0.6831520  0.7744660  0.8309700  )
        28        O      tau(  28) = (  0.3168480  0.7744660  0.1690300  )
        29        O      tau(  29) = (  0.8157360  0.7324870  0.1680010  )
        30        O      tau(  30) = (  0.1842640  0.7324870  0.8319990  )
        31        O      tau(  31) = (  0.4989160  0.5077700  0.1627660  )
        32        O      tau(  32) = (  0.5010840  0.5077700  0.8372340  )
        33        O      tau(  33) = (  0.1450230  0.2756030  0.8399950  )
        34        O      tau(  34) = (  0.8549770  0.2756030  0.1600050  )
        35        O      tau(  35) = (  0.1306630  0.5042480  0.3939700  )
        36        O      tau(  36) = (  0.8693370  0.5042480  0.6060300  )
        37        O      tau(  37) = (  0.6325640  0.9990120  0.3974150  )
        38        O      tau(  38) = (  0.3674360  0.9990120  0.6025850  )
        39        H      tau(  39) = (  0.0991520  0.4958200  0.2992320  )
        40        H      tau(  40) = (  0.9008480  0.4958200  0.7007680  )
        41        H      tau(  41) = (  0.5963620  0.0126510  0.3030910  )
        42        H      tau(  42) = (  0.4036380  0.0126510  0.6969090  )
        43        Ti     tau(  43) = (  0.0000000  0.0039020  0.5000000  )

     number of k points=    20  Gaussian smearing, width (Ry)=  0.0010
                       cart. coord. in units 2pi/alat
        k(    1) = (   0.0000000   0.0000000   0.0000000), wk =   0.0185185
        k(    2) = (   0.0000000   0.0000000   0.1758183), wk =   0.0370370
        k(    3) = (   0.0000000   0.1920891   0.0000000), wk =   0.0370370
        k(    4) = (   0.0000000   0.1920891   0.1758183), wk =   0.0740741
        k(    5) = (   0.1666667   0.0000000   0.0300721), wk =   0.0370370
        k(    6) = (   0.1666667   0.0000000   0.2058904), wk =   0.0370370
        k(    7) = (   0.1666667   0.0000000  -0.1457462), wk =   0.0370370
        k(    8) = (   0.1666667   0.1920891   0.0300721), wk =   0.0740741
        k(    9) = (   0.1666667   0.1920891   0.2058904), wk =   0.0740741
        k(   10) = (   0.1666667   0.1920891  -0.1457462), wk =   0.0740741
        k(   11) = (   0.3333333   0.0000000   0.0601442), wk =   0.0370370
        k(   12) = (   0.3333333   0.0000000   0.2359625), wk =   0.0370370
        k(   13) = (   0.3333333   0.0000000  -0.1156742), wk =   0.0370370
        k(   14) = (   0.3333333   0.1920891   0.0601442), wk =   0.0740741
        k(   15) = (   0.3333333   0.1920891   0.2359625), wk =   0.0740741
        k(   16) = (   0.3333333   0.1920891  -0.1156742), wk =   0.0740741
        k(   17) = (  -0.5000000   0.0000000  -0.0902162), wk =   0.0185185
        k(   18) = (  -0.5000000   0.0000000   0.0856021), wk =   0.0370370
        k(   19) = (  -0.5000000   0.1920891  -0.0902162), wk =   0.0370370
        k(   20) = (  -0.5000000   0.1920891   0.0856021), wk =   0.0740741

                       cryst. coord.
        k(    1) = (   0.0000000   0.0000000   0.0000000), wk =   0.0185185
        k(    2) = (   0.0000000   0.0000000   0.3333333), wk =   0.0370370
        k(    3) = (   0.0000000   0.3333333   0.0000000), wk =   0.0370370
        k(    4) = (   0.0000000   0.3333333   0.3333333), wk =   0.0740741
        k(    5) = (   0.1666667   0.0000000  -0.0000000), wk =   0.0370370
        k(    6) = (   0.1666667   0.0000000   0.3333333), wk =   0.0370370
        k(    7) = (   0.1666667   0.0000000  -0.3333333), wk =   0.0370370
        k(    8) = (   0.1666667   0.3333333  -0.0000000), wk =   0.0740741
        k(    9) = (   0.1666667   0.3333333   0.3333333), wk =   0.0740741
        k(   10) = (   0.1666667   0.3333333  -0.3333333), wk =   0.0740741
        k(   11) = (   0.3333333   0.0000000  -0.0000000), wk =   0.0370370
        k(   12) = (   0.3333333   0.0000000   0.3333333), wk =   0.0370370
        k(   13) = (   0.3333333   0.0000000  -0.3333333), wk =   0.0370370
        k(   14) = (   0.3333333   0.3333333  -0.0000000), wk =   0.0740741
        k(   15) = (   0.3333333   0.3333333   0.3333333), wk =   0.0740741
        k(   16) = (   0.3333333   0.3333333  -0.3333333), wk =   0.0740741
        k(   17) = (  -0.5000000   0.0000000   0.0000000), wk =   0.0185185
        k(   18) = (  -0.5000000   0.0000000   0.3333333), wk =   0.0370370
        k(   19) = (  -0.5000000   0.3333333   0.0000000), wk =   0.0370370
        k(   20) = (  -0.5000000   0.3333333   0.3333333), wk =   0.0740741

     Dense  grid:   586467 G-vectors     FFT dimensions: (  72, 125, 135)

     Smooth grid:   207475 G-vectors     FFT dimensions: (  50,  90,  96)

     Dynamical RAM for                 wfc:       9.82 MB

     Dynamical RAM for     wfc (w. buffer):     402.79 MB

     Dynamical RAM for           str. fact:      10.44 MB

     Dynamical RAM for           local pot:       0.00 MB

     Dynamical RAM for          nlocal pot:      28.35 MB

     Dynamical RAM for                qrad:      12.30 MB

     Dynamical RAM for          rho,v,vnew:      18.42 MB

     Dynamical RAM for               rhoin:       6.14 MB

     Dynamical RAM for            rho*nmix:      47.73 MB

     Dynamical RAM for           G-vectors:       5.86 MB

     Dynamical RAM for          h,s,v(r/c):       4.07 MB

     Dynamical RAM for          <psi|beta>:       0.98 MB

     Dynamical RAM for                 psi:      19.65 MB

     Dynamical RAM for                hpsi:      19.65 MB

     Dynamical RAM for                spsi:      19.65 MB

     Dynamical RAM for      wfcinit/wfcrot:      24.20 MB

     Dynamical RAM for           addusdens:     314.70 MB

     Dynamical RAM for          addusforce:     383.50 MB

     Estimated static dynamical RAM per process >     505.71 MB

     Estimated max dynamical RAM per process >     936.93 MB

     Estimated total dynamical RAM >       5.49 GB

     Check: negative core charge=   -0.000004
     Generating pointlists ...
     new r_m :   0.1345 (alat units)  1.3466 (a.u.) for type    1
     new r_m :   0.1589 (alat units)  1.5910 (a.u.) for type    2
     new r_m :   0.0743 (alat units)  0.7444 (a.u.) for type    3
     new r_m :   0.2122 (alat units)  2.1246 (a.u.) for type    4
     new r_m :   0.1578 (alat units)  1.5800 (a.u.) for type    5
     new r_m :   0.0743 (alat units)  0.7444 (a.u.) for type    6
     new r_m :   0.1255 (alat units)  1.2564 (a.u.) for type    7

     Initial potential from superposition of free atoms

     starting charge     247.9492, renormalised to     248.0000
     Starting wfcs are  178 randomized atomic wfcs
     Checking if some PAW data can be deallocated... 
       PAW data deallocated on    5 nodes for type:  1
       PAW data deallocated on    5 nodes for type:  2
       PAW data deallocated on    5 nodes for type:  3
       PAW data deallocated on    5 nodes for type:  4
       PAW data deallocated on    5 nodes for type:  5
       PAW data deallocated on    1 nodes for type:  6
       PAW data deallocated on    4 nodes for type:  7

     total cpu time spent up to now is      337.3 secs

     Self-consistent Calculation

     iteration #  1     ecut=    60.00 Ry     beta= 0.70
     Davidson diagonalization with overlap

---- Real-time Memory Report at c_bands before calling an iterative solver
           565 MiB given to the printing process from OS
             0 MiB allocation reported by mallinfo(arena+hblkhd)
           348 MiB available memory on the node where the printing process lives
------------------
     ethr =  1.00E-02,  avg # of iterations =  5.5

     total cpu time spent up to now is     1327.5 secs

     total energy              =   -2335.18040471 Ry
     estimated scf accuracy    <      14.36164314 Ry

     total magnetization       =    -0.00 Bohr mag/cell
     absolute magnetization    =     0.40 Bohr mag/cell

     iteration #  2     ecut=    60.00 Ry     beta= 0.70
     Davidson diagonalization with overlap

---- Real-time Memory Report at c_bands before calling an iterative solver
           861 MiB given to the printing process from OS
             0 MiB allocation reported by mallinfo(arena+hblkhd)
          1863 MiB available memory on the node where the printing process lives
------------------
     ethr =  5.79E-03,  avg # of iterations =  8.3

     total cpu time spent up to now is     2800.8 secs

     total energy              =   -2326.67491380 Ry
     estimated scf accuracy    <     112.04187479 Ry

     total magnetization       =    -0.02 Bohr mag/cell
     absolute magnetization    =     0.82 Bohr mag/cell

     iteration #  3     ecut=    60.00 Ry     beta= 0.70
     Davidson diagonalization with overlap

---- Real-time Memory Report at c_bands before calling an iterative solver
           864 MiB given to the printing process from OS
             0 MiB allocation reported by mallinfo(arena+hblkhd)
          1812 MiB available memory on the node where the printing process lives
------------------
     ethr =  5.79E-03,  avg # of iterations =  4.9

     total cpu time spent up to now is     3827.1 secs

     total energy              =   -2342.44719237 Ry
     estimated scf accuracy    <      11.63758135 Ry

     total magnetization       =     0.03 Bohr mag/cell
     absolute magnetization    =     0.56 Bohr mag/cell

     iteration #  4     ecut=    60.00 Ry     beta= 0.70
     Davidson diagonalization with overlap

---- Real-time Memory Report at c_bands before calling an iterative solver
           866 MiB given to the printing process from OS
             0 MiB allocation reported by mallinfo(arena+hblkhd)
          1800 MiB available memory on the node where the printing process lives
------------------
     ethr =  4.69E-03,  avg # of iterations =  2.0

     total cpu time spent up to now is     4652.1 secs

     total energy              =   -2342.84082227 Ry
     estimated scf accuracy    <       2.89814413 Ry

     total magnetization       =     0.00 Bohr mag/cell
     absolute magnetization    =     0.54 Bohr mag/cell

     iteration #  5     ecut=    60.00 Ry     beta= 0.70
     Davidson diagonalization with overlap

---- Real-time Memory Report at c_bands before calling an iterative solver
           868 MiB given to the printing process from OS
             0 MiB allocation reported by mallinfo(arena+hblkhd)
          1798 MiB available memory on the node where the printing process lives
------------------
     ethr =  1.17E-03,  avg # of iterations =  6.7

     total cpu time spent up to now is     5905.8 secs

     total energy              =   -2343.94760709 Ry
     estimated scf accuracy    <       1.14483726 Ry

     total magnetization       =     0.00 Bohr mag/cell
     absolute magnetization    =     0.23 Bohr mag/cell

     iteration #  6     ecut=    60.00 Ry     beta= 0.70
     Davidson diagonalization with overlap

---- Real-time Memory Report at c_bands before calling an iterative solver
           871 MiB given to the printing process from OS
             0 MiB allocation reported by mallinfo(arena+hblkhd)
          1784 MiB available memory on the node where the printing process lives
------------------
     ethr =  4.62E-04,  avg # of iterations = 10.5

     total cpu time spent up to now is     6867.9 secs

     total energy              =   -2343.90752658 Ry
     estimated scf accuracy    <       0.58221485 Ry

     total magnetization       =    -0.00 Bohr mag/cell
     absolute magnetization    =     0.18 Bohr mag/cell

     iteration #  7     ecut=    60.00 Ry     beta= 0.70
     Davidson diagonalization with overlap

---- Real-time Memory Report at c_bands before calling an iterative solver
           873 MiB given to the printing process from OS
             0 MiB allocation reported by mallinfo(arena+hblkhd)
          1788 MiB available memory on the node where the printing process lives
------------------
     ethr =  2.35E-04,  avg # of iterations =  7.9

     total cpu time spent up to now is     7905.8 secs

     total energy              =   -2343.96410124 Ry
     estimated scf accuracy    <       0.08841880 Ry

     total magnetization       =     0.00 Bohr mag/cell
     absolute magnetization    =     0.15 Bohr mag/cell

     iteration #  8     ecut=    60.00 Ry     beta= 0.70
     Davidson diagonalization with overlap

---- Real-time Memory Report at c_bands before calling an iterative solver
           875 MiB given to the printing process from OS
             0 MiB allocation reported by mallinfo(arena+hblkhd)
          1761 MiB available memory on the node where the printing process lives
------------------
     c_bands:  4 eigenvalues not converged
     c_bands:  4 eigenvalues not converged
     c_bands:  1 eigenvalues not converged
     c_bands:  1 eigenvalues not converged
     c_bands:  2 eigenvalues not converged
     c_bands:  1 eigenvalues not converged
     c_bands:  2 eigenvalues not converged
     c_bands:  2 eigenvalues not converged
     c_bands:  3 eigenvalues not converged
     ethr =  3.57E-05,  avg # of iterations = 14.7

     total cpu time spent up to now is     9251.5 secs

     total energy              =   -2344.02284239 Ry
     estimated scf accuracy    <       1.82583553 Ry

     total magnetization       =     0.02 Bohr mag/cell
     absolute magnetization    =     0.13 Bohr mag/cell

     iteration #  9     ecut=    60.00 Ry     beta= 0.70
     Davidson diagonalization with overlap

---- Real-time Memory Report at c_bands before calling an iterative solver
           875 MiB given to the printing process from OS
             0 MiB allocation reported by mallinfo(arena+hblkhd)
          2055 MiB available memory on the node where the printing process lives
------------------
     ethr =  3.57E-05,  avg # of iterations =  1.6

     total cpu time spent up to now is    10012.2 secs

     total energy              =   -2344.02685175 Ry
     estimated scf accuracy    <       2.16338835 Ry

     total magnetization       =     0.04 Bohr mag/cell
     absolute magnetization    =     0.12 Bohr mag/cell

     iteration # 10     ecut=    60.00 Ry     beta= 0.70
     Davidson diagonalization with overlap

---- Real-time Memory Report at c_bands before calling an iterative solver
           875 MiB given to the printing process from OS
             0 MiB allocation reported by mallinfo(arena+hblkhd)
          2057 MiB available memory on the node where the printing process lives
------------------
     ethr =  3.57E-05,  avg # of iterations =  1.3

     total cpu time spent up to now is    10734.0 secs

     total energy              =   -2344.02040202 Ry
     estimated scf accuracy    <       2.35141377 Ry

     total magnetization       =     0.06 Bohr mag/cell
     absolute magnetization    =     0.15 Bohr mag/cell

     iteration # 11     ecut=    60.00 Ry     beta= 0.70
     Davidson diagonalization with overlap

---- Real-time Memory Report at c_bands before calling an iterative solver
           875 MiB given to the printing process from OS
             0 MiB allocation reported by mallinfo(arena+hblkhd)
          2055 MiB available memory on the node where the printing process lives
------------------
     ethr =  3.57E-05,  avg # of iterations =  1.4

     total cpu time spent up to now is    11463.4 secs

     total energy              =   -2343.96058628 Ry
     estimated scf accuracy    <       2.10287958 Ry

     total magnetization       =     0.11 Bohr mag/cell
     absolute magnetization    =     0.34 Bohr mag/cell

     iteration # 12     ecut=    60.00 Ry     beta= 0.70
     Davidson diagonalization with overlap

---- Real-time Memory Report at c_bands before calling an iterative solver
           875 MiB given to the printing process from OS
             0 MiB allocation reported by mallinfo(arena+hblkhd)
          2060 MiB available memory on the node where the printing process lives
------------------
     ethr =  3.57E-05,  avg # of iterations =  2.0

     total cpu time spent up to now is    12261.2 secs

     total energy              =   -2344.00349959 Ry
     estimated scf accuracy    <       0.11258033 Ry

     total magnetization       =    -0.00 Bohr mag/cell
     absolute magnetization    =     1.40 Bohr mag/cell

     iteration # 13     ecut=    60.00 Ry     beta= 0.70
     Davidson diagonalization with overlap

---- Real-time Memory Report at c_bands before calling an iterative solver
           875 MiB given to the printing process from OS
             0 MiB allocation reported by mallinfo(arena+hblkhd)
          2055 MiB available memory on the node where the printing process lives
------------------
     ethr =  3.57E-05,  avg # of iterations =  1.3

     total cpu time spent up to now is    12985.6 secs

     total energy              =   -2344.00704829 Ry
     estimated scf accuracy    <       0.22487610 Ry

     total magnetization       =     0.00 Bohr mag/cell
     absolute magnetization    =     1.78 Bohr mag/cell

     iteration # 14     ecut=    60.00 Ry     beta= 0.70
     Davidson diagonalization with overlap

---- Real-time Memory Report at c_bands before calling an iterative solver
           875 MiB given to the printing process from OS
             0 MiB allocation reported by mallinfo(arena+hblkhd)
          2047 MiB available memory on the node where the printing process lives
------------------
     ethr =  3.57E-05,  avg # of iterations =  1.1

     total cpu time spent up to now is    13684.3 secs

     total energy              =   -2344.00310890 Ry
     estimated scf accuracy    <       0.25367568 Ry

     total magnetization       =    -0.00 Bohr mag/cell
     absolute magnetization    =     1.79 Bohr mag/cell

     iteration # 15     ecut=    60.00 Ry     beta= 0.70
     Davidson diagonalization with overlap

---- Real-time Memory Report at c_bands before calling an iterative solver
           875 MiB given to the printing process from OS
             0 MiB allocation reported by mallinfo(arena+hblkhd)
          2051 MiB available memory on the node where the printing process lives
------------------
     ethr =  3.57E-05,  avg # of iterations =  1.2

     total cpu time spent up to now is    14398.7 secs

     total energy              =   -2343.99056112 Ry
     estimated scf accuracy    <       0.07530915 Ry

     total magnetization       =     0.00 Bohr mag/cell
     absolute magnetization    =     1.03 Bohr mag/cell

     iteration # 16     ecut=    60.00 Ry     beta= 0.70
     Davidson diagonalization with overlap

---- Real-time Memory Report at c_bands before calling an iterative solver
           875 MiB given to the printing process from OS
             0 MiB allocation reported by mallinfo(arena+hblkhd)
          2059 MiB available memory on the node where the printing process lives
------------------
     ethr =  3.04E-05,  avg # of iterations =  1.6

     total cpu time spent up to now is    15148.5 secs

     total energy              =   -2344.00461429 Ry
     estimated scf accuracy    <       0.09534969 Ry

     total magnetization       =     0.00 Bohr mag/cell
     absolute magnetization    =     0.12 Bohr mag/cell

     iteration # 17     ecut=    60.00 Ry     beta= 0.70
     Davidson diagonalization with overlap

---- Real-time Memory Report at c_bands before calling an iterative solver
           875 MiB given to the printing process from OS
             0 MiB allocation reported by mallinfo(arena+hblkhd)
          2046 MiB available memory on the node where the printing process lives
------------------
     ethr =  3.04E-05,  avg # of iterations =  1.0

     total cpu time spent up to now is    15842.2 secs

     total energy              =   -2343.99885375 Ry
     estimated scf accuracy    <       0.08805324 Ry

     total magnetization       =    -0.00 Bohr mag/cell
     absolute magnetization    =     0.11 Bohr mag/cell

     iteration # 18     ecut=    60.00 Ry     beta= 0.70
     Davidson diagonalization with overlap

---- Real-time Memory Report at c_bands before calling an iterative solver
           875 MiB given to the printing process from OS
             0 MiB allocation reported by mallinfo(arena+hblkhd)
          2038 MiB available memory on the node where the printing process lives
------------------
     ethr =  3.04E-05,  avg # of iterations =  1.1

     total cpu time spent up to now is    16552.0 secs

     total energy              =   -2343.99981174 Ry
     estimated scf accuracy    <       0.05680299 Ry

     total magnetization       =    -0.00 Bohr mag/cell
     absolute magnetization    =     0.17 Bohr mag/cell

     iteration # 19     ecut=    60.00 Ry     beta= 0.70
     Davidson diagonalization with overlap

---- Real-time Memory Report at c_bands before calling an iterative solver
           875 MiB given to the printing process from OS
             0 MiB allocation reported by mallinfo(arena+hblkhd)
          2044 MiB available memory on the node where the printing process lives
------------------
     ethr =  2.29E-05,  avg # of iterations =  1.0

     total cpu time spent up to now is    17248.3 secs

     total energy              =   -2343.99857315 Ry
     estimated scf accuracy    <       0.05830395 Ry

     total magnetization       =     0.00 Bohr mag/cell
     absolute magnetization    =     0.09 Bohr mag/cell

     iteration # 20     ecut=    60.00 Ry     beta= 0.70
     Davidson diagonalization with overlap

---- Real-time Memory Report at c_bands before calling an iterative solver
           875 MiB given to the printing process from OS
             0 MiB allocation reported by mallinfo(arena+hblkhd)
          2054 MiB available memory on the node where the printing process lives
------------------
     ethr =  2.29E-05,  avg # of iterations =  1.1

     total cpu time spent up to now is    17949.4 secs

     total energy              =   -2343.99376898 Ry
     estimated scf accuracy    <       0.04136120 Ry

     total magnetization       =     0.00 Bohr mag/cell
     absolute magnetization    =     0.03 Bohr mag/cell

     iteration # 21     ecut=    60.00 Ry     beta= 0.70
     Davidson diagonalization with overlap

---- Real-time Memory Report at c_bands before calling an iterative solver
           875 MiB given to the printing process from OS
             0 MiB allocation reported by mallinfo(arena+hblkhd)
          2046 MiB available memory on the node where the printing process lives
------------------
     ethr =  1.67E-05,  avg # of iterations =  1.5

     total cpu time spent up to now is    18697.1 secs

     total energy              =   -2344.00786535 Ry
     estimated scf accuracy    <       0.36705801 Ry

     total magnetization       =     0.04 Bohr mag/cell
     absolute magnetization    =     1.78 Bohr mag/cell

     iteration # 22     ecut=    60.00 Ry     beta= 0.70
     Davidson diagonalization with overlap

---- Real-time Memory Report at c_bands before calling an iterative solver
           875 MiB given to the printing process from OS
             0 MiB allocation reported by mallinfo(arena+hblkhd)
          2052 MiB available memory on the node where the printing process lives
------------------
     ethr =  1.67E-05,  avg # of iterations =  1.1

     total cpu time spent up to now is    19398.4 secs

     total energy              =   -2343.99900294 Ry
     estimated scf accuracy    <       0.58870539 Ry

     total magnetization       =     0.30 Bohr mag/cell
     absolute magnetization    =     1.34 Bohr mag/cell

     iteration # 23     ecut=    60.00 Ry     beta= 0.70
     Davidson diagonalization with overlap

---- Real-time Memory Report at c_bands before calling an iterative solver
           875 MiB given to the printing process from OS
             0 MiB allocation reported by mallinfo(arena+hblkhd)
          2047 MiB available memory on the node where the printing process lives
------------------
     ethr =  1.67E-05,  avg # of iterations =  1.2

     total cpu time spent up to now is    20112.2 secs

     total energy              =   -2343.99647583 Ry
     estimated scf accuracy    <       0.34630539 Ry

     total magnetization       =     0.46 Bohr mag/cell
     absolute magnetization    =     0.96 Bohr mag/cell

     iteration # 24     ecut=    60.00 Ry     beta= 0.70
     Davidson diagonalization with overlap

---- Real-time Memory Report at c_bands before calling an iterative solver
           875 MiB given to the printing process from OS
             0 MiB allocation reported by mallinfo(arena+hblkhd)
          2043 MiB available memory on the node where the printing process lives
------------------
     ethr =  1.67E-05,  avg # of iterations =  1.0

     total cpu time spent up to now is    20805.7 secs

     total energy              =   -2343.99794697 Ry
     estimated scf accuracy    <       0.03029881 Ry

     total magnetization       =     0.20 Bohr mag/cell
     absolute magnetization    =     0.59 Bohr mag/cell

     iteration # 25     ecut=    60.00 Ry     beta= 0.70
     Davidson diagonalization with overlap

---- Real-time Memory Report at c_bands before calling an iterative solver
           875 MiB given to the printing process from OS
             0 MiB allocation reported by mallinfo(arena+hblkhd)
          2041 MiB available memory on the node where the printing process lives
------------------
     ethr =  1.22E-05,  avg # of iterations =  1.2

     total cpu time spent up to now is    21522.0 secs

     total energy              =   -2343.99862589 Ry
     estimated scf accuracy    <       0.01817959 Ry

     total magnetization       =     0.25 Bohr mag/cell
     absolute magnetization    =     0.43 Bohr mag/cell

     iteration # 26     ecut=    60.00 Ry     beta= 0.70
     Davidson diagonalization with overlap

---- Real-time Memory Report at c_bands before calling an iterative solver
           875 MiB given to the printing process from OS
             0 MiB allocation reported by mallinfo(arena+hblkhd)
          2050 MiB available memory on the node where the printing process lives
------------------
     ethr =  7.33E-06,  avg # of iterations =  1.2

     total cpu time spent up to now is    22241.5 secs

     total energy              =   -2343.99996370 Ry
     estimated scf accuracy    <       0.12054722 Ry

     total magnetization       =     0.55 Bohr mag/cell
     absolute magnetization    =     0.69 Bohr mag/cell

     iteration # 27     ecut=    60.00 Ry     beta= 0.70
     Davidson diagonalization with overlap

---- Real-time Memory Report at c_bands before calling an iterative solver
           875 MiB given to the printing process from OS
             0 MiB allocation reported by mallinfo(arena+hblkhd)
          2050 MiB available memory on the node where the printing process lives
------------------
     c_bands:  1 eigenvalues not converged
     ethr =  7.33E-06,  avg # of iterations =  1.7

     total cpu time spent up to now is    22959.9 secs

     total energy              =   -2343.99775063 Ry
     estimated scf accuracy    <       0.23456240 Ry

     total magnetization       =     0.64 Bohr mag/cell
     absolute magnetization    =     0.94 Bohr mag/cell

     iteration # 28     ecut=    60.00 Ry     beta= 0.70
     Davidson diagonalization with overlap

---- Real-time Memory Report at c_bands before calling an iterative solver
           875 MiB given to the printing process from OS
             0 MiB allocation reported by mallinfo(arena+hblkhd)
          2055 MiB available memory on the node where the printing process lives
------------------
     ethr =  7.33E-06,  avg # of iterations =  1.3

     total cpu time spent up to now is    23682.2 secs

     total energy              =   -2343.99892270 Ry
     estimated scf accuracy    <       0.07080505 Ry

     total magnetization       =     0.50 Bohr mag/cell
     absolute magnetization    =     0.55 Bohr mag/cell

     iteration # 29     ecut=    60.00 Ry     beta= 0.70
     Davidson diagonalization with overlap

---- Real-time Memory Report at c_bands before calling an iterative solver
           875 MiB given to the printing process from OS
             0 MiB allocation reported by mallinfo(arena+hblkhd)
          2046 MiB available memory on the node where the printing process lives
------------------
     ethr =  7.33E-06,  avg # of iterations =  1.1

     total cpu time spent up to now is    24397.7 secs

     total energy              =   -2343.99903765 Ry
     estimated scf accuracy    <       0.15709308 Ry

     total magnetization       =     0.60 Bohr mag/cell
     absolute magnetization    =     0.71 Bohr mag/cell

     iteration # 30     ecut=    60.00 Ry     beta= 0.70
     Davidson diagonalization with overlap

---- Real-time Memory Report at c_bands before calling an iterative solver
           875 MiB given to the printing process from OS
             0 MiB allocation reported by mallinfo(arena+hblkhd)
          2037 MiB available memory on the node where the printing process lives
------------------
     ethr =  7.33E-06,  avg # of iterations =  1.1

     total cpu time spent up to now is    25108.0 secs

     total energy              =   -2343.99814868 Ry
     estimated scf accuracy    <       0.15961288 Ry

     total magnetization       =     0.63 Bohr mag/cell
     absolute magnetization    =     0.72 Bohr mag/cell

     iteration # 31     ecut=    60.00 Ry     beta= 0.70
     Davidson diagonalization with overlap

---- Real-time Memory Report at c_bands before calling an iterative solver
           875 MiB given to the printing process from OS
             0 MiB allocation reported by mallinfo(arena+hblkhd)
          2042 MiB available memory on the node where the printing process lives
------------------
     c_bands:  2 eigenvalues not converged
     ethr =  7.33E-06,  avg # of iterations =  1.8

     total cpu time spent up to now is    25837.6 secs

     total energy              =   -2343.99595479 Ry
     estimated scf accuracy    <       0.15846044 Ry

     total magnetization       =     0.39 Bohr mag/cell
     absolute magnetization    =     0.59 Bohr mag/cell

     iteration # 32     ecut=    60.00 Ry     beta= 0.70
     Davidson diagonalization with overlap

---- Real-time Memory Report at c_bands before calling an iterative solver
           875 MiB given to the printing process from OS
             0 MiB allocation reported by mallinfo(arena+hblkhd)
          2031 MiB available memory on the node where the printing process lives
------------------
     c_bands:  1 eigenvalues not converged
     ethr =  7.33E-06,  avg # of iterations =  1.6

     total cpu time spent up to now is    26550.2 secs

     total energy              =   -2343.99756066 Ry
     estimated scf accuracy    <       0.00318087 Ry

     total magnetization       =     0.05 Bohr mag/cell
     absolute magnetization    =     0.10 Bohr mag/cell

     iteration # 33     ecut=    60.00 Ry     beta= 0.70
     Davidson diagonalization with overlap

---- Real-time Memory Report at c_bands before calling an iterative solver
           875 MiB given to the printing process from OS
             0 MiB allocation reported by mallinfo(arena+hblkhd)
          2033 MiB available memory on the node where the printing process lives
------------------
     c_bands:  2 eigenvalues not converged
     c_bands:  1 eigenvalues not converged
     c_bands:  1 eigenvalues not converged
     c_bands:  1 eigenvalues not converged
     c_bands:  2 eigenvalues not converged
     c_bands:  1 eigenvalues not converged
     c_bands:  1 eigenvalues not converged
     c_bands:  2 eigenvalues not converged
     ethr =  1.28E-06,  avg # of iterations =  6.6

     total cpu time spent up to now is    27348.0 secs

     total energy              =   -2343.99767227 Ry
     estimated scf accuracy    <       0.00028907 Ry

     total magnetization       =     0.03 Bohr mag/cell
     absolute magnetization    =     0.05 Bohr mag/cell

     iteration # 34     ecut=    60.00 Ry     beta= 0.70
     Davidson diagonalization with overlap

---- Real-time Memory Report at c_bands before calling an iterative solver
           875 MiB given to the printing process from OS
             0 MiB allocation reported by mallinfo(arena+hblkhd)
          2040 MiB available memory on the node where the printing process lives
------------------
     c_bands:  2 eigenvalues not converged
     c_bands:  1 eigenvalues not converged
     c_bands:  1 eigenvalues not converged
     ethr =  1.17E-07,  avg # of iterations =  3.0

     total cpu time spent up to now is    28094.5 secs

     total energy              =   -2343.99768747 Ry
     estimated scf accuracy    <       0.00011786 Ry

     total magnetization       =     0.05 Bohr mag/cell
     absolute magnetization    =     0.07 Bohr mag/cell

     iteration # 35     ecut=    60.00 Ry     beta= 0.70
     Davidson diagonalization with overlap

---- Real-time Memory Report at c_bands before calling an iterative solver
           875 MiB given to the printing process from OS
             0 MiB allocation reported by mallinfo(arena+hblkhd)
          2038 MiB available memory on the node where the printing process lives
------------------
     c_bands:  1 eigenvalues not converged
     ethr =  4.75E-08,  avg # of iterations =  2.1

     total cpu time spent up to now is    28861.6 secs

     total energy              =   -2343.99769129 Ry
     estimated scf accuracy    <       0.00000396 Ry

     total magnetization       =     0.03 Bohr mag/cell
     absolute magnetization    =     0.06 Bohr mag/cell

     iteration # 36     ecut=    60.00 Ry     beta= 0.70
     Davidson diagonalization with overlap

---- Real-time Memory Report at c_bands before calling an iterative solver
           875 MiB given to the printing process from OS
             0 MiB allocation reported by mallinfo(arena+hblkhd)
          2046 MiB available memory on the node where the printing process lives
------------------
     c_bands:  1 eigenvalues not converged
     c_bands:  1 eigenvalues not converged
     c_bands:  2 eigenvalues not converged
     c_bands:  1 eigenvalues not converged
     ethr =  1.60E-09,  avg # of iterations = 10.3

     total cpu time spent up to now is    30636.2 secs

     total energy              =   -2343.99769513 Ry
     estimated scf accuracy    <       0.00000630 Ry

     total magnetization       =     0.03 Bohr mag/cell
     absolute magnetization    =     0.06 Bohr mag/cell

     iteration # 37     ecut=    60.00 Ry     beta= 0.70
     Davidson diagonalization with overlap

---- Real-time Memory Report at c_bands before calling an iterative solver
           875 MiB given to the printing process from OS
             0 MiB allocation reported by mallinfo(arena+hblkhd)
          2037 MiB available memory on the node where the printing process lives
------------------
     ethr =  1.60E-09,  avg # of iterations =  1.9

     total cpu time spent up to now is    31418.7 secs

     total energy              =   -2343.99769475 Ry
     estimated scf accuracy    <       0.00002391 Ry

     total magnetization       =     0.03 Bohr mag/cell
     absolute magnetization    =     0.06 Bohr mag/cell

     iteration # 38     ecut=    60.00 Ry     beta= 0.70
     Davidson diagonalization with overlap

---- Real-time Memory Report at c_bands before calling an iterative solver
           875 MiB given to the printing process from OS
             0 MiB allocation reported by mallinfo(arena+hblkhd)
          2036 MiB available memory on the node where the printing process lives
------------------
     ethr =  1.60E-09,  avg # of iterations =  1.1

     total cpu time spent up to now is    32119.8 secs

     total energy              =   -2343.99769487 Ry
     estimated scf accuracy    <       0.00000783 Ry

     total magnetization       =     0.04 Bohr mag/cell
     absolute magnetization    =     0.06 Bohr mag/cell

     iteration # 39     ecut=    60.00 Ry     beta= 0.70
     Davidson diagonalization with overlap

---- Real-time Memory Report at c_bands before calling an iterative solver
           875 MiB given to the printing process from OS
             0 MiB allocation reported by mallinfo(arena+hblkhd)
          2038 MiB available memory on the node where the printing process lives
------------------
     ethr =  1.60E-09,  avg # of iterations =  1.6

     Magnetic moment per site  (integrated on atomic sphere of radius R)
     atom   1 (R=0.212)  charge=  7.4969  magn= -0.0000
     atom   2 (R=0.212)  charge=  7.5020  magn=  0.0000
     atom   3 (R=0.158)  charge=  8.1101  magn= -0.0000
     atom   4 (R=0.158)  charge=  8.1072  magn= -0.0000
     atom   5 (R=0.158)  charge=  8.1111  magn=  0.0000
     atom   6 (R=0.158)  charge=  8.1112  magn= -0.0000
     atom   7 (R=0.125)  charge=  0.5442  magn= -0.0000
     atom   8 (R=0.125)  charge=  0.5442  magn= -0.0000
     atom   9 (R=0.125)  charge=  0.5366  magn= -0.0000
     atom  10 (R=0.125)  charge=  0.5366  magn= -0.0000
     atom  11 (R=0.125)  charge=  0.5359  magn= -0.0000
     atom  12 (R=0.125)  charge=  0.5359  magn= -0.0000
     atom  13 (R=0.134)  charge=  0.3386  magn= -0.0000
     atom  14 (R=0.134)  charge=  0.3386  magn= -0.0000
     atom  15 (R=0.074)  charge=  1.8809  magn=  0.0002
     atom  16 (R=0.074)  charge=  1.8809  magn=  0.0002
     atom  17 (R=0.074)  charge=  1.8971  magn= -0.0000
     atom  18 (R=0.074)  charge=  1.8971  magn= -0.0000
     atom  19 (R=0.074)  charge=  1.8913  magn=  0.0000
     atom  20 (R=0.074)  charge=  1.8913  magn=  0.0000
     atom  21 (R=0.074)  charge=  1.8747  magn=  0.0044
     atom  22 (R=0.074)  charge=  1.8747  magn=  0.0044
     atom  23 (R=0.074)  charge=  1.8949  magn=  0.0001
     atom  24 (R=0.074)  charge=  1.8949  magn=  0.0001
     atom  25 (R=0.074)  charge=  1.9010  magn=  0.0000
     atom  26 (R=0.074)  charge=  1.9010  magn=  0.0000
     atom  27 (R=0.074)  charge=  1.8988  magn=  0.0000
     atom  28 (R=0.074)  charge=  1.8988  magn=  0.0000
     atom  29 (R=0.074)  charge=  1.8979  magn=  0.0000
     atom  30 (R=0.074)  charge=  1.8979  magn=  0.0000
     atom  31 (R=0.074)  charge=  1.8960  magn=  0.0000
     atom  32 (R=0.074)  charge=  1.8960  magn=  0.0000
     atom  33 (R=0.074)  charge=  1.8936  magn=  0.0000
     atom  34 (R=0.074)  charge=  1.8936  magn=  0.0000
     atom  35 (R=0.074)  charge=  1.8830  magn=  0.0012
     atom  36 (R=0.074)  charge=  1.8830  magn=  0.0012
     atom  37 (R=0.074)  charge=  1.8973  magn= -0.0000
     atom  38 (R=0.074)  charge=  1.8973  magn= -0.0000
     atom  39 (R=0.074)  charge=  0.4065  magn= -0.0000
     atom  40 (R=0.074)  charge=  0.4065  magn= -0.0000
     atom  41 (R=0.074)  charge=  0.3905  magn=  0.0001
     atom  42 (R=0.074)  charge=  0.3905  magn=  0.0001
     atom  43 (R=0.159)  charge=  8.7180  magn=  0.0037

     total cpu time spent up to now is    32874.7 secs

     End of self-consistent calculation

 ------ SPIN UP ------------


          k = 0.0000 0.0000 0.0000 ( 25927 PWs)   bands (ev):

   -68.9362 -67.5351 -67.3315 -66.0355 -53.1031 -35.7233 -35.6743 -35.6686
   -34.3017 -34.2799 -34.2704 -34.1096 -34.0687 -34.0618 -32.8021 -32.8013
   -32.7522 -29.4245 -29.3653 -29.1887 -23.6104 -23.1365 -15.8509 -15.7444
   -15.2952 -14.9454 -14.7678 -14.7334 -14.5077 -14.3938 -14.2050 -14.1817
   -13.5784 -13.5085 -13.1235 -13.0051 -12.8218 -12.7432 -12.6281 -12.5326
   -12.4521 -12.4347 -11.3780 -11.2258  -9.6696  -9.4363  -7.1924  -7.1042
    -7.0779  -6.6833  -6.6384  -6.6099  -4.8954  -4.8456  -3.5973  -2.9345
    -2.8628  -2.4959  -2.4158  -1.6892  -1.6880  -1.6403  -1.3139  -1.3006
    -0.9140  -0.8844  -0.7701  -0.4538  -0.3396  -0.3389  -0.2787  -0.2514
    -0.0824   0.1061   0.2231   0.3944   0.4155   0.5256   0.7576   0.8263
     0.8317   0.9704   1.1034   1.1465   1.3114   1.3818   1.4693   1.5286
     1.6525   1.6603   1.7035   1.7718   1.8689   1.8921   2.0060   2.0588
     2.1148   2.1486   2.3825   2.4136   2.4618   2.5208   2.5499   2.6736
     2.8232   2.8921   3.0234   3.1674   3.2386   3.4400   3.5281   3.5525
     3.6289   3.7097   3.7594   4.5793   4.6610   4.9187   5.0184   5.2503
     5.4150   5.6341   5.9780   6.1391   6.1946   6.4466   6.4517   8.4018
     8.4343   8.7942  10.1116  10.8653  11.3860  11.5419  11.7756  12.0234
    12.1017  12.2309  12.5682  12.5724  12.7079  12.7429  12.7765  13.0112
    13.1542  13.2476  13.3786  13.5881  13.6546

     occupation numbers 
     1.0000   1.0000   1.0000   1.0000   1.0000   1.0000   1.0000   1.0000
     1.0000   1.0000   1.0000   1.0000   1.0000   1.0000   1.0000   1.0000
     1.0000   1.0000   1.0000   1.0000   1.0000   1.0000   1.0000   1.0000
     1.0000   1.0000   1.0000   1.0000   1.0000   1.0000   1.0000   1.0000
     1.0000   1.0000   1.0000   1.0000   1.0000   1.0000   1.0000   1.0000
     1.0000   1.0000   1.0000   1.0000   1.0000   1.0000   1.0000   1.0000
     1.0000   1.0000   1.0000   1.0000   1.0000   1.0000   1.0000   1.0000
     1.0000   1.0000   1.0000   1.0000   1.0000   1.0000   1.0000   1.0000
     1.0000   1.0000   1.0000   1.0000   1.0000   1.0000   1.0000   1.0000
     1.0000   1.0000   1.0000   1.0000   1.0000   1.0000   1.0000   1.0000
     1.0000   1.0000   1.0000   1.0000   1.0000   1.0000   1.0000   1.0000
     1.0000   1.0000   1.0000   1.0000   1.0000   1.0000   1.0000   1.0000
     1.0000   1.0000   1.0000   1.0000   1.0000   1.0000   1.0000   1.0000
     1.0000   1.0000   1.0000   1.0000   1.0000   1.0000   1.0000   1.0000
     1.0000   1.0000   1.0000   1.0000   1.0000   1.0000   1.0000   1.0000
     1.0000   1.0000   1.0000   1.0000   0.1064   0.0000   0.0000   0.0000
     0.0000   0.0000   0.0000   0.0000   0.0000   0.0000   0.0000   0.0000
     0.0000   0.0000   0.0000   0.0000   0.0000   0.0000   0.0000   0.0000
     0.0000   0.0000   0.0000   0.0000   0.0000

          k = 0.0000 0.0000 0.1758 ( 25971 PWs)   bands (ev):

   -68.9362 -67.5351 -67.3315 -66.0355 -53.1031 -35.7233 -35.6743 -35.6687
   -34.3017 -34.2799 -34.2704 -34.1096 -34.0687 -34.0619 -32.8021 -32.8013
   -32.7523 -29.4245 -29.3653 -29.1887 -23.6104 -23.1365 -15.8394 -15.7591
   -15.2917 -14.9469 -14.7604 -14.7403 -14.5025 -14.3983 -14.2050 -14.1816
   -13.5636 -13.5249 -13.1162 -13.0166 -12.8121 -12.7508 -12.6138 -12.5397
   -12.4583 -12.4321 -11.3781 -11.2258  -9.6693  -9.4368  -7.1926  -7.1042
    -7.0779  -6.6834  -6.6384  -6.6099  -4.8948  -4.8469  -3.5898  -2.9186
    -2.8818  -2.5018  -2.3779  -1.7351  -1.6871  -1.6528  -1.3555  -1.2597
    -0.9441  -0.8693  -0.7480  -0.4517  -0.4029  -0.3178  -0.2808  -0.2060
    -0.1112   0.1002   0.2151   0.4124   0.4731   0.5149   0.7642   0.8231
     0.8870   0.9943   1.1209   1.1691   1.2886   1.3258   1.4183   1.4691
     1.6108   1.6179   1.6981   1.8272   1.8966   1.9796   2.0446   2.0820
     2.1288   2.2032   2.2928   2.3798   2.4745   2.5117   2.5531   2.6444
     2.7774   2.9101   3.0488   3.1176   3.2470   3.3679   3.4630   3.6385
     3.7049   3.7072   3.8056   4.5386   4.6803   4.9130   5.0006   5.2276
     5.4319   5.6303   5.9755   6.1438   6.1970   6.4454   6.4507   8.3865
     8.4735   9.0464   9.6970  10.8819  11.4340  11.4785  11.8568  12.0024
    12.1840  12.3393  12.4434  12.5070  12.7213  12.7541  12.9094  13.0868
    13.1274  13.2983  13.3334  13.5317  13.6309

     occupation numbers 
     1.0000   1.0000   1.0000   1.0000   1.0000   1.0000   1.0000   1.0000
     1.0000   1.0000   1.0000   1.0000   1.0000   1.0000   1.0000   1.0000
     1.0000   1.0000   1.0000   1.0000   1.0000   1.0000   1.0000   1.0000
     1.0000   1.0000   1.0000   1.0000   1.0000   1.0000   1.0000   1.0000
     1.0000   1.0000   1.0000   1.0000   1.0000   1.0000   1.0000   1.0000
     1.0000   1.0000   1.0000   1.0000   1.0000   1.0000   1.0000   1.0000
     1.0000   1.0000   1.0000   1.0000   1.0000   1.0000   1.0000   1.0000
     1.0000   1.0000   1.0000   1.0000   1.0000   1.0000   1.0000   1.0000
     1.0000   1.0000   1.0000   1.0000   1.0000   1.0000   1.0000   1.0000
     1.0000   1.0000   1.0000   1.0000   1.0000   1.0000   1.0000   1.0000
     1.0000   1.0000   1.0000   1.0000   1.0000   1.0000   1.0000   1.0000
     1.0000   1.0000   1.0000   1.0000   1.0000   1.0000   1.0000   1.0000
     1.0000   1.0000   1.0000   1.0000   1.0000   1.0000   1.0000   1.0000
     1.0000   1.0000   1.0000   1.0000   1.0000   1.0000   1.0000   1.0000
     1.0000   1.0000   1.0000   1.0000   1.0000   1.0000   1.0000   1.0000
     1.0000   1.0000   1.0000   1.0000   0.0669   0.0000   0.0000   0.0000
     0.0000   0.0000   0.0000   0.0000   0.0000   0.0000   0.0000   0.0000
     0.0000   0.0000   0.0000   0.0000   0.0000   0.0000   0.0000   0.0000
     0.0000   0.0000   0.0000   0.0000   0.0000

          k = 0.0000 0.1921 0.0000 ( 25933 PWs)   bands (ev):

   -68.9362 -67.5351 -67.3315 -66.0355 -53.1031 -35.7233 -35.6743 -35.6686
   -34.3017 -34.2799 -34.2704 -34.1096 -34.0687 -34.0619 -32.8021 -32.8013
   -32.7522 -29.4245 -29.3653 -29.1887 -23.6104 -23.1365 -15.8489 -15.7421
   -15.2960 -14.9468 -14.7791 -14.7446 -14.5046 -14.3891 -14.2053 -14.1818
   -13.5411 -13.4805 -13.1498 -13.0300 -12.8365 -12.7403 -12.6195 -12.5338
   -12.4522 -12.4343 -11.3776 -11.2260  -9.6689  -9.4359  -7.1923  -7.1043
    -7.0778  -6.6837  -6.6381  -6.6103  -4.8652  -4.8138  -3.5943  -3.0476
    -2.9597  -2.5002  -2.3812  -1.6689  -1.6606  -1.6305  -1.3115  -1.3048
    -0.8601  -0.7913  -0.6874  -0.5147  -0.4927  -0.4204  -0.2111  -0.1821
    -0.0921   0.0838   0.2363   0.3603   0.5131   0.5355   0.7243   0.7618
     0.7913   0.9950   1.1258   1.2454   1.3404   1.3804   1.4407   1.5607
     1.6191   1.6840   1.7124   1.7591   1.8616   1.8881   1.9958   2.0503
     2.1720   2.1968   2.2855   2.3672   2.4570   2.5363   2.5707   2.7286
     2.8268   2.9067   3.0147   3.1904   3.2075   3.4051   3.5075   3.5438
     3.6283   3.7000   3.7385   4.5725   4.6561   4.9107   5.0252   5.2295
     5.3203   5.6313   5.9705   6.1415   6.2006   6.4451   6.4707   8.3745
     8.4603   9.1038  10.2396  10.2899  11.3186  11.4020  12.0390  12.0980
    12.2292  12.2427  12.4997  12.5968  12.7060  12.7251  12.8262  12.9998
    13.2104  13.2366  13.3989  13.4026  13.5223

     occupation numbers 
     1.0000   1.0000   1.0000   1.0000   1.0000   1.0000   1.0000   1.0000
     1.0000   1.0000   1.0000   1.0000   1.0000   1.0000   1.0000   1.0000
     1.0000   1.0000   1.0000   1.0000   1.0000   1.0000   1.0000   1.0000
     1.0000   1.0000   1.0000   1.0000   1.0000   1.0000   1.0000   1.0000
     1.0000   1.0000   1.0000   1.0000   1.0000   1.0000   1.0000   1.0000
     1.0000   1.0000   1.0000   1.0000   1.0000   1.0000   1.0000   1.0000
     1.0000   1.0000   1.0000   1.0000   1.0000   1.0000   1.0000   1.0000
     1.0000   1.0000   1.0000   1.0000   1.0000   1.0000   1.0000   1.0000
     1.0000   1.0000   1.0000   1.0000   1.0000   1.0000   1.0000   1.0000
     1.0000   1.0000   1.0000   1.0000   1.0000   1.0000   1.0000   1.0000
     1.0000   1.0000   1.0000   1.0000   1.0000   1.0000   1.0000   1.0000
     1.0000   1.0000   1.0000   1.0000   1.0000   1.0000   1.0000   1.0000
     1.0000   1.0000   1.0000   1.0000   1.0000   1.0000   1.0000   1.0000
     1.0000   1.0000   1.0000   1.0000   1.0000   1.0000   1.0000   1.0000
     1.0000   1.0000   1.0000   1.0000   1.0000   1.0000   1.0000   1.0000
     1.0000   1.0000   1.0000   1.0000   0.0305   0.0000   0.0000   0.0000
     0.0000   0.0000   0.0000   0.0000   0.0000   0.0000   0.0000   0.0000
     0.0000   0.0000   0.0000   0.0000   0.0000   0.0000   0.0000   0.0000
     0.0000   0.0000   0.0000   0.0000   0.0000

          k = 0.0000 0.1921 0.1758 ( 25924 PWs)   bands (ev):

   -68.9362 -67.5351 -67.3315 -66.0355 -53.1031 -35.7233 -35.6743 -35.6686
   -34.3017 -34.2799 -34.2704 -34.1096 -34.0687 -34.0618 -32.8021 -32.8013
   -32.7523 -29.4245 -29.3653 -29.1887 -23.6104 -23.1365 -15.8372 -15.7571
   -15.2926 -14.9483 -14.7711 -14.7520 -14.4991 -14.3939 -14.2053 -14.1818
   -13.5275 -13.4957 -13.1413 -13.0425 -12.8263 -12.7484 -12.6061 -12.5406
   -12.4576 -12.4321 -11.3777 -11.2260  -9.6687  -9.4364  -7.1925  -7.1043
    -7.0777  -6.6837  -6.6379  -6.6102  -4.8615  -4.8180  -3.5876  -3.0282
    -2.9814  -2.5070  -2.3438  -1.7036  -1.6703  -1.6437  -1.3425  -1.2742
    -0.8632  -0.8242  -0.6482  -0.5635  -0.4790  -0.3727  -0.2156  -0.1671
    -0.1162   0.0843   0.2091   0.3689   0.5028   0.5788   0.7332   0.7909
     0.8761   0.9826   1.1012   1.2755   1.2950   1.3501   1.4410   1.4761
     1.5823   1.6237   1.7069   1.8258   1.8814   1.9848   2.0229   2.0985
     2.1708   2.2224   2.2579   2.3562   2.4293   2.4801   2.5632   2.7374
     2.7816   2.9110   3.0606   3.1382   3.2304   3.3437   3.4181   3.6226
     3.6868   3.7073   3.7915   4.5294   4.6793   4.9027   5.0088   5.2038
     5.3475   5.6289   5.9703   6.1460   6.2039   6.4433   6.4703   8.3550
     8.4816   9.3246   9.8839  10.4606  11.0597  11.3913  12.0360  12.1721
    12.2830  12.3295  12.4953  12.5962  12.6532  12.7994  12.9027  13.1046
    13.1694  13.2557  13.3454  13.3883  13.5155

     occupation numbers 
     1.0000   1.0000   1.0000   1.0000   1.0000   1.0000   1.0000   1.0000
     1.0000   1.0000   1.0000   1.0000   1.0000   1.0000   1.0000   1.0000
     1.0000   1.0000   1.0000   1.0000   1.0000   1.0000   1.0000   1.0000
     1.0000   1.0000   1.0000   1.0000   1.0000   1.0000   1.0000   1.0000
     1.0000   1.0000   1.0000   1.0000   1.0000   1.0000   1.0000   1.0000
     1.0000   1.0000   1.0000   1.0000   1.0000   1.0000   1.0000   1.0000
     1.0000   1.0000   1.0000   1.0000   1.0000   1.0000   1.0000   1.0000
     1.0000   1.0000   1.0000   1.0000   1.0000   1.0000   1.0000   1.0000
     1.0000   1.0000   1.0000   1.0000   1.0000   1.0000   1.0000   1.0000
     1.0000   1.0000   1.0000   1.0000   1.0000   1.0000   1.0000   1.0000
     1.0000   1.0000   1.0000   1.0000   1.0000   1.0000   1.0000   1.0000
     1.0000   1.0000   1.0000   1.0000   1.0000   1.0000   1.0000   1.0000
     1.0000   1.0000   1.0000   1.0000   1.0000   1.0000   1.0000   1.0000
     1.0000   1.0000   1.0000   1.0000   1.0000   1.0000   1.0000   1.0000
     1.0000   1.0000   1.0000   1.0000   1.0000   1.0000   1.0000   1.0000
     1.0000   1.0000   1.0000   0.9999   0.0133   0.0000   0.0000   0.0000
     0.0000   0.0000   0.0000   0.0000   0.0000   0.0000   0.0000   0.0000
     0.0000   0.0000   0.0000   0.0000   0.0000   0.0000   0.0000   0.0000
     0.0000   0.0000   0.0000   0.0000   0.0000

          k = 0.1667 0.0000 0.0301 ( 25941 PWs)   bands (ev):

   -68.9362 -67.5351 -67.3315 -66.0355 -53.1031 -35.7233 -35.6743 -35.6686
   -34.3017 -34.2799 -34.2704 -34.1096 -34.0687 -34.0618 -32.8021 -32.8013
   -32.7523 -29.4248 -29.3652 -29.1887 -23.6102 -23.1364 -15.8005 -15.6978
   -15.2670 -14.9655 -14.7924 -14.7581 -14.5270 -14.4407 -14.2483 -14.1972
   -13.5378 -13.4742 -13.1113 -13.0020 -12.8230 -12.7524 -12.6361 -12.5499
   -12.4769 -12.4590 -11.3747 -11.2323  -9.6727  -9.4358  -7.1933  -7.1033
    -7.0769  -6.6862  -6.6380  -6.6063  -4.7455  -4.6917  -3.5436  -2.9302
    -2.8561  -2.6027  -2.4333  -1.8993  -1.7714  -1.5992  -1.2055  -1.1947
    -0.9051  -0.8435  -0.7156  -0.5751  -0.3996  -0.2933  -0.2552  -0.1726
    -0.0118   0.0267   0.2796   0.3223   0.4211   0.6481   0.7291   0.7965
     0.9047   0.9853   1.1045   1.1265   1.2699   1.3038   1.4316   1.4757
     1.6010   1.6852   1.7454   1.7800   1.8509   1.9393   1.9636   1.9849
     2.0491   2.0763   2.3616   2.4166   2.4678   2.5026   2.6274   2.6736
     2.8290   2.8634   3.0000   3.1139   3.1982   3.4179   3.4990   3.5086
     3.5867   3.6291   3.7870   4.5691   4.6581   4.9113   5.0289   5.2968
     5.4513   5.6584   5.9147   6.0820   6.2017   6.4172   6.4580   8.4079
     8.4765   9.0364  10.2852  10.9369  11.5036  11.6624  11.8028  12.0095
    12.1451  12.2305  12.4282  12.5582  12.7374  12.8144  12.9206  13.0896
    13.2049  13.2736  13.3464  13.5530  13.5990

     occupation numbers 
     1.0000   1.0000   1.0000   1.0000   1.0000   1.0000   1.0000   1.0000
     1.0000   1.0000   1.0000   1.0000   1.0000   1.0000   1.0000   1.0000
     1.0000   1.0000   1.0000   1.0000   1.0000   1.0000   1.0000   1.0000
     1.0000   1.0000   1.0000   1.0000   1.0000   1.0000   1.0000   1.0000
     1.0000   1.0000   1.0000   1.0000   1.0000   1.0000   1.0000   1.0000
     1.0000   1.0000   1.0000   1.0000   1.0000   1.0000   1.0000   1.0000
     1.0000   1.0000   1.0000   1.0000   1.0000   1.0000   1.0000   1.0000
     1.0000   1.0000   1.0000   1.0000   1.0000   1.0000   1.0000   1.0000
     1.0000   1.0000   1.0000   1.0000   1.0000   1.0000   1.0000   1.0000
     1.0000   1.0000   1.0000   1.0000   1.0000   1.0000   1.0000   1.0000
     1.0000   1.0000   1.0000   1.0000   1.0000   1.0000   1.0000   1.0000
     1.0000   1.0000   1.0000   1.0000   1.0000   1.0000   1.0000   1.0000
     1.0000   1.0000   1.0000   1.0000   1.0000   1.0000   1.0000   1.0000
     1.0000   1.0000   1.0000   1.0000   1.0000   1.0000   1.0000   1.0000
     1.0000   1.0000   1.0000   1.0000   1.0000   1.0000   1.0000   1.0000
     1.0000   1.0000   1.0000   1.0000   0.0236   0.0000   0.0000   0.0000
     0.0000   0.0000   0.0000   0.0000   0.0000   0.0000   0.0000   0.0000
     0.0000   0.0000   0.0000   0.0000   0.0000   0.0000   0.0000   0.0000
     0.0000   0.0000   0.0000   0.0000   0.0000

          k = 0.1667 0.0000 0.2059 ( 25961 PWs)   bands (ev):

   -68.9362 -67.5351 -67.3315 -66.0355 -53.1031 -35.7233 -35.6743 -35.6686
   -34.3017 -34.2799 -34.2704 -34.1096 -34.0687 -34.0618 -32.8021 -32.8013
   -32.7523 -29.4248 -29.3652 -29.1887 -23.6102 -23.1364 -15.7868 -15.7152
   -15.2634 -14.9661 -14.7901 -14.7605 -14.5203 -14.4481 -14.2330 -14.2110
   -13.5233 -13.4904 -13.1027 -13.0155 -12.8134 -12.7589 -12.6197 -12.5600
   -12.4766 -12.4624 -11.3748 -11.2322  -9.6724  -9.4363  -7.1935  -7.1032
    -7.0768  -6.6862  -6.6379  -6.6063  -4.7496  -4.6881  -3.5353  -2.9125
    -2.8774  -2.6108  -2.3944  -1.9310  -1.7622  -1.6300  -1.2354  -1.1621
    -0.9390  -0.8127  -0.6966  -0.5623  -0.4291  -0.3399  -0.2627  -0.1614
    -0.0045   0.0098   0.2929   0.3401   0.4915   0.6259   0.7570   0.8504
     0.9015   1.0305   1.0874   1.1720   1.2301   1.2535   1.3496   1.4445
     1.5641   1.6294   1.7098   1.7893   1.9325   1.9555   2.0027   2.0394
     2.1086   2.1246   2.3174   2.3377   2.4627   2.5338   2.5889   2.6946
     2.7945   2.8752   3.0322   3.0681   3.2041   3.2929   3.4670   3.5751
     3.6229   3.6507   3.8561   4.5296   4.6807   4.9030   5.0126   5.2772
     5.4661   5.6564   5.9165   6.0873   6.2060   6.4160   6.4564   8.3951
     8.4783   9.3546   9.8358  10.9363  11.5359  11.6063  11.8208  12.0579
    12.1066  12.2555  12.4552  12.6544  12.7814  12.8502  12.9120  13.0922
    13.1651  13.3193  13.3752  13.5398  13.6684

     occupation numbers 
     1.0000   1.0000   1.0000   1.0000   1.0000   1.0000   1.0000   1.0000
     1.0000   1.0000   1.0000   1.0000   1.0000   1.0000   1.0000   1.0000
     1.0000   1.0000   1.0000   1.0000   1.0000   1.0000   1.0000   1.0000
     1.0000   1.0000   1.0000   1.0000   1.0000   1.0000   1.0000   1.0000
     1.0000   1.0000   1.0000   1.0000   1.0000   1.0000   1.0000   1.0000
     1.0000   1.0000   1.0000   1.0000   1.0000   1.0000   1.0000   1.0000
     1.0000   1.0000   1.0000   1.0000   1.0000   1.0000   1.0000   1.0000
     1.0000   1.0000   1.0000   1.0000   1.0000   1.0000   1.0000   1.0000
     1.0000   1.0000   1.0000   1.0000   1.0000   1.0000   1.0000   1.0000
     1.0000   1.0000   1.0000   1.0000   1.0000   1.0000   1.0000   1.0000
     1.0000   1.0000   1.0000   1.0000   1.0000   1.0000   1.0000   1.0000
     1.0000   1.0000   1.0000   1.0000   1.0000   1.0000   1.0000   1.0000
     1.0000   1.0000   1.0000   1.0000   1.0000   1.0000   1.0000   1.0000
     1.0000   1.0000   1.0000   1.0000   1.0000   1.0000   1.0000   1.0000
     1.0000   1.0000   1.0000   1.0000   1.0000   1.0000   1.0000   1.0000
     1.0000   1.0000   1.0000   1.0000   0.0075   0.0000   0.0000   0.0000
     0.0000   0.0000   0.0000   0.0000   0.0000   0.0000   0.0000   0.0000
     0.0000   0.0000   0.0000   0.0000   0.0000   0.0000   0.0000   0.0000
     0.0000   0.0000   0.0000   0.0000   0.0000

          k = 0.1667 0.0000-0.1457 ( 25956 PWs)   bands (ev):

   -68.9362 -67.5351 -67.3315 -66.0355 -53.1031 -35.7233 -35.6743 -35.6686
   -34.3017 -34.2799 -34.2704 -34.1096 -34.0687 -34.0618 -32.8021 -32.8013
   -32.7523 -29.4248 -29.3652 -29.1887 -23.6102 -23.1364 -15.7915 -15.7093
   -15.2650 -14.9661 -14.7839 -14.7668 -14.5201 -14.4479 -14.2377 -14.2064
   -13.5247 -13.4889 -13.1032 -13.0149 -12.8119 -12.7609 -12.6233 -12.5526
   -12.4836 -12.4588 -11.3748 -11.2323  -9.6723  -9.4363  -7.1935  -7.1032
    -7.0768  -6.6863  -6.6379  -6.6063  -4.7325  -4.7054  -3.5388  -2.9134
    -2.8738  -2.6076  -2.4083  -1.9181  -1.7456  -1.6469  -1.2397  -1.1546
    -0.9338  -0.8230  -0.7230  -0.5716  -0.3620  -0.3127  -0.2842  -0.1449
    -0.0234   0.0188   0.2744   0.3327   0.4803   0.6266   0.7570   0.7658
     0.9540   0.9670   1.1061   1.1623   1.2414   1.2658   1.3994   1.4470
     1.5561   1.6796   1.7026   1.8441   1.8547   1.9704   1.9952   2.0467
     2.0644   2.2067   2.2597   2.4214   2.4477   2.4997   2.5700   2.6178
     2.8149   2.8885   3.0018   3.1020   3.2278   3.3219   3.4274   3.5778
     3.6187   3.6689   3.8457   4.5358   4.6782   4.9058   5.0170   5.2788
     5.4592   5.6548   5.9104   6.0919   6.2033   6.4179   6.4560   8.3950
     8.4661   9.2495   9.9814  11.0230  11.5392  11.5839  11.8160  12.0791
    12.1501  12.2348  12.4307  12.6613  12.6747  12.7857  12.8514  13.1760
    13.1897  13.2150  13.3414  13.5884  13.7047

     occupation numbers 
     1.0000   1.0000   1.0000   1.0000   1.0000   1.0000   1.0000   1.0000
     1.0000   1.0000   1.0000   1.0000   1.0000   1.0000   1.0000   1.0000
     1.0000   1.0000   1.0000   1.0000   1.0000   1.0000   1.0000   1.0000
     1.0000   1.0000   1.0000   1.0000   1.0000   1.0000   1.0000   1.0000
     1.0000   1.0000   1.0000   1.0000   1.0000   1.0000   1.0000   1.0000
     1.0000   1.0000   1.0000   1.0000   1.0000   1.0000   1.0000   1.0000
     1.0000   1.0000   1.0000   1.0000   1.0000   1.0000   1.0000   1.0000
     1.0000   1.0000   1.0000   1.0000   1.0000   1.0000   1.0000   1.0000
     1.0000   1.0000   1.0000   1.0000   1.0000   1.0000   1.0000   1.0000
     1.0000   1.0000   1.0000   1.0000   1.0000   1.0000   1.0000   1.0000
     1.0000   1.0000   1.0000   1.0000   1.0000   1.0000   1.0000   1.0000
     1.0000   1.0000   1.0000   1.0000   1.0000   1.0000   1.0000   1.0000
     1.0000   1.0000   1.0000   1.0000   1.0000   1.0000   1.0000   1.0000
     1.0000   1.0000   1.0000   1.0000   1.0000   1.0000   1.0000   1.0000
     1.0000   1.0000   1.0000   1.0000   1.0000   1.0000   1.0000   1.0000
     1.0000   1.0000   1.0000   1.0000   0.0158   0.0000   0.0000   0.0000
     0.0000   0.0000   0.0000   0.0000   0.0000   0.0000   0.0000   0.0000
     0.0000   0.0000   0.0000   0.0000   0.0000   0.0000   0.0000   0.0000
     0.0000   0.0000   0.0000   0.0000   0.0000

          k = 0.1667 0.1921 0.0301 ( 25937 PWs)   bands (ev):

   -68.9362 -67.5351 -67.3315 -66.0355 -53.1031 -35.7233 -35.6743 -35.6686
   -34.3017 -34.2799 -34.2704 -34.1096 -34.0687 -34.0618 -32.8021 -32.8013
   -32.7523 -29.4248 -29.3652 -29.1887 -23.6102 -23.1364 -15.7987 -15.6958
   -15.2677 -14.9661 -14.8023 -14.7683 -14.5236 -14.4359 -14.2475 -14.1973
   -13.5099 -13.4527 -13.1324 -13.0229 -12.8356 -12.7478 -12.6274 -12.5518
   -12.4772 -12.4583 -11.3744 -11.2325  -9.6722  -9.4355  -7.1933  -7.1033
    -7.0768  -6.6868  -6.6374  -6.6066  -4.7184  -4.6631  -3.5403  -3.0476
    -2.9577  -2.6068  -2.3884  -1.8249  -1.7316  -1.5998  -1.2332  -1.2210
    -0.8224  -0.7590  -0.6518  -0.5942  -0.4799  -0.4109  -0.2597  -0.1045
    -0.0354   0.0718   0.2432   0.3417   0.5100   0.6067   0.7299   0.7820
     0.8272   0.9756   1.1096   1.1502   1.2456   1.3324   1.4586   1.4809
     1.6095   1.6592   1.6979   1.7672   1.8671   1.9131   1.9355   2.0483
     2.1107   2.1660   2.2780   2.3850   2.4433   2.4800   2.6431   2.7321
     2.8315   2.8788   3.0260   3.1472   3.2047   3.3883   3.4953   3.5072
     3.5678   3.6009   3.7773   4.5436   4.6432   4.8973   5.0290   5.2801
     5.3931   5.6557   5.9078   6.1056   6.2024   6.4138   6.4736   8.3825
     8.4832   9.3061  10.3842  10.4868  11.3907  11.4928  12.0063  12.0873
    12.1782  12.2606  12.4960  12.6103  12.7317  12.7684  12.8976  13.0789
    13.2315  13.2701  13.3772  13.4697  13.6154

     occupation numbers 
     1.0000   1.0000   1.0000   1.0000   1.0000   1.0000   1.0000   1.0000
     1.0000   1.0000   1.0000   1.0000   1.0000   1.0000   1.0000   1.0000
     1.0000   1.0000   1.0000   1.0000   1.0000   1.0000   1.0000   1.0000
     1.0000   1.0000   1.0000   1.0000   1.0000   1.0000   1.0000   1.0000
     1.0000   1.0000   1.0000   1.0000   1.0000   1.0000   1.0000   1.0000
[...]
     atom   13 type  1   force =     0.34318621   -0.19766013   -4.73184435
     atom   14 type  1   force =    -0.34318621   -0.19766013    4.73184435
     atom   15 type  6   force =    -0.00392624   -8.55683905    9.81280480
     atom   16 type  6   force =     0.00394134   -8.55683599   -9.81282517
     atom   17 type  6   force =     0.04081456    1.59249713   -9.70726510
     atom   18 type  6   force =    -0.04081456    1.59249713    9.70726510
     atom   19 type  6   force =    -0.77249332    2.82636003    9.73289536
     atom   20 type  6   force =     0.77249332    2.82636003   -9.73289536
     atom   21 type  6   force =     5.63532696   -0.97774754   -8.99816160
     atom   22 type  6   force =    -5.63532696   -0.97774754    8.99816160
     atom   23 type  6   force =    -2.11478753   -1.91868217    9.21144823
     atom   24 type  6   force =     2.11478400   -1.91868214   -9.21142629
     atom   25 type  6   force =     1.01740587   -1.37615198   10.91792024
     atom   26 type  6   force =    -1.01740816   -1.37615208  -10.91790928
     atom   27 type  6   force =     0.49346040    0.01530222  -11.12685223
     atom   28 type  6   force =    -0.49346040    0.01530222   11.12685223
     atom   29 type  6   force =    -0.24972505    1.85482417   10.98119948
     atom   30 type  6   force =     0.24972505    1.85482417  -10.98119948
     atom   31 type  6   force =     0.26385060    3.50373738    9.61615634
     atom   32 type  6   force =    -0.26383613    3.50373715   -9.61616732
     atom   33 type  6   force =    -0.98647724   -3.01885497   -8.23234924
     atom   34 type  6   force =     0.98647151   -3.01885527    8.23234923
     atom   35 type  6   force =     1.64126528    5.54353002   11.88540415
     atom   36 type  6   force =    -1.64127086    5.54353030  -11.88540410
     atom   37 type  6   force =     1.90609867   -1.89728271   12.30713958
     atom   38 type  6   force =    -1.90610304   -1.89728303  -12.30711613
     atom   39 type  3   force =     1.20586180    2.86953580    3.18351619
     atom   40 type  3   force =    -1.20586257    2.86953548   -3.18351592
     atom   41 type  3   force =     0.19411243   -0.75032660    5.01341503
     atom   42 type  3   force =    -0.19411243   -0.75032660   -5.01341503
     atom   43 type  2   force =     0.00000000   -6.04963016   -0.00000000
     The core correction contribution to forces
     atom    1 type  4   force =     0.00000000   -0.00094965    0.00000000
     atom    2 type  4   force =     0.00000000    0.00081590   -0.00000000
     atom    3 type  5   force =    -0.00000000   -0.00108080    0.00000000
     atom    4 type  5   force =     0.00000000   -0.00113333    0.00000000
     atom    5 type  5   force =     0.00000000   -0.00054914    0.00000000
     atom    6 type  5   force =     0.00000000    0.00209564    0.00000000
     atom    7 type  7   force =     0.00156155    0.00876476   -0.00516534
     atom    8 type  7   force =    -0.00156160    0.00876477    0.00516539
     atom    9 type  7   force =     0.00155279    0.00497777   -0.00336890
     atom   10 type  7   force =    -0.00155279    0.00497777    0.00336890
     atom   11 type  7   force =     0.00144041   -0.01217529    0.00822856
     atom   12 type  7   force =    -0.00144040   -0.01217528   -0.00822860
     atom   13 type  1   force =     0.00026524    0.00184684   -0.01722210
     atom   14 type  1   force =    -0.00026524    0.00184684    0.01722210
     atom   15 type  6   force =    -0.00070428    0.00233654    0.00589991
     atom   16 type  6   force =     0.00070427    0.00233653   -0.00589991
     atom   17 type  6   force =     0.00016060   -0.00083511   -0.00663271
     atom   18 type  6   force =    -0.00016060   -0.00083511    0.00663271
     atom   19 type  6   force =     0.00040402   -0.00048868    0.00658944
     atom   20 type  6   force =    -0.00040402   -0.00048868   -0.00658944
     atom   21 type  6   force =    -0.00238847    0.00082428   -0.00431861
     atom   22 type  6   force =     0.00238847    0.00082428    0.00431861
     atom   23 type  6   force =     0.00524263   -0.00140884   -0.00578783
     atom   24 type  6   force =    -0.00524263   -0.00140884    0.00578781
     atom   25 type  6   force =    -0.00346001   -0.00010413   -0.00727487
     atom   26 type  6   force =     0.00346002   -0.00010413    0.00727485
     atom   27 type  6   force =    -0.00240103    0.00287030    0.00690750
     atom   28 type  6   force =     0.00240103    0.00287030   -0.00690750
     atom   29 type  6   force =     0.00002848   -0.00183440   -0.00784714
     atom   30 type  6   force =    -0.00002848   -0.00183440    0.00784714
     atom   31 type  6   force =    -0.00215587   -0.00353206   -0.00664188
     atom   32 type  6   force =     0.00215585   -0.00353206    0.00664189
     atom   33 type  6   force =     0.00138457    0.00513238    0.00615312
     atom   34 type  6   force =    -0.00138457    0.00513239   -0.00615312
     atom   35 type  6   force =     0.00543384    0.01010669    0.00439911
     atom   36 type  6   force =    -0.00543383    0.01010670   -0.00439911
     atom   37 type  6   force =    -0.00168176   -0.00245357    0.01027052
     atom   38 type  6   force =     0.00168177   -0.00245356   -0.01027051
     atom   39 type  3   force =     0.00000000    0.00000000    0.00000000
     atom   40 type  3   force =     0.00000000    0.00000000    0.00000000
     atom   41 type  3   force =     0.00000000    0.00000000    0.00000000
     atom   42 type  3   force =     0.00000000    0.00000000    0.00000000
     atom   43 type  2   force =    -0.00000000   -0.00462033    0.00000000
     The Hubbard contrib.    to forces
     atom    1 type  4   force =     0.00000000    0.00000000    0.00000000
     atom    2 type  4   force =     0.00000000    0.00000000    0.00000000
     atom    3 type  5   force =     0.00000000    0.00000000    0.00000000
     atom    4 type  5   force =     0.00000000    0.00000000    0.00000000
     atom    5 type  5   force =     0.00000000    0.00000000    0.00000000
     atom    6 type  5   force =     0.00000000    0.00000000    0.00000000
     atom    7 type  7   force =     0.00000000    0.00000000    0.00000000
     atom    8 type  7   force =     0.00000000    0.00000000    0.00000000
     atom    9 type  7   force =     0.00000000    0.00000000    0.00000000
     atom   10 type  7   force =     0.00000000    0.00000000    0.00000000
     atom   11 type  7   force =     0.00000000    0.00000000    0.00000000
     atom   12 type  7   force =     0.00000000    0.00000000    0.00000000
     atom   13 type  1   force =     0.00000000    0.00000000    0.00000000
     atom   14 type  1   force =     0.00000000    0.00000000    0.00000000
     atom   15 type  6   force =     0.00000000    0.00000000    0.00000000
     atom   16 type  6   force =     0.00000000    0.00000000    0.00000000
     atom   17 type  6   force =     0.00000000    0.00000000    0.00000000
     atom   18 type  6   force =     0.00000000    0.00000000    0.00000000
     atom   19 type  6   force =     0.00000000    0.00000000    0.00000000
     atom   20 type  6   force =     0.00000000    0.00000000    0.00000000
     atom   21 type  6   force =     0.00000000    0.00000000    0.00000000
     atom   22 type  6   force =     0.00000000    0.00000000    0.00000000
     atom   23 type  6   force =     0.00000000    0.00000000    0.00000000
     atom   24 type  6   force =     0.00000000    0.00000000    0.00000000
     atom   25 type  6   force =     0.00000000    0.00000000    0.00000000
     atom   26 type  6   force =     0.00000000    0.00000000    0.00000000
     atom   27 type  6   force =     0.00000000    0.00000000    0.00000000
     atom   28 type  6   force =     0.00000000    0.00000000    0.00000000
     atom   29 type  6   force =     0.00000000    0.00000000    0.00000000
     atom   30 type  6   force =     0.00000000    0.00000000    0.00000000
     atom   31 type  6   force =     0.00000000    0.00000000    0.00000000
     atom   32 type  6   force =     0.00000000    0.00000000    0.00000000
     atom   33 type  6   force =     0.00000000    0.00000000    0.00000000
     atom   34 type  6   force =     0.00000000    0.00000000    0.00000000
     atom   35 type  6   force =     0.00000000    0.00000000    0.00000000
     atom   36 type  6   force =     0.00000000    0.00000000    0.00000000
     atom   37 type  6   force =     0.00000000    0.00000000    0.00000000
     atom   38 type  6   force =     0.00000000    0.00000000    0.00000000
     atom   39 type  3   force =     0.00000000    0.00000000    0.00000000
     atom   40 type  3   force =     0.00000000    0.00000000    0.00000000
     atom   41 type  3   force =     0.00000000    0.00000000    0.00000000
     atom   42 type  3   force =     0.00000000    0.00000000    0.00000000
     atom   43 type  2   force =     0.00000000    0.00000000    0.00000000
     The SCF correction term to forces
     atom    1 type  4   force =     0.00000000    0.00000307    0.00000000
     atom    2 type  4   force =     0.00000000   -0.00000730   -0.00000000
     atom    3 type  5   force =    -0.00000000   -0.00003103   -0.00000000
     atom    4 type  5   force =     0.00000000   -0.00003905   -0.00000000
     atom    5 type  5   force =    -0.00000000    0.00013910   -0.00000000
     atom    6 type  5   force =    -0.00000000    0.00010277   -0.00000000
     atom    7 type  7   force =    -0.00000384    0.00001718    0.00000669
     atom    8 type  7   force =     0.00000384    0.00001718   -0.00000669
     atom    9 type  7   force =     0.00000084   -0.00000113   -0.00000513
     atom   10 type  7   force =    -0.00000084   -0.00000113    0.00000513
     atom   11 type  7   force =     0.00000299   -0.00000519   -0.00000998
     atom   12 type  7   force =    -0.00000299   -0.00000519    0.00000998
     atom   13 type  1   force =    -0.00000243   -0.00000380   -0.00001341
     atom   14 type  1   force =     0.00000243   -0.00000380    0.00001341
     atom   15 type  6   force =     0.00001230    0.00001533   -0.00010124
     atom   16 type  6   force =    -0.00001230    0.00001533    0.00010124
     atom   17 type  6   force =     0.00000122    0.00001890    0.00005579
     atom   18 type  6   force =    -0.00000122    0.00001890   -0.00005579
     atom   19 type  6   force =     0.00001791   -0.00004210   -0.00000103
     atom   20 type  6   force =    -0.00001791   -0.00004210    0.00000103
     atom   21 type  6   force =     0.00002012   -0.00000303   -0.00002785
     atom   22 type  6   force =    -0.00002012   -0.00000303    0.00002785
     atom   23 type  6   force =    -0.00002765    0.00000710   -0.00000474
     atom   24 type  6   force =     0.00002765    0.00000710    0.00000474
     atom   25 type  6   force =    -0.00000529    0.00002341   -0.00000889
     atom   26 type  6   force =     0.00000529    0.00002341    0.00000889
     atom   27 type  6   force =    -0.00000503    0.00003865   -0.00001647
     atom   28 type  6   force =     0.00000503    0.00003865    0.00001647
     atom   29 type  6   force =     0.00001429   -0.00000821   -0.00000026
     atom   30 type  6   force =    -0.00001429   -0.00000821    0.00000026
     atom   31 type  6   force =    -0.00001893   -0.00000759   -0.00004168
     atom   32 type  6   force =     0.00001893   -0.00000759    0.00004168
     atom   33 type  6   force =     0.00000221    0.00000916   -0.00000318
     atom   34 type  6   force =    -0.00000221    0.00000916    0.00000318
     atom   35 type  6   force =     0.00003273   -0.00002695    0.00003900
     atom   36 type  6   force =    -0.00003273   -0.00002695   -0.00003900
     atom   37 type  6   force =    -0.00000211    0.00002582    0.00002523
     atom   38 type  6   force =     0.00000211    0.00002582   -0.00002523
     atom   39 type  3   force =     0.00000434    0.00000129    0.00000519
     atom   40 type  3   force =    -0.00000434    0.00000129   -0.00000519
     atom   41 type  3   force =    -0.00000075    0.00000434   -0.00000481
     atom   42 type  3   force =     0.00000075    0.00000434    0.00000481
     atom   43 type  2   force =    -0.00000000    0.00012727   -0.00000000

     DFT-D3 dispersion contribution to forces:
     atom    1 type  4   force =    -0.00000000    0.00112277    0.00000000
     atom    2 type  4   force =     0.00000000    0.00040923    0.00000000
     atom    3 type  5   force =    -0.00000000   -0.00243958   -0.00000000
     atom    4 type  5   force =     0.00000000   -0.00102126    0.00000000
     atom    5 type  5   force =    -0.00000000    0.00131417    0.00000000
     atom    6 type  5   force =     0.00000000    0.00130586   -0.00000000
     atom    7 type  7   force =    -0.00036718    0.00009075    0.00051952
     atom    8 type  7   force =     0.00036718    0.00009075   -0.00051952
     atom    9 type  7   force =     0.00001608    0.00035626    0.00065007
     atom   10 type  7   force =    -0.00001608    0.00035626   -0.00065007
     atom   11 type  7   force =     0.00011424    0.00086070   -0.00075452
     atom   12 type  7   force =    -0.00011424    0.00086071    0.00075452
     atom   13 type  1   force =    -0.00074922   -0.00000748   -0.00142832
     atom   14 type  1   force =     0.00074922   -0.00000748    0.00142832
     atom   15 type  6   force =    -0.00002365    0.00050192    0.00052322
     atom   16 type  6   force =     0.00002365    0.00050192   -0.00052322
     atom   17 type  6   force =    -0.00011810   -0.00019840   -0.00011116
     atom   18 type  6   force =     0.00011810   -0.00019840    0.00011116
     atom   19 type  6   force =     0.00009972    0.00012571    0.00034023
     atom   20 type  6   force =    -0.00009972    0.00012570   -0.00034023
     atom   21 type  6   force =    -0.00010536    0.00004652   -0.00006145
     atom   22 type  6   force =     0.00010536    0.00004652    0.00006145
     atom   23 type  6   force =    -0.00023641    0.00105613    0.00000736
     atom   24 type  6   force =     0.00023641    0.00105613   -0.00000735
     atom   25 type  6   force =     0.00080370    0.00000484   -0.00008184
     atom   26 type  6   force =    -0.00080370    0.00000484    0.00008184
     atom   27 type  6   force =     0.00049784   -0.00055189   -0.00024424
     atom   28 type  6   force =    -0.00049784   -0.00055189    0.00024424
     atom   29 type  6   force =     0.00000056    0.00018305    0.00055821
     atom   30 type  6   force =    -0.00000056    0.00018305   -0.00055821
     atom   31 type  6   force =     0.00071981   -0.00030264    0.00036259
     atom   32 type  6   force =    -0.00071981   -0.00030264   -0.00036259
     atom   33 type  6   force =     0.00070484   -0.00079701   -0.00032976
     atom   34 type  6   force =    -0.00070484   -0.00079701    0.00032976
     atom   35 type  6   force =    -0.00081618   -0.00122015   -0.00007715
     atom   36 type  6   force =     0.00081618   -0.00122015    0.00007715
     atom   37 type  6   force =    -0.00011632   -0.00015831   -0.00074674
     atom   38 type  6   force =     0.00011632   -0.00015831    0.00074674
     atom   39 type  3   force =    -0.00009973   -0.00018038    0.00004488
     atom   40 type  3   force =     0.00009973   -0.00018038   -0.00004488
     atom   41 type  3   force =    -0.00020677   -0.00090343   -0.00018494
     atom   42 type  3   force =     0.00020677   -0.00090343    0.00018494
     atom   43 type  2   force =     0.00000000    0.00149644   -0.00000000

     Total force =     0.041750     Total SCF correction =     0.000325

     DFT-D3 dispersion Force =     0.006503
     Energy error            =      2.5E-03 Ry
     Gradient error          =      1.1E-02 Ry/Bohr

     number of scf cycles    =  17
     number of bfgs steps    =  16

     energy             old  =   -2344.2123921233 Ry
     energy             new  =   -2344.2148990141 Ry

     CASE: energy            _new < energy            _old

     new trust radius        =       0.1326377970 bohr
     new conv_thr            =       0.0000001147 Ry


ATOMIC_POSITIONS (crystal)
K                0.0000000000        0.5067839655        0.0000000000
K                0.5000000000       -0.0162640220        0.0000000000
Mg              -0.0000000000        0.6453487724        0.5000000000
Mg               0.5000000000        0.4923254082        0.5000000000
Mg               0.5000000000        0.8279115464        0.5000000000
Mg               0.5000000000        0.1895738175        0.5000000000
Si               0.0850930033        0.1592327249        0.2157539581
Si               0.9149069827        0.1592327249        0.7842460719
Si               0.9369934161        0.8291731656        0.7691518213
Si               0.0630065839        0.8291731656        0.2308481787
Si               0.5640931489        0.6621009831        0.2293624894
Si               0.4359068511        0.6621009831        0.7706374956
Al               0.4098549921        0.3311663096        0.7744467514
Al               0.5901450079        0.3311663096        0.2255532486
O                0.1212760759        0.1461822045        0.3818924863
O                0.8787238941        0.1461822045        0.6181075427
O                0.8814511203        0.8486549951        0.6060805492
O                0.1185488797        0.8486549951        0.3939194508
O                0.6376573739        0.6719428411        0.3904705797
O                0.3623426261        0.6719428411        0.6095294203
O                0.3717589705        0.3365055591        0.6055936163
O                0.6282410295        0.3365055591        0.3944063837
O                0.3505056273        0.1967714314        0.1656191236
O                0.6494943727        0.1967714314        0.8343808464
O                0.9981167010        0.9923273735        0.1637044979
O                0.0018832990        0.9923273735        0.8362954871
O                0.6818188981        0.7736453745        0.8256540140
O                0.3181811019        0.7736453745        0.1743459860
O                0.8070069403        0.7363792351        0.1669131912
O                0.1929930597        0.7363792351        0.8330868088
O                0.5094498520        0.5059670753        0.1594472025
O                0.4905501180        0.5059670753        0.8405528125
O                0.1352247940        0.2751418950        0.8395548376
O                0.8647752210        0.2751418950        0.1604451624
O                0.1640931522        0.5480905038        0.3634894929
O                0.8359068628        0.5480905038        0.6365105071
O                0.6422372797        1.0025267869        0.3998131593
O                0.3577627203        1.0025267869        0.6001868107
H                0.0849957035        0.4624637144        0.3169370560
H                0.9150043265        0.4624637144        0.6830629440
H                0.6007852268        0.0212301791        0.3045694860
H                0.3992147732        0.0212301791        0.6954305140
Ti              -0.0000000000        0.0221798757        0.5000000000



     Writing config-only to output data dir ./temp/phl-ti1-ti1.save/ :
     XML data file
     NEW-OLD atomic charge density approx. for the potential

     Check: negative core charge=   -0.000004
     Generating pointlists ...

     total cpu time spent up to now is   236465.1 secs

     Self-consistent Calculation

     iteration #  1     ecut=    60.00 Ry     beta= 0.70
     Davidson diagonalization with overlap

---- Real-time Memory Report at c_bands before calling an iterative solver
           875 MiB given to the printing process from OS
             0 MiB allocation reported by mallinfo(arena+hblkhd)
          1778 MiB available memory on the node where the printing process lives
------------------
