 INFO
nunit      1    1    1
unit   cell
celltype   primcell
shape   parapipedal
 END_INFO
 DIM-GROUP
           3           1
 PRIMVEC
   10.6130163540    0.0000000000    0.0000000000
    0.0000000000    9.1787535370    0.0000000000
   -1.8864729080    0.0000000000   10.2653960280
 CONVVEC
   10.6130163540    0.0000000000    0.0000000000
    0.0000000000    9.1787535370    0.0000000000
   -1.8864729080    0.0000000000   10.2653960280
 PRIMCOORD
          88           1
 19      0.0000000000     4.5569715700     0.0000000000     0.0000000000     0.0000886000     0.0000000000
 19      5.3065103600     4.5569896650     0.0000000000     0.0000000000     0.0000858600     0.0000000000
 19      2.6532597610     0.0538820640    -0.0000029260    -0.0000017900     0.0000005100    -0.0000008600
 19      7.9597622330     0.0538820640     0.0000029260     0.0000017900     0.0000005100     0.0000008600
 12     -0.9432367450     0.0818828430     5.1326951530     0.0000000000    -0.0001707600     0.0000000000
 12      4.3632736150     0.0818771230     5.1326951530     0.0000000000    -0.0001655400     0.0000000000
 12     -0.9432367450     6.0740547840     5.1326951530     0.0000000000    -0.0000442000     0.0000000000
 12      4.3632736150     6.0740420970     5.1326951530     0.0000000000    -0.0000512800     0.0000000000
 12      1.7100188900     4.5003837480     5.1326893450     0.0000132500     0.0000570700     0.0000016800
 12      7.0165311840     4.5003837480     5.1327009610    -0.0000132500     0.0000570700    -0.0000016800
 12      1.7100302820     7.6634059180     5.1326955890     0.0000033800    -0.0000078100     0.0000020700
 12      7.0165197930     7.6634059180     5.1326947160    -0.0000033800    -0.0000078100    -0.0000020700
 12      1.7100314300     1.6017866170     5.1326955420     0.0000082300    -0.0001646800     0.0000002500
 12      7.0165186440     1.6017866170     5.1326947640    -0.0000082300    -0.0001646800    -0.0000002500
 14      0.0275608170     1.5429951410     2.3366787400    -0.0000202500     0.0000164600     0.0000161000
 14      5.3340725530     1.5429973680     2.3366902010    -0.0000171700     0.0000132500     0.0000027300
 14      3.3924777810     1.5429973680     7.9287004230     0.0000171700     0.0000132500    -0.0000027300
 14      8.6989895500     1.5429951410     7.9287118840     0.0000202500     0.0000164600    -0.0000161000
 14      3.5323790560     7.6686484700     7.8600808050    -0.0000361000     0.0000005600    -0.0000093400
 14      8.8388871730     7.6686467810     7.8600813860    -0.0000320000    -0.0000010400    -0.0000061800
 14     -0.1123368570     7.6686467810     2.4053089290     0.0000320000    -0.0000010400     0.0000061800
 14      5.1941716530     7.6686484700     2.4053095100     0.0000361000     0.0000005600     0.0000093400
 14      2.5369435100     6.1234872140     2.3742807860     0.0000378500    -0.0000197600     0.0000715500
 14      7.8434493440     6.1234854830     2.3742827350     0.0000397800    -0.0000214200     0.0000727100
 14      0.8831010470     6.1234854830     7.8911075810    -0.0000397800    -0.0000214200    -0.0000727100
 14      6.1896068810     6.1234872140     7.8911095300    -0.0000378500    -0.0000197600    -0.0000715500
 13      0.7238590970     3.0485225940     7.9202207160     0.0000277700     0.0000066600     0.0000422100
 13      6.0303657690     3.0485251310     7.9202204190     0.0000299000     0.0000057200     0.0000496000
 13      2.6961849680     3.0485251310     2.3451697430    -0.0000299000     0.0000057200    -0.0000496000
 13      8.0026914820     3.0485225940     2.3451694460    -0.0000277700     0.0000066600    -0.0000422100
  8     -0.0557337620     1.5436135260     3.9738851080    -0.0000398800     0.0001464900    -0.0000231900
  8      5.2507802380     1.5436073140     3.9738883150    -0.0000276300     0.0001416600    -0.0000305000
  8      3.4757700390     1.5436073140     6.2915026170     0.0000276300     0.0001416600     0.0000305000
  8      8.7822842840     1.5436135260     6.2915058240     0.0000398800     0.0001464900     0.0000231900
  8      3.5026607810     7.6396526130     6.2412132270    -0.0000472200     0.0000060400    -0.0000335200
  8      8.8091638060     7.6396588490     6.2412136420    -0.0000318100     0.0000044500    -0.0000375200
  8     -0.0826128430     7.6396588490     4.0241769710     0.0000318100     0.0000044500     0.0000375200
  8      5.2238898740     7.6396526130     4.0241773860     0.0000472200     0.0000060400     0.0000335200
  8      2.5672171780     6.1287129900     4.0030470130    -0.0000065200    -0.0000892800     0.0001093400
  8      7.8737213430     6.1287018880     4.0030496290     0.0000101400    -0.0000853000     0.0001131000
  8      0.8528285150     6.1287018880     6.2623409840    -0.0000101400    -0.0000853000    -0.0001131000
  8      6.1593328400     6.1287129900     6.2623436010     0.0000065200    -0.0000892800    -0.0001093400
  8      0.7726530270     3.0566095670     6.1865519000    -0.0000331600     0.0000118700    -0.0000035600
  8      6.0791447240     3.0566090030     6.1865572260    -0.0000103200     0.0000113200     0.0000034900
  8      2.6474060990     3.0566090030     4.0788324740     0.0000103200     0.0000113200    -0.0000034900
  8      7.9538973170     3.0566095670     4.0788378000     0.0000331600     0.0000118700     0.0000035600
  8      1.5203046980     1.8552945550     1.7608940290    -0.0000507100     0.0000671700    -0.0000905800
  8      6.8268176140     1.8552949700     1.7608926100    -0.0000461200     0.0000627000    -0.0000899100
  8      1.8997332080     1.8552949700     8.5044970900     0.0000461200     0.0000627000     0.0000899100
  8      7.2062456470     1.8552945550     8.5044956710     0.0000507100     0.0000671700     0.0000905800
  8     -0.3551885680     9.1765922680     1.7978580810     0.0000058500     0.0000002400     0.0000031400
  8      4.9513229170     9.1765938440     1.7978687210     0.0000083800     0.0000014600    -0.0000023300
  8      3.7752277940     9.1765938440     8.4675215850    -0.0000083800     0.0000014600     0.0000023300
  8      9.0817395550     9.1765922680     8.4675322250    -0.0000058500     0.0000002400    -0.0000031400
  8      2.0988922680     7.1117624880     8.4720170800     0.0000066000    -0.0000659600     0.0000551000
  8      7.4054017330     7.1117627380     8.4720193400     0.0000133500    -0.0000731600     0.0000546000
  8      1.3211489470     7.1117627380     1.7933711290    -0.0000133500    -0.0000731600    -0.0000546000
  8      6.6276580940     7.1117624880     1.7933733900    -0.0000066000    -0.0000659600    -0.0000551000
  8      3.9673203530     6.7502002870     1.7843195880     0.0000284900    -0.0000116700    -0.0000837100
  8      9.2738267290     6.7501969300     1.7843189030     0.0000374700    -0.0000155300    -0.0000715200
  8     -0.5472762640     6.7501969300     8.4810714130    -0.0000374700    -0.0000155300     0.0000715200
  8      4.7592300380     6.7502002870     8.4810707280    -0.0000284900    -0.0000116700     0.0000837100
  8      2.3170179500     4.6656622640     1.7074041930    -0.0000513800     0.0000460900    -0.0000917100
  8      7.6235070950     4.6656575190     1.7074159490    -0.0000367000     0.0000459100    -0.0000917700
  8      1.1030434830     4.6656575190     8.5579742130     0.0000367000     0.0000459100     0.0000917700
  8      6.4095321510     4.6656622640     8.5579859690     0.0000513800     0.0000460900     0.0000917100
  8     -0.8475991690     2.5817244110     8.5866481970    -0.0000087100     0.0000096300     0.0000239300
  8      4.4589108780     2.5817200170     8.5866388220    -0.0000097600     0.0000083200     0.0000323600
  8      4.2676397930     2.5817200170     1.6787516480     0.0000097600     0.0000083200    -0.0000323600
  8      9.5741495320     2.5817244110     1.6787422720     0.0000087100     0.0000096300    -0.0000239300
  8     -0.0825909500     4.5547559080     4.0881707340     0.0000503300     0.0000273300    -0.0000390300
  8      5.2239113730     4.5547340740     4.0882001690     0.0000631400     0.0000267300    -0.0000806500
  8      3.5026389610     4.5547340740     6.1771904540    -0.0000631400     0.0000267300     0.0000806500
  8      8.8091412840     4.5547559080     6.1772198890    -0.0000503300     0.0000273300     0.0000390300
  8      2.5985133720     9.1804090310     4.1044602080    -0.0000343700     0.0000231800     0.0000227900
  8      7.9050040940     9.1804026220     4.1044772970    -0.0000172400     0.0000366800    -0.0000493800
  8      0.8215470820     9.1804026220     6.1609130180     0.0000172400     0.0000366800     0.0000493800
  8      6.1280373370     9.1804090310     6.1609301080     0.0000343700     0.0000231800    -0.0000227900
  1     -0.1238521180     4.3856304650     3.1347984680    -0.0000648800     0.0000186100     0.0000269500
  1      5.1826645370     4.3856337020     3.1348119830    -0.0000632500     0.0000208800     0.0000410500
  1      3.5438864340     4.3856337020     7.1305786400     0.0000632500     0.0000208800    -0.0000410500
  1      8.8504028130     4.3856304650     7.1305921560     0.0000648800     0.0000186100    -0.0000269500
  1      2.5763803370     0.1569524290     3.1502912680    -0.0000200000    -0.0000628900    -0.0000446900
  1      7.8828739820     0.1569480340     3.1502694750    -0.0000174200    -0.0000738800     0.0000277700
  1      0.8436762600     0.1569480340     7.1151208400     0.0000174200    -0.0000738800    -0.0000277700
  1      6.1501703620     0.1569524290     7.1150990480     0.0000200000    -0.0000628900     0.0000446900
 26     -0.9432367450     3.0578043670     5.1326951530     0.0000000000     0.0000003400     0.0000000000
 26      4.3632736150     3.0577835980     5.1326951530     0.0000000000     0.0000078100     0.0000000000
 CONVCOORD
          88           1
 19      0.0000000000     4.5569715700     0.0000000000
 19      5.3065103600     4.5569896650     0.0000000000
 19      2.6532597610     0.0538820640    -0.0000029260
 19      7.9597622330     0.0538820640     0.0000029260
 12     -0.9432367450     0.0818828430     5.1326951530
 12      4.3632736150     0.0818771230     5.1326951530
 12     -0.9432367450     6.0740547840     5.1326951530
 12      4.3632736150     6.0740420970     5.1326951530
 12      1.7100188900     4.5003837480     5.1326893450
 12      7.0165311840     4.5003837480     5.1327009610
 12      1.7100302820     7.6634059180     5.1326955890
 12      7.0165197930     7.6634059180     5.1326947160
 12      1.7100314300     1.6017866170     5.1326955420
 12      7.0165186440     1.6017866170     5.1326947640
 14      0.0275608170     1.5429951410     2.3366787400
 14      5.3340725530     1.5429973680     2.3366902010
 14      3.3924777810     1.5429973680     7.9287004230
 14      8.6989895500     1.5429951410     7.9287118840
 14      3.5323790560     7.6686484700     7.8600808050
 14      8.8388871730     7.6686467810     7.8600813860
 14     -0.1123368570     7.6686467810     2.4053089290
 14      5.1941716530     7.6686484700     2.4053095100
 14      2.5369435100     6.1234872140     2.3742807860
 14      7.8434493440     6.1234854830     2.3742827350
 14      0.8831010470     6.1234854830     7.8911075810
 14      6.1896068810     6.1234872140     7.8911095300
 13      0.7238590970     3.0485225940     7.9202207160
 13      6.0303657690     3.0485251310     7.9202204190
 13      2.6961849680     3.0485251310     2.3451697430
 13      8.0026914820     3.0485225940     2.3451694460
  8     -0.0557337620     1.5436135260     3.9738851080
  8      5.2507802380     1.5436073140     3.9738883150
  8      3.4757700390     1.5436073140     6.2915026170
  8      8.7822842840     1.5436135260     6.2915058240
  8      3.5026607810     7.6396526130     6.2412132270
  8      8.8091638060     7.6396588490     6.2412136420
  8     -0.0826128430     7.6396588490     4.0241769710
  8      5.2238898740     7.6396526130     4.0241773860
  8      2.5672171780     6.1287129900     4.0030470130
  8      7.8737213430     6.1287018880     4.0030496290
  8      0.8528285150     6.1287018880     6.2623409840
  8      6.1593328400     6.1287129900     6.2623436010
  8      0.7726530270     3.0566095670     6.1865519000
  8      6.0791447240     3.0566090030     6.1865572260
  8      2.6474060990     3.0566090030     4.0788324740
  8      7.9538973170     3.0566095670     4.0788378000
  8      1.5203046980     1.8552945550     1.7608940290
  8      6.8268176140     1.8552949700     1.7608926100
  8      1.8997332080     1.8552949700     8.5044970900
  8      7.2062456470     1.8552945550     8.5044956710
  8     -0.3551885680     9.1765922680     1.7978580810
  8      4.9513229170     9.1765938440     1.7978687210
  8      3.7752277940     9.1765938440     8.4675215850
  8     -1.5312767990     9.1765922680     8.4675322250
  8      2.0988922680     7.1117624880     8.4720170800
  8      7.4054017330     7.1117627380     8.4720193400
  8      1.3211489470     7.1117627380     1.7933711290
  8      6.6276580940     7.1117624880     1.7933733900
  8      3.9673203530     6.7502002870     1.7843195880
  8      9.2738267290     6.7501969300     1.7843189030
  8     -0.5472762640     6.7501969300     8.4810714130
  8      4.7592300380     6.7502002870     8.4810707280
  8      2.3170179500     4.6656622640     1.7074041930
  8      7.6235070950     4.6656575190     1.7074159490
  8      1.1030434830     4.6656575190     8.5579742130
  8      6.4095321510     4.6656622640     8.5579859690
  8     -0.8475991690     2.5817244110     8.5866481970
  8      4.4589108780     2.5817200170     8.5866388220
  8      4.2676397930     2.5817200170     1.6787516480
  8      9.5741495320     2.5817244110     1.6787422720
  8     -0.0825909500     4.5547559080     4.0881707340
  8      5.2239113730     4.5547340740     4.0882001690
  8      3.5026389610     4.5547340740     6.1771904540
  8      8.8091412840     4.5547559080     6.1772198890
  8      2.5985133720     0.0016554940     4.1044602080
  8      7.9050040940     0.0016490850     4.1044772970
  8      0.8215470820     0.0016490850     6.1609130180
  8      6.1280373370     0.0016554940     6.1609301080
  1     -0.1238521180     4.3856304650     3.1347984680
  1      5.1826645370     4.3856337020     3.1348119830
  1      3.5438864340     4.3856337020     7.1305786400
  1      8.8504028130     4.3856304650     7.1305921560
  1      2.5763803370     0.1569524290     3.1502912680
  1      7.8828739820     0.1569480340     3.1502694750
  1      0.8436762600     0.1569480340     7.1151208400
  1      6.1501703620     0.1569524290     7.1150990480
 26     -0.9432367450     3.0578043670     5.1326951530
 26      4.3632736150     3.0577835980     5.1326951530
 RECIP-PRIMVEC
    0.0942239196   -0.0000000000    0.0173155396

    0.0000000000    0.1089472548   -0.0000000000

    0.0000000000    0.0000000000    0.0974146538

 RECIP-CONVVEC
    0.0942239196   -0.0000000000    0.0173155396

    0.0000000000    0.1089472548   -0.0000000000

    0.0000000000    0.0000000000    0.0974146538

 WIGNER-SEITZ-PRIMCELL
           6
 -0.5306508E+01 -0.4589377E+01  0.4330859E+01  -0.0000000E+00 -0.1000000E+01 -0.0000000E+00
 -0.5306508E+01 -0.4589377E+01 -0.4330859E+01  -0.0000000E+00 -0.1000000E+01 -0.0000000E+00
 -0.3420035E+01 -0.4589377E+01 -0.5934537E+01  -0.0000000E+00 -0.1000000E+01 -0.0000000E+00
  0.5306508E+01 -0.4589377E+01 -0.4330859E+01  -0.0000000E+00 -0.1000000E+01 -0.0000000E+00
  0.5306508E+01 -0.4589377E+01  0.4330859E+01  -0.0000000E+00 -0.1000000E+01 -0.0000000E+00
  0.3420035E+01 -0.4589377E+01  0.5934537E+01  -0.0000000E+00 -0.1000000E+01 -0.0000000E+00
           4
  0.3420035E+01  0.4589377E+01  0.5934537E+01   0.6476896E+00  0.0000000E+00  0.7619043E+00
  0.3420035E+01 -0.4589377E+01  0.5934537E+01   0.6476896E+00  0.0000000E+00  0.7619043E+00
  0.5306508E+01 -0.4589377E+01  0.4330859E+01   0.6476896E+00  0.0000000E+00  0.7619043E+00
  0.5306508E+01  0.4589377E+01  0.4330859E+01   0.6476896E+00  0.0000000E+00  0.7619043E+00
           4
 -0.5306508E+01  0.4589377E+01  0.4330859E+01  -0.1807435E+00 -0.0000000E+00  0.9835303E+00
 -0.5306508E+01 -0.4589377E+01  0.4330859E+01  -0.1807435E+00 -0.0000000E+00  0.9835303E+00
  0.3420035E+01 -0.4589377E+01  0.5934537E+01  -0.1807435E+00 -0.0000000E+00  0.9835303E+00
  0.3420035E+01  0.4589377E+01  0.5934537E+01  -0.1807435E+00 -0.0000000E+00  0.9835303E+00
           4
  0.5306508E+01 -0.4589377E+01  0.4330859E+01   0.1000000E+01  0.0000000E+00  0.0000000E+00
  0.5306508E+01 -0.4589377E+01 -0.4330859E+01   0.1000000E+01  0.0000000E+00  0.0000000E+00
  0.5306508E+01  0.4589377E+01 -0.4330859E+01   0.1000000E+01  0.0000000E+00  0.0000000E+00
  0.5306508E+01  0.4589377E+01  0.4330859E+01   0.1000000E+01  0.0000000E+00  0.0000000E+00
           4
 -0.5306508E+01  0.4589377E+01  0.4330859E+01  -0.1000000E+01 -0.0000000E+00 -0.0000000E+00
 -0.5306508E+01  0.4589377E+01 -0.4330859E+01  -0.1000000E+01 -0.0000000E+00 -0.0000000E+00
 -0.5306508E+01 -0.4589377E+01 -0.4330859E+01  -0.1000000E+01 -0.0000000E+00 -0.0000000E+00
 -0.5306508E+01 -0.4589377E+01  0.4330859E+01  -0.1000000E+01 -0.0000000E+00 -0.0000000E+00
           4
  0.5306508E+01  0.4589377E+01 -0.4330859E+01   0.1807435E+00  0.0000000E+00 -0.9835303E+00
  0.5306508E+01 -0.4589377E+01 -0.4330859E+01   0.1807435E+00  0.0000000E+00 -0.9835303E+00
 -0.3420035E+01 -0.4589377E+01 -0.5934537E+01   0.1807435E+00  0.0000000E+00 -0.9835303E+00
 -0.3420035E+01  0.4589377E+01 -0.5934537E+01   0.1807435E+00  0.0000000E+00 -0.9835303E+00
           4
 -0.3420035E+01  0.4589377E+01 -0.5934537E+01  -0.6476896E+00 -0.1563242E-15 -0.7619043E+00
 -0.3420035E+01 -0.4589377E+01 -0.5934537E+01  -0.6476896E+00 -0.1563242E-15 -0.7619043E+00
 -0.5306508E+01 -0.4589377E+01 -0.4330859E+01  -0.6476896E+00 -0.1563242E-15 -0.7619043E+00
 -0.5306508E+01  0.4589377E+01 -0.4330859E+01  -0.6476896E+00 -0.1563242E-15 -0.7619043E+00
           6
  0.3420035E+01  0.4589377E+01  0.5934537E+01   0.0000000E+00  0.1000000E+01  0.0000000E+00
  0.5306508E+01  0.4589377E+01  0.4330859E+01   0.0000000E+00  0.1000000E+01  0.0000000E+00
  0.5306508E+01  0.4589377E+01 -0.4330859E+01   0.0000000E+00  0.1000000E+01  0.0000000E+00
 -0.3420035E+01  0.4589377E+01 -0.5934537E+01   0.0000000E+00  0.1000000E+01  0.0000000E+00
 -0.5306508E+01  0.4589377E+01 -0.4330859E+01   0.0000000E+00  0.1000000E+01  0.0000000E+00
 -0.5306508E+01  0.4589377E+01  0.4330859E+01   0.0000000E+00  0.1000000E+01  0.0000000E+00
 WIGNER-SEITZ-PRIMCELL_END
 WIGNER-SEITZ-CONVCELL
           6
 -0.5306508E+01 -0.4589377E+01  0.4330859E+01  -0.0000000E+00 -0.1000000E+01 -0.0000000E+00
 -0.5306508E+01 -0.4589377E+01 -0.4330859E+01  -0.0000000E+00 -0.1000000E+01 -0.0000000E+00
 -0.3420035E+01 -0.4589377E+01 -0.5934537E+01  -0.0000000E+00 -0.1000000E+01 -0.0000000E+00
  0.5306508E+01 -0.4589377E+01 -0.4330859E+01  -0.0000000E+00 -0.1000000E+01 -0.0000000E+00
  0.5306508E+01 -0.4589377E+01  0.4330859E+01  -0.0000000E+00 -0.1000000E+01 -0.0000000E+00
  0.3420035E+01 -0.4589377E+01  0.5934537E+01  -0.0000000E+00 -0.1000000E+01 -0.0000000E+00
           4
  0.3420035E+01  0.4589377E+01  0.5934537E+01   0.6476896E+00  0.0000000E+00  0.7619043E+00
  0.3420035E+01 -0.4589377E+01  0.5934537E+01   0.6476896E+00  0.0000000E+00  0.7619043E+00
  0.5306508E+01 -0.4589377E+01  0.4330859E+01   0.6476896E+00  0.0000000E+00  0.7619043E+00
  0.5306508E+01  0.4589377E+01  0.4330859E+01   0.6476896E+00  0.0000000E+00  0.7619043E+00
           4
 -0.5306508E+01  0.4589377E+01  0.4330859E+01  -0.1807435E+00 -0.0000000E+00  0.9835303E+00
 -0.5306508E+01 -0.4589377E+01  0.4330859E+01  -0.1807435E+00 -0.0000000E+00  0.9835303E+00
  0.3420035E+01 -0.4589377E+01  0.5934537E+01  -0.1807435E+00 -0.0000000E+00  0.9835303E+00
  0.3420035E+01  0.4589377E+01  0.5934537E+01  -0.1807435E+00 -0.0000000E+00  0.9835303E+00
           4
  0.5306508E+01 -0.4589377E+01  0.4330859E+01   0.1000000E+01  0.0000000E+00  0.0000000E+00
  0.5306508E+01 -0.4589377E+01 -0.4330859E+01   0.1000000E+01  0.0000000E+00  0.0000000E+00
  0.5306508E+01  0.4589377E+01 -0.4330859E+01   0.1000000E+01  0.0000000E+00  0.0000000E+00
  0.5306508E+01  0.4589377E+01  0.4330859E+01   0.1000000E+01  0.0000000E+00  0.0000000E+00
           4
 -0.5306508E+01  0.4589377E+01  0.4330859E+01  -0.1000000E+01 -0.0000000E+00 -0.0000000E+00
 -0.5306508E+01  0.4589377E+01 -0.4330859E+01  -0.1000000E+01 -0.0000000E+00 -0.0000000E+00
 -0.5306508E+01 -0.4589377E+01 -0.4330859E+01  -0.1000000E+01 -0.0000000E+00 -0.0000000E+00
 -0.5306508E+01 -0.4589377E+01  0.4330859E+01  -0.1000000E+01 -0.0000000E+00 -0.0000000E+00
           4
  0.5306508E+01  0.4589377E+01 -0.4330859E+01   0.1807435E+00  0.0000000E+00 -0.9835303E+00
  0.5306508E+01 -0.4589377E+01 -0.4330859E+01   0.1807435E+00  0.0000000E+00 -0.9835303E+00
 -0.3420035E+01 -0.4589377E+01 -0.5934537E+01   0.1807435E+00  0.0000000E+00 -0.9835303E+00
 -0.3420035E+01  0.4589377E+01 -0.5934537E+01   0.1807435E+00  0.0000000E+00 -0.9835303E+00
           4
 -0.3420035E+01  0.4589377E+01 -0.5934537E+01  -0.6476896E+00 -0.1563242E-15 -0.7619043E+00
 -0.3420035E+01 -0.4589377E+01 -0.5934537E+01  -0.6476896E+00 -0.1563242E-15 -0.7619043E+00
 -0.5306508E+01 -0.4589377E+01 -0.4330859E+01  -0.6476896E+00 -0.1563242E-15 -0.7619043E+00
 -0.5306508E+01  0.4589377E+01 -0.4330859E+01  -0.6476896E+00 -0.1563242E-15 -0.7619043E+00
           6
  0.3420035E+01  0.4589377E+01  0.5934537E+01   0.0000000E+00  0.1000000E+01  0.0000000E+00
  0.5306508E+01  0.4589377E+01  0.4330859E+01   0.0000000E+00  0.1000000E+01  0.0000000E+00
  0.5306508E+01  0.4589377E+01 -0.4330859E+01   0.0000000E+00  0.1000000E+01  0.0000000E+00
 -0.3420035E+01  0.4589377E+01 -0.5934537E+01   0.0000000E+00  0.1000000E+01  0.0000000E+00
 -0.5306508E+01  0.4589377E+01 -0.4330859E+01   0.0000000E+00  0.1000000E+01  0.0000000E+00
 -0.5306508E+01  0.4589377E+01  0.4330859E+01   0.0000000E+00  0.1000000E+01  0.0000000E+00
 WIGNER-SEITZ-CONVCELL_END
 BRILLOUIN-ZONE-PRIMCELL
           4
 -0.5447187E-01 -0.5447363E-01  0.3139179E-01  -0.9835303E+00 -0.4887806E-16 -0.1807435E+00
 -0.5447187E-01  0.5447363E-01  0.3139179E-01  -0.9835303E+00 -0.4887806E-16 -0.1807435E+00
 -0.3975205E-01  0.5447363E-01 -0.4870733E-01  -0.9835303E+00 -0.4887806E-16 -0.1807435E+00
 -0.3975205E-01 -0.5447363E-01 -0.4870733E-01  -0.9835303E+00 -0.4887806E-16 -0.1807435E+00
           4
 -0.3975205E-01  0.5447363E-01  0.4870733E-01  -0.7619043E+00 -0.9920080E-16  0.6476896E+00
 -0.5447187E-01  0.5447363E-01  0.3139179E-01  -0.7619043E+00 -0.9920080E-16  0.6476896E+00
 -0.5447187E-01 -0.5447363E-01  0.3139179E-01  -0.7619043E+00 -0.9920080E-16  0.6476896E+00
 -0.3975205E-01 -0.5447363E-01  0.4870733E-01  -0.7619043E+00 -0.9920080E-16  0.6476896E+00
           6
  0.3975205E-01 -0.5447363E-01  0.4870733E-01   0.0000000E+00 -0.1000000E+01  0.0000000E+00
 -0.3975205E-01 -0.5447363E-01  0.4870733E-01   0.0000000E+00 -0.1000000E+01  0.0000000E+00
 -0.5447187E-01 -0.5447363E-01  0.3139179E-01   0.0000000E+00 -0.1000000E+01  0.0000000E+00
 -0.3975205E-01 -0.5447363E-01 -0.4870733E-01   0.0000000E+00 -0.1000000E+01  0.0000000E+00
  0.3975205E-01 -0.5447363E-01 -0.4870733E-01   0.0000000E+00 -0.1000000E+01  0.0000000E+00
  0.5447187E-01 -0.5447363E-01 -0.3139179E-01   0.0000000E+00 -0.1000000E+01  0.0000000E+00
           4
 -0.3975205E-01 -0.5447363E-01 -0.4870733E-01   0.6111774E-16 -0.5006849E-16 -0.1000000E+01
 -0.3975205E-01  0.5447363E-01 -0.4870733E-01   0.6111774E-16 -0.5006849E-16 -0.1000000E+01
  0.3975205E-01  0.5447363E-01 -0.4870733E-01   0.6111774E-16 -0.5006849E-16 -0.1000000E+01
  0.3975205E-01 -0.5447363E-01 -0.4870733E-01   0.6111774E-16 -0.5006849E-16 -0.1000000E+01
           4
 -0.3975205E-01 -0.5447363E-01  0.4870733E-01  -0.0000000E+00  0.3901923E-16  0.1000000E+01
  0.3975205E-01 -0.5447363E-01  0.4870733E-01  -0.0000000E+00  0.3901923E-16  0.1000000E+01
  0.3975205E-01  0.5447363E-01  0.4870733E-01  -0.0000000E+00  0.3901923E-16  0.1000000E+01
 -0.3975205E-01  0.5447363E-01  0.4870733E-01  -0.0000000E+00  0.3901923E-16  0.1000000E+01
           6
  0.5447187E-01  0.5447363E-01 -0.3139179E-01  -0.0000000E+00  0.1000000E+01  0.1260099E-14
  0.3975205E-01  0.5447363E-01 -0.4870733E-01  -0.0000000E+00  0.1000000E+01  0.1260099E-14
 -0.3975205E-01  0.5447363E-01 -0.4870733E-01  -0.0000000E+00  0.1000000E+01  0.1260099E-14
 -0.5447187E-01  0.5447363E-01  0.3139179E-01  -0.0000000E+00  0.1000000E+01  0.1260099E-14
 -0.3975205E-01  0.5447363E-01  0.4870733E-01  -0.0000000E+00  0.1000000E+01  0.1260099E-14
  0.3975205E-01  0.5447363E-01  0.4870733E-01  -0.0000000E+00  0.1000000E+01  0.1260099E-14
           4
  0.5447187E-01  0.5447363E-01 -0.3139179E-01   0.7619043E+00  0.1751533E-15 -0.6476896E+00
  0.5447187E-01 -0.5447363E-01 -0.3139179E-01   0.7619043E+00  0.1751533E-15 -0.6476896E+00
  0.3975205E-01 -0.5447363E-01 -0.4870733E-01   0.7619043E+00  0.1751533E-15 -0.6476896E+00
  0.3975205E-01  0.5447363E-01 -0.4870733E-01   0.7619043E+00  0.1751533E-15 -0.6476896E+00
           4
  0.5447187E-01 -0.5447363E-01 -0.3139179E-01   0.9835303E+00 -0.1466342E-15  0.1807435E+00
  0.5447187E-01  0.5447363E-01 -0.3139179E-01   0.9835303E+00 -0.1466342E-15  0.1807435E+00
  0.3975205E-01  0.5447363E-01  0.4870733E-01   0.9835303E+00 -0.1466342E-15  0.1807435E+00
  0.3975205E-01 -0.5447363E-01  0.4870733E-01   0.9835303E+00 -0.1466342E-15  0.1807435E+00
 BRILLOUIN-ZONE-PRIMCELL_END
 BRILLOUIN-ZONE-CONVCELL
           4
 -0.5447187E-01 -0.5447363E-01  0.3139179E-01  -0.9835303E+00 -0.4887806E-16 -0.1807435E+00
 -0.5447187E-01  0.5447363E-01  0.3139179E-01  -0.9835303E+00 -0.4887806E-16 -0.1807435E+00
 -0.3975205E-01  0.5447363E-01 -0.4870733E-01  -0.9835303E+00 -0.4887806E-16 -0.1807435E+00
 -0.3975205E-01 -0.5447363E-01 -0.4870733E-01  -0.9835303E+00 -0.4887806E-16 -0.1807435E+00
           4
 -0.3975205E-01  0.5447363E-01  0.4870733E-01  -0.7619043E+00 -0.9920080E-16  0.6476896E+00
 -0.5447187E-01  0.5447363E-01  0.3139179E-01  -0.7619043E+00 -0.9920080E-16  0.6476896E+00
 -0.5447187E-01 -0.5447363E-01  0.3139179E-01  -0.7619043E+00 -0.9920080E-16  0.6476896E+00
 -0.3975205E-01 -0.5447363E-01  0.4870733E-01  -0.7619043E+00 -0.9920080E-16  0.6476896E+00
           6
  0.3975205E-01 -0.5447363E-01  0.4870733E-01   0.0000000E+00 -0.1000000E+01  0.0000000E+00
 -0.3975205E-01 -0.5447363E-01  0.4870733E-01   0.0000000E+00 -0.1000000E+01  0.0000000E+00
 -0.5447187E-01 -0.5447363E-01  0.3139179E-01   0.0000000E+00 -0.1000000E+01  0.0000000E+00
 -0.3975205E-01 -0.5447363E-01 -0.4870733E-01   0.0000000E+00 -0.1000000E+01  0.0000000E+00
  0.3975205E-01 -0.5447363E-01 -0.4870733E-01   0.0000000E+00 -0.1000000E+01  0.0000000E+00
  0.5447187E-01 -0.5447363E-01 -0.3139179E-01   0.0000000E+00 -0.1000000E+01  0.0000000E+00
           4
 -0.3975205E-01 -0.5447363E-01 -0.4870733E-01   0.6111774E-16 -0.5006849E-16 -0.1000000E+01
 -0.3975205E-01  0.5447363E-01 -0.4870733E-01   0.6111774E-16 -0.5006849E-16 -0.1000000E+01
  0.3975205E-01  0.5447363E-01 -0.4870733E-01   0.6111774E-16 -0.5006849E-16 -0.1000000E+01
  0.3975205E-01 -0.5447363E-01 -0.4870733E-01   0.6111774E-16 -0.5006849E-16 -0.1000000E+01
           4
 -0.3975205E-01 -0.5447363E-01  0.4870733E-01  -0.0000000E+00  0.3901923E-16  0.1000000E+01
  0.3975205E-01 -0.5447363E-01  0.4870733E-01  -0.0000000E+00  0.3901923E-16  0.1000000E+01
  0.3975205E-01  0.5447363E-01  0.4870733E-01  -0.0000000E+00  0.3901923E-16  0.1000000E+01
 -0.3975205E-01  0.5447363E-01  0.4870733E-01  -0.0000000E+00  0.3901923E-16  0.1000000E+01
           6
  0.5447187E-01  0.5447363E-01 -0.3139179E-01  -0.0000000E+00  0.1000000E+01  0.1260099E-14
  0.3975205E-01  0.5447363E-01 -0.4870733E-01  -0.0000000E+00  0.1000000E+01  0.1260099E-14
 -0.3975205E-01  0.5447363E-01 -0.4870733E-01  -0.0000000E+00  0.1000000E+01  0.1260099E-14
 -0.5447187E-01  0.5447363E-01  0.3139179E-01  -0.0000000E+00  0.1000000E+01  0.1260099E-14
 -0.3975205E-01  0.5447363E-01  0.4870733E-01  -0.0000000E+00  0.1000000E+01  0.1260099E-14
  0.3975205E-01  0.5447363E-01  0.4870733E-01  -0.0000000E+00  0.1000000E+01  0.1260099E-14
           4
  0.5447187E-01  0.5447363E-01 -0.3139179E-01   0.7619043E+00  0.1751533E-15 -0.6476896E+00
  0.5447187E-01 -0.5447363E-01 -0.3139179E-01   0.7619043E+00  0.1751533E-15 -0.6476896E+00
  0.3975205E-01 -0.5447363E-01 -0.4870733E-01   0.7619043E+00  0.1751533E-15 -0.6476896E+00
  0.3975205E-01  0.5447363E-01 -0.4870733E-01   0.7619043E+00  0.1751533E-15 -0.6476896E+00
           4
  0.5447187E-01 -0.5447363E-01 -0.3139179E-01   0.9835303E+00 -0.1466342E-15  0.1807435E+00
  0.5447187E-01  0.5447363E-01 -0.3139179E-01   0.9835303E+00 -0.1466342E-15  0.1807435E+00
  0.3975205E-01  0.5447363E-01  0.4870733E-01   0.9835303E+00 -0.1466342E-15  0.1807435E+00
  0.3975205E-01 -0.5447363E-01  0.4870733E-01   0.9835303E+00 -0.1466342E-15  0.1807435E+00
 BRILLOUIN-ZONE-CONVCELL_END
 ATOMS
   19    0.0000000000    4.5569715700    0.0000000000    0.0000000000    0.0000886000    0.0000000000
   19    5.3065103600    4.5569896650    0.0000000000    0.0000000000    0.0000858600    0.0000000000
   19    2.6532597610    0.0538820640   -0.0000029260   -0.0000017900    0.0000005100   -0.0000008600
   19    7.9597622330    0.0538820640    0.0000029260    0.0000017900    0.0000005100    0.0000008600
   12   -0.9432367450    0.0818828430    5.1326951530    0.0000000000   -0.0001707600    0.0000000000
   12    4.3632736150    0.0818771230    5.1326951530    0.0000000000   -0.0001655400    0.0000000000
   12   -0.9432367450    6.0740547840    5.1326951530    0.0000000000   -0.0000442000    0.0000000000
   12    4.3632736150    6.0740420970    5.1326951530    0.0000000000   -0.0000512800    0.0000000000
   12    1.7100188900    4.5003837480    5.1326893450    0.0000132500    0.0000570700    0.0000016800