--------------------------------------------------------------------------
WARNING: There is at least non-excluded one OpenFabrics device found,
but there are no active ports detected (or Open MPI was unable to use
them).  This is most certainly not what you wanted.  Check your
cables, subnet manager configuration, etc.  The openib BTL will be
ignored for this job.

  Local host: miserver1
--------------------------------------------------------------------------

     Program PWSCF v.7.3.1 starts on 21Feb2025 at 13:33:48 

     This program is part of the open-source Quantum ESPRESSO suite
     for quantum simulation of materials; please cite
         "P. Giannozzi et al., J. Phys.:Condens. Matter 21 395502 (2009);
         "P. Giannozzi et al., J. Phys.:Condens. Matter 29 465901 (2017);
         "P. Giannozzi et al., J. Chem. Phys. 152 154105 (2020);
          URL http://www.quantum-espresso.org", 
     in publications or presentations arising from this work. More details at
     http://www.quantum-espresso.org/quote

     Parallel version (MPI), running on     6 processors

     MPI processes distributed on     1 nodes
     14769 MiB available memory on the printing compute node when the environment starts

     Reading input from vc_relax.in

     Current dimensions of program PWSCF are:
     Max number of different atomic species (ntypx) = 10
     Max number of k-points (npk) =  40000
     Max angular momentum in pseudopotentials (lmaxx) =  4
     file Al.pbe-n-kjpaw_psl.1.0.0.UPF: wavefunction(s)  3S 3P renormalized
     file Fe.pbe-spn-kjpaw_psl.1.0.0.UPF: wavefunction(s)  3P 3D renormalized
     file Fe.pbe-spn-kjpaw_psl.1.0.0.UPF: wavefunction(s)  3P 3D renormalized
     file H.pbe-kjpaw_psl.1.0.0.UPF: wavefunction(s)  1S renormalized
     file K.pbe-spn-kjpaw_psl.1.0.0.UPF: wavefunction(s)  3S renormalized
     file Mg.pbe-spnl-kjpaw_psl.1.0.0.UPF: wavefunction(s)  2P renormalized
     file O.pbe-n-kjpaw_psl.1.0.0.UPF: wavefunction(s)  2S 2P renormalized
     file Si.pbe-n-kjpaw_psl.1.0.0.UPF: wavefunction(s)  3S 3P renormalized

     R & G space division:  proc/nbgrp/npool/nimage =       6
     Subspace diagonalization in iterative solution of the eigenvalue problem:
     one sub-group per band group will be used
     custom distributed-memory algorithm (size of sub-group:  2*  2 procs)


     Parallelization info
     --------------------
     sticks:   dense  smooth     PW     G-vecs:    dense   smooth      PW
     Min        2245    1122    295               202075    71450    9650
     Max        2246    1123    296               202076    71451    9652
     Sum       13475    6737   1775              1212455   428701   57909

     Using Slab Decomposition



     bravais-lattice index     =          -12
     lattice parameter (alat)  =      20.1351  a.u.
     unit-cell volume          =    6828.4878 (a.u.)^3
     number of atoms/cell      =           88
     number of atomic types    =            8
     number of electrons       =       524.00
     number of Kohn-Sham states=          314
     kinetic-energy cutoff     =      60.0000  Ry
     charge density cutoff     =     480.0000  Ry
     scf convergence threshold =      1.0E-06
     mixing beta               =       0.7000
     number of iterations used =            8  plain     mixing
     energy convergence thresh.=      1.0E-06
     force convergence thresh. =      1.0E-03
     press convergence thresh. =      5.0E-01
     Exchange-correlation= SLA  PW   PBX  PBC
                           (   1   4   3   4   0   0   0)
     nstep                     =           50


     celldm(1)=  20.135087  celldm(2)=   0.869801  celldm(3)=   0.977339
     celldm(4)=   0.000000  celldm(5)=  -0.178119  celldm(6)=   0.000000

     crystal axes: (cart. coord. in units of alat)
               a(1) = (   1.000000   0.000000   0.000000 )  
               a(2) = (   0.000000   0.869801   0.000000 )  
               a(3) = (  -0.174083   0.000000   0.961710 )  

     reciprocal axes: (cart. coord. in units 2 pi/alat)
               b(1) = (  1.000000 -0.000000  0.181014 )  
               b(2) = (  0.000000  1.149688 -0.000000 )  
               b(3) = (  0.000000  0.000000  1.039814 )  


     PseudoPot. # 1 for Al read from file:
     ./../../../pseudos/Al.pbe-n-kjpaw_psl.1.0.0.UPF
     MD5 check sum: 502b6b27b9c6270cab5dd1084b96fa6d
     Pseudo is Projector augmented-wave + core cor, Zval =  3.0
     Generated using &quot;atomic&quot; code by A. Dal Corso  v.6.3
     Shape of augmentation charge: PSQ
     Using radial grid of 1135 points,  6 beta functions with: 
                l(1) =   0
                l(2) =   0
                l(3) =   1
                l(4) =   1
                l(5) =   2
                l(6) =   2
     Q(r) pseudized with 0 coefficients 


     PseudoPot. # 2 for Fe read from file:
     ./../../../pseudos/Fe.pbe-spn-kjpaw_psl.1.0.0.UPF
     MD5 check sum: fc81f059e5c5069939230b1155715ae8
     Pseudo is Projector augmented-wave + core cor, Zval = 16.0
     Generated using &quot;atomic&quot; code by A. Dal Corso  v.6.3
     Shape of augmentation charge: PSQ
     Using radial grid of 1191 points,  6 beta functions with: 
                l(1) =   0
                l(2) =   0
                l(3) =   1
                l(4) =   1
                l(5) =   2
                l(6) =   2
     Q(r) pseudized with 0 coefficients 


     PseudoPot. # 3 for Fe read from file:
     ./../../../pseudos/Fe.pbe-spn-kjpaw_psl.1.0.0.UPF
     MD5 check sum: fc81f059e5c5069939230b1155715ae8
     Pseudo is Projector augmented-wave + core cor, Zval = 16.0
     Generated using &quot;atomic&quot; code by A. Dal Corso  v.6.3
     Shape of augmentation charge: PSQ
     Using radial grid of 1191 points,  6 beta functions with: 
                l(1) =   0
                l(2) =   0
                l(3) =   1
                l(4) =   1
                l(5) =   2
                l(6) =   2
     Q(r) pseudized with 0 coefficients 


     PseudoPot. # 4 for H  read from file:
     ./../../../pseudos/H.pbe-kjpaw_psl.1.0.0.UPF
     MD5 check sum: d81a744832360e4a8af0b0b5b123bc2a
     Pseudo is Projector augmented-wave, Zval =  1.0
     Generated using &quot;atomic&quot; code by A. Dal Corso  v.6.3MaX
     Shape of augmentation charge: PSQ
     Using radial grid of  929 points,  2 beta functions with: 
                l(1) =   0
                l(2) =   0
     Q(r) pseudized with 0 coefficients 


     PseudoPot. # 5 for K  read from file:
     ./../../../pseudos/K.pbe-spn-kjpaw_psl.1.0.0.UPF
     MD5 check sum: 34cc42130a09071ebe376fd42eb21491
     Pseudo is Projector augmented-wave + core cor, Zval =  9.0
     Generated using &quot;atomic&quot; code by A. Dal Corso  v.6.2.2
     Shape of augmentation charge: PSQ
     Using radial grid of 1165 points,  6 beta functions with: 
                l(1) =   0
                l(2) =   0
                l(3) =   1
                l(4) =   1
                l(5) =   2
                l(6) =   2
     Q(r) pseudized with 0 coefficients 


     PseudoPot. # 6 for Mg read from file:
     ./../../../pseudos/Mg.pbe-spnl-kjpaw_psl.1.0.0.UPF
     MD5 check sum: fda14e0d92a6a9a5ebed782e5a4b3067
     Pseudo is Projector augmented-wave + core cor, Zval = 10.0
     Generated using &quot;atomic&quot; code by A. Dal Corso  v.6.3
     Shape of augmentation charge: PSQ
     Using radial grid of 1129 points,  4 beta functions with: 
                l(1) =   0
                l(2) =   0
                l(3) =   1
                l(4) =   1
     Q(r) pseudized with 0 coefficients 


     PseudoPot. # 7 for O  read from file:
     ./../../../pseudos/O.pbe-n-kjpaw_psl.1.0.0.UPF
     MD5 check sum: e99d9cef9b487d1ca56f5b95ecd0fd7a
     Pseudo is Projector augmented-wave + core cor, Zval =  6.0
     Generated using &quot;atomic&quot; code by A. Dal Corso  v.6.3
     Shape of augmentation charge: PSQ
     Using radial grid of 1095 points,  4 beta functions with: 
                l(1) =   0
                l(2) =   0
                l(3) =   1
                l(4) =   1
     Q(r) pseudized with 0 coefficients 


     PseudoPot. # 8 for Si read from file:
     ./../../../pseudos/Si.pbe-n-kjpaw_psl.1.0.0.UPF
     MD5 check sum: c39c59da582df4a0d9f10159256ea34e
     Pseudo is Projector augmented-wave + core cor, Zval =  4.0
     Generated using &quot;atomic&quot; code by A. Dal Corso  v.6.3
     Shape of augmentation charge: PSQ
     Using radial grid of 1141 points,  6 beta functions with: 
                l(1) =   0
                l(2) =   0
                l(3) =   1
                l(4) =   1
                l(5) =   2
                l(6) =   2
     Q(r) pseudized with 0 coefficients 


     atomic species   valence    mass     pseudopotential
     Al                3.00    26.98154     Al( 1.00)
     Fe1              16.00    55.84500     Fe( 1.00)
     Fe2              16.00    55.84500     Fe( 1.00)
     H                 1.00     1.00794     H ( 1.00)
     K                 9.00    39.09830     K ( 1.00)
     Mg               10.00    24.30500     Mg( 1.00)
     O                 6.00    15.99940     O ( 1.00)
     Si                4.00    28.08550     Si( 1.00)

      2 Sym. Ops. (no inversion) found


                                    s                        frac. trans.

      isym =  1     identity                                     

 cryst.   s( 1) = (     1          0          0      )
                  (     0          1          0      )
                  (     0          0          1      )

 cart.    s( 1) = (  1.0000000  0.0000000  0.0000000 )
                  (  0.0000000  1.0000000  0.0000000 )
                  (  0.0000000  0.0000000  1.0000000 )


      isym =  2     180 deg rotation - cart. axis [0,1,0]        

 cryst.   s( 2) = (    -1          0          0      )
                  (     0          1          0      )
                  (     0          0         -1      )

 cart.    s( 2) = ( -1.0000000  0.0000000  0.0000000 )
                  (  0.0000000  1.0000000  0.0000000 )
                  (  0.0000000  0.0000000 -1.0000000 )


     point group C_2  (2)   
     there are  2 classes
     the character table:

       E     C2   
A      1.00  1.00
B      1.00 -1.00

     the symmetry operations in each class and the name of the first element:

     E        1
          identity                                               
     C2       2
          180 deg rotation - cart. axis [0,1,0]                  

   Cartesian axes

     site n.     atom                  positions (alat units)
         1        K      tau(   1) = (   0.0000000   0.4296389   0.0000000  )
         2        K      tau(   2) = (   0.5000000   0.4296389   0.0000000  )
         3        K      tau(   3) = (   0.2500001   0.0024501   0.0000000  )
         4        K      tau(   4) = (   0.7500001   0.0024501   0.0000000  )
         5        Mg     tau(   5) = (  -0.0870414   0.0055279   0.4808550  )
         6        Mg     tau(   6) = (   0.4129586   0.0055279   0.4808550  )
         7        Mg     tau(   7) = (  -0.0870414   0.5801280   0.4808550  )
         8        Mg     tau(   8) = (   0.4129586   0.5801280   0.4808550  )
         9        Mg     tau(   9) = (   0.1629587   0.4310949   0.4808550  )
        10        Mg     tau(  10) = (   0.6629587   0.4310949   0.4808550  )
        11        Mg     tau(  11) = (   0.1629587   0.7269300   0.4808550  )
        12        Mg     tau(  12) = (   0.6629587   0.7269300   0.4808550  )
        13        Mg     tau(  13) = (   0.1629587   0.1482588   0.4808550  )
        14        Mg     tau(  14) = (   0.6629587   0.1482588   0.4808550  )
        15        Si     tau(  15) = (   0.0074326   0.1420119   0.2164892  )
        16        Si     tau(  16) = (   0.5074326   0.1420119   0.2164892  )
        17        Si     tau(  17) = (   0.3184849   0.1420119   0.7452208  )
        18        Si     tau(  18) = (   0.8184849   0.1420119   0.7452208  )
        19        Si     tau(  19) = (   0.3331608   0.7257911   0.7377580  )
        20        Si     tau(  20) = (   0.8331608   0.7257911   0.7377580  )
        21        Si     tau(  21) = (  -0.0072433   0.7257911   0.2239520  )
        22        Si     tau(  22) = (   0.4927567   0.7257911   0.2239520  )
        23        Si     tau(  23) = (   0.2427667   0.5796705   0.2225784  )
        24        Si     tau(  24) = (   0.7427667   0.5796705   0.2225784  )
        25        Si     tau(  25) = (   0.0831508   0.5796705   0.7391315  )
        26        Si     tau(  26) = (   0.5831508   0.5796705   0.7391315  )
        27        Al     tau(  27) = (   0.0682443   0.2875617   0.7425041  )
        28        Al     tau(  28) = (   0.5682443   0.2875617   0.7425041  )
        29        Al     tau(  29) = (   0.2576732   0.2875617   0.2192058  )
        30        Al     tau(  30) = (   0.7576731   0.2875617   0.2192058  )
        31        O      tau(  31) = (   0.0017352   0.1371008   0.3693886  )
        32        O      tau(  32) = (   0.5017352   0.1371008   0.3693886  )
        33        O      tau(  33) = (   0.3241823   0.1371008   0.5923214  )
        34        O      tau(  34) = (   0.8241823   0.1371008   0.5923214  )
        35        O      tau(  35) = (   0.3309875   0.7260882   0.5856762  )
        36        O      tau(  36) = (   0.8309875   0.7260882   0.5856762  )
        37        O      tau(  37) = (  -0.0050700   0.7260882   0.3760337  )
        38        O      tau(  38) = (   0.4949300   0.7260882   0.3760337  )
        39        O      tau(  39) = (   0.2456591   0.5824087   0.3753945  )
        40        O      tau(  40) = (   0.7456591   0.5824087   0.3753945  )
        41        O      tau(  41) = (   0.0802583   0.5824087   0.5863155  )
        42        O      tau(  42) = (   0.5802583   0.5824087   0.5863155  )
        43        O      tau(  43) = (   0.0748950   0.2898192   0.5784747  )
        44        O      tau(  44) = (   0.5748950   0.2898192   0.5784747  )
        45        O      tau(  45) = (   0.2510225   0.2898192   0.3832352  )
        46        O      tau(  46) = (   0.7510224   0.2898192   0.3832352  )
        47        O      tau(  47) = (   0.1463863   0.1775489   0.1626707  )
        48        O      tau(  48) = (   0.6463863   0.1775489   0.1626707  )
        49        O      tau(  49) = (   0.1795312   0.1775489   0.7990392  )
        50        O      tau(  50) = (   0.6795312   0.1775489   0.7990392  )
        51        O      tau(  51) = (  -0.0250455   0.8667889   0.1630411  )
        52        O      tau(  52) = (   0.4749545   0.8667889   0.1630411  )
        53        O      tau(  53) = (   0.3509630   0.8667889   0.7986688  )
        54        O      tau(  54) = (   0.8509630   0.8667889   0.7986688  )
        55        O      tau(  55) = (   0.2001651   0.6682872   0.7942782  )
        56        O      tau(  56) = (   0.7001651   0.6682872   0.7942782  )
        57        O      tau(  57) = (   0.1257524   0.6682872   0.1674318  )
        58        O      tau(  58) = (   0.6257524   0.6682872   0.1674318  )
        59        O      tau(  59) = (   0.3751016   0.6421235   0.1665090  )
        60        O      tau(  60) = (   0.8751016   0.6421235   0.1665090  )
        61        O      tau(  61) = (  -0.0491842   0.6421235   0.7952009  )
        62        O      tau(  62) = (   0.4508158   0.6421235   0.7952009  )
        63        O      tau(  63) = (   0.2267361   0.4412388   0.1614261  )
        64        O      tau(  64) = (   0.7267362   0.4412388   0.1614261  )
        65        O      tau(  65) = (   0.0991813   0.4412388   0.8002838  )
        66        O      tau(  66) = (   0.5991813   0.4412388   0.8002838  )
        67        O      tau(  67) = (  -0.0785908   0.2392057   0.8031981  )
        68        O      tau(  68) = (   0.4214092   0.2392057   0.8031981  )
        69        O      tau(  69) = (   0.4045083   0.2392057   0.1585119  )
        70        O      tau(  70) = (   0.9045082   0.2392057   0.1585119  )
        71        O      tau(  71) = (  -0.0000042   0.4450115   0.3781135  )
        72        O      tau(  72) = (   0.4999958   0.4450115   0.3781135  )
        73        O      tau(  73) = (   0.3259217   0.4450115   0.5835965  )
        74        O      tau(  74) = (   0.8259217   0.4450115   0.5835965  )
        75        O      tau(  75) = (   0.2478596   0.8693925   0.3836472  )
        76        O      tau(  76) = (   0.7478596   0.8693925   0.3836472  )
        77        O      tau(  77) = (   0.0780579   0.8693925   0.5780627  )
        78        O      tau(  78) = (   0.5780579   0.8693925   0.5780627  )
        79        H      tau(  79) = (   0.0004471   0.4269259   0.2892434  )
        80        H      tau(  80) = (   0.5004471   0.4269259   0.2892434  )
        81        H      tau(  81) = (   0.3254704   0.4269259   0.6724666  )
        82        H      tau(  82) = (   0.8254704   0.4269259   0.6724666  )
        83        H      tau(  83) = (   0.2447352   0.0128545   0.2939423  )
        84        H      tau(  84) = (   0.7447351   0.0128545   0.2939423  )
        85        H      tau(  85) = (   0.0811823   0.0128545   0.6677677  )
        86        H      tau(  86) = (   0.5811823   0.0128545   0.6677677  )
        87        Fe1    tau(  87) = (  -0.0870414   0.2919251   0.4808550  )
        88        Fe2    tau(  88) = (   0.4129586   0.2919251   0.4808550  )

     --------------------------------------------
     DFT-D3 Dispersion Correction (3-body terms):
     --------------------------------------------
       Reference C6 values for interpolation: 

         atom   Coordination number   C6
         H          0.912             6.05
         H          0.000            15.18
         O          0.000            31.01
         O          0.993            25.63
         O          1.989            20.74
         Mg         0.000          1366.75
         Mg         0.963           902.54
         Mg         1.950           351.12
         Al         0.000          1081.08
         Al         0.965           875.51
         Al         1.931           513.50
         Al         2.915           307.19
         Si         0.000           635.71
         Si         0.951           540.53
         Si         1.944           466.25
         Si         2.941           443.01
         Si         3.868           299.55
         K          0.000          9967.00
         K          0.977           676.04
         Fe1        0.000           982.67
         Fe1        1.648           409.99
         Fe1        9.138           219.01
         Fe2        0.000           982.67
         Fe2        1.648           409.99
         Fe2        9.138           219.01

       Values used:

         atom   Coordination number  R0_AB[au]  C6      C8
         K         11.877            4.007    676.04 129074.98
         K         11.877            4.007    676.04 129074.98
         K         12.270            4.007    676.04 129074.98
         K         12.270            4.007    676.04 129074.98
         Mg        11.314            3.292    351.12  31436.69
         Mg        11.314            3.292    351.12  31436.69
         Mg        11.299            3.292    351.12  31436.69
         Mg        11.299            3.292    351.12  31436.69
         Mg        11.204            3.292    351.12  31436.69
         Mg        11.204            3.292    351.12  31436.69
         Mg        11.573            3.292    351.12  31436.69
         Mg        11.573            3.292    351.12  31436.69
         Mg        11.383            3.292    351.12  31436.69
         Mg        11.383            3.292    351.12  31436.69
         Si         6.519            3.583    299.55  21425.58
         Si         6.519            3.583    299.55  21425.58
         Si         6.519            3.583    299.55  21425.58
         Si         6.519            3.583    299.55  21425.58
         Si         6.299            3.583    299.55  21425.58
         Si         6.299            3.583    299.55  21425.58
         Si         6.299            3.583    299.55  21425.58
         Si         6.299            3.583    299.55  21425.58
         Si         6.332            3.583    299.55  21425.58
         Si         6.332            3.583    299.55  21425.58
         Si         6.332            3.583    299.55  21425.58
         Si         6.332            3.583    299.55  21425.58
         Al         7.195            3.789    307.19  29441.29
         Al         7.195            3.789    307.19  29441.29
         Al         7.195            3.789    307.19  29441.29
         Al         7.195            3.789    307.19  29441.29
         O          3.463            2.345     20.74    418.58
         O          3.463            2.345     20.74    418.58
         O          3.463            2.345     20.74    418.58
         O          3.463            2.345     20.74    418.58
         O          3.908            2.345     20.74    418.58
         O          3.908            2.345     20.74    418.58
         O          3.908            2.345     20.74    418.58
         O          3.908            2.345     20.74    418.58
         O          3.897            2.345     20.74    418.58
         O          3.897            2.345     20.74    418.58
         O          3.897            2.345     20.74    418.58
         O          3.897            2.345     20.74    418.58
         O          3.833            2.345     20.74    418.58
         O          3.833            2.345     20.74    418.58
         O          3.833            2.345     20.74    418.58
         O          3.833            2.345     20.74    418.58
         O          3.114            2.345     20.74    418.58
         O          3.114            2.345     20.74    418.58
         O          3.114            2.345     20.74    418.58
         O          3.114            2.345     20.74    418.58
         O          3.077            2.345     20.74    418.58
         O          3.077            2.345     20.74    418.58
         O          3.077            2.345     20.74    418.58
         O          3.077            2.345     20.74    418.58
         O          2.927            2.345     20.74    418.58
         O          2.927            2.345     20.74    418.58
         O          2.927            2.345     20.74    418.58
         O          2.927            2.345     20.74    418.58
         O          2.924            2.345     20.74    418.58
         O          2.924            2.345     20.74    418.58
         O          2.924            2.345     20.74    418.58
         O          2.924            2.345     20.74    418.58
         O          3.084            2.345     20.74    418.58
         O          3.084            2.345     20.74    418.58
         O          3.084            2.345     20.74    418.58
         O          3.084            2.345     20.74    418.58
         O          3.139            2.345     20.74    418.58
         O          3.139            2.345     20.74    418.58
         O          3.139            2.345     20.74    418.58
         O          3.139            2.345     20.74    418.58
         O          3.632            2.345     20.74    418.58
         O          3.632            2.345     20.74    418.58
         O          3.632            2.345     20.74    418.58
         O          3.632            2.345     20.74    418.58
         O          3.981            2.345     20.74    418.58
         O          3.981            2.345     20.74    418.58
         O          3.981            2.345     20.74    418.58
         O          3.981            2.345     20.74    418.58
         H          1.231            2.062      6.08     73.47
         H          1.231            2.062      6.08     73.47
         H          1.231            2.062      6.08     73.47
         H          1.231            2.062      6.08     73.47
         H          1.237            2.062      6.08     73.45
         H          1.237            2.062      6.08     73.45
         H          1.237            2.062      6.08     73.45
         H          1.237            2.062      6.08     73.45
         Fe1        7.261            3.252    219.01  20487.87
         Fe2        7.261            3.252    219.01  20487.87

         Molecular C6 ( Ry / a.u.^6 ) =    661236.15


   Crystallographic axes

     site n.     atom                  positions (cryst. coord.)
         1        K      tau(   1) = (  0.0000000  0.4939509  0.0000000  )
         2        K      tau(   2) = (  0.5000000  0.4939509  0.0000000  )
         3        K      tau(   3) = (  0.2500001  0.0028168  0.0000000  )
         4        K      tau(   4) = (  0.7500001  0.0028168  0.0000000  )
         5        Mg     tau(   5) = (  0.0000000  0.0063553  0.4999999  )
         6        Mg     tau(   6) = (  0.5000000  0.0063553  0.4999999  )
         7        Mg     tau(   7) = (  0.0000000  0.6669664  0.4999999  )
         8        Mg     tau(   8) = (  0.5000000  0.6669664  0.4999999  )
         9        Mg     tau(   9) = (  0.2500001  0.4956248  0.4999999  )
        10        Mg     tau(  10) = (  0.7500001  0.4956248  0.4999999  )
        11        Mg     tau(  11) = (  0.2500001  0.8357430  0.4999999  )
        12        Mg     tau(  12) = (  0.7500001  0.8357430  0.4999999  )
        13        Mg     tau(  13) = (  0.2500001  0.1704514  0.4999999  )
        14        Mg     tau(  14) = (  0.7500001  0.1704514  0.4999999  )
        15        Si     tau(  15) = (  0.0466201  0.1632694  0.2251086  )
        16        Si     tau(  16) = (  0.5466201  0.1632694  0.2251086  )
        17        Si     tau(  17) = (  0.4533802  0.1632694  0.7748913  )
        18        Si     tau(  18) = (  0.9533802  0.1632694  0.7748913  )
        19        Si     tau(  19) = (  0.4667052  0.8344337  0.7671314  )
        20        Si     tau(  20) = (  0.9667052  0.8344337  0.7671314  )
        21        Si     tau(  21) = (  0.0332951  0.8344337  0.2328685  )
        22        Si     tau(  22) = (  0.5332951  0.8344337  0.2328685  )
        23        Si     tau(  23) = (  0.2830564  0.6664404  0.2314402  )
        24        Si     tau(  24) = (  0.7830564  0.6664404  0.2314402  )
        25        Si     tau(  25) = (  0.2169439  0.6664404  0.7685596  )
        26        Si     tau(  26) = (  0.7169439  0.6664404  0.7685596  )
        27        Al     tau(  27) = (  0.2026479  0.3306063  0.7720665  )
        28        Al     tau(  28) = (  0.7026479  0.3306063  0.7720665  )
        29        Al     tau(  29) = (  0.2973525  0.3306063  0.2279334  )
        30        Al     tau(  30) = (  0.7973524  0.3306063  0.2279334  )
        31        O      tau(  31) = (  0.0685997  0.1576232  0.3840956  )
        32        O      tau(  32) = (  0.5685996  0.1576232  0.3840956  )
        33        O      tau(  33) = (  0.4314007  0.1576232  0.6159044  )
        34        O      tau(  34) = (  0.9314007  0.1576232  0.6159044  )
        35        O      tau(  35) = (  0.4370030  0.8347753  0.6089946  )
        36        O      tau(  36) = (  0.9370030  0.8347753  0.6089946  )
        37        O      tau(  37) = (  0.0629973  0.8347753  0.3910053  )
        38        O      tau(  38) = (  0.5629973  0.8347753  0.3910053  )
        39        O      tau(  39) = (  0.3136107  0.6695885  0.3903406  )
        40        O      tau(  40) = (  0.8136107  0.6695885  0.3903406  )
        41        O      tau(  41) = (  0.1863896  0.6695885  0.6096593  )
        42        O      tau(  42) = (  0.6863896  0.6695885  0.6096593  )
        43        O      tau(  43) = (  0.1796070  0.3332018  0.6015063  )
        44        O      tau(  44) = (  0.6796070  0.3332018  0.6015063  )
        45        O      tau(  45) = (  0.3203934  0.3332018  0.3984935  )
        46        O      tau(  46) = (  0.8203933  0.3332018  0.3984935  )
        47        O      tau(  47) = (  0.1758320  0.2041259  0.1691474  )
        48        O      tau(  48) = (  0.6758320  0.2041259  0.1691474  )
        49        O      tau(  49) = (  0.3241684  0.2041259  0.8308524  )
        50        O      tau(  50) = (  0.8241683  0.2041259  0.8308524  )
        51        O      tau(  51) = (  0.0044672  0.9965371  0.1695325  )
        52        O      tau(  52) = (  0.5044672  0.9965371  0.1695325  )
        53        O      tau(  53) = (  0.4955331  0.9965371  0.8304673  )
        54        O      tau(  54) = (  0.9955331  0.9965371  0.8304673  )
        55        O      tau(  55) = (  0.3439404  0.7683221  0.8259019  )
        56        O      tau(  56) = (  0.8439404  0.7683221  0.8259019  )
        57        O      tau(  57) = (  0.1560599  0.7683221  0.1740980  )
        58        O      tau(  58) = (  0.6560599  0.7683221  0.1740980  )
        59        O      tau(  59) = (  0.4052421  0.7382420  0.1731385  )
        60        O      tau(  60) = (  0.9052421  0.7382420  0.1731385  )
        61        O      tau(  61) = (  0.0947582  0.7382420  0.8268614  )
        62        O      tau(  62) = (  0.5947582  0.7382420  0.8268614  )
        63        O      tau(  63) = (  0.2559565  0.5072872  0.1678532  )
        64        O      tau(  64) = (  0.7559565  0.5072872  0.1678532  )
        65        O      tau(  65) = (  0.2440438  0.5072872  0.8321466  )
        66        O      tau(  66) = (  0.7440438  0.5072872  0.8321466  )
        67        O      tau(  67) = (  0.0667992  0.2750120  0.8351769  )
        68        O      tau(  68) = (  0.5667992  0.2750120  0.8351769  )
        69        O      tau(  69) = (  0.4332011  0.2750120  0.1648230  )
        70        O      tau(  70) = (  0.9332011  0.2750120  0.1648230  )
        71        O      tau(  71) = (  0.0684395  0.5116246  0.3931678  )
        72        O      tau(  72) = (  0.5684395  0.5116246  0.3931678  )
        73        O      tau(  73) = (  0.4315608  0.5116246  0.6068321  )
        74        O      tau(  74) = (  0.9315608  0.5116246  0.6068321  )
        75        O      tau(  75) = (  0.3173051  0.9995306  0.3989219  )
        76        O      tau(  76) = (  0.8173051  0.9995306  0.3989219  )
        77        O      tau(  77) = (  0.1826953  0.9995306  0.6010780  )
        78        O      tau(  78) = (  0.6826953  0.9995306  0.6010780  )
        79        H      tau(  79) = (  0.0528041  0.4908318  0.3007595  )
        80        H      tau(  80) = (  0.5528042  0.4908318  0.3007595  )
        81        H      tau(  81) = (  0.4471962  0.4908318  0.6992404  )
        82        H      tau(  82) = (  0.9471962  0.4908318  0.6992404  )
        83        H      tau(  83) = (  0.2979428  0.0147786  0.3056454  )
        84        H      tau(  84) = (  0.7979428  0.0147786  0.3056454  )
        85        H      tau(  85) = (  0.2020575  0.0147786  0.6943545  )
        86        H      tau(  86) = (  0.7020575  0.0147786  0.6943545  )
        87        Fe1    tau(  87) = (  0.0000000  0.3356230  0.4999999  )
        88        Fe2    tau(  88) = (  0.5000000  0.3356230  0.4999999  )

     number of k points=    10  Gaussian smearing, width (Ry)=  0.0010
                       cart. coord. in units 2pi/alat
        k(    1) = (   0.0000000   0.0000000   0.0000000), wk =   0.0740741
        k(    2) = (   0.0000000   0.0000000   0.3466048), wk =   0.1481481
        k(    3) = (   0.0000000   0.3832295   0.0000000), wk =   0.1481481
        k(    4) = (   0.0000000   0.3832295   0.3466048), wk =   0.2962963
        k(    5) = (   0.3333333   0.0000000   0.0603380), wk =   0.1481481
        k(    6) = (   0.3333333   0.0000000   0.4069428), wk =   0.1481481
        k(    7) = (   0.3333333   0.0000000  -0.2862669), wk =   0.1481481
        k(    8) = (   0.3333333   0.3832295   0.0603380), wk =   0.2962963
        k(    9) = (   0.3333333   0.3832295   0.4069428), wk =   0.2962963
        k(   10) = (   0.3333333   0.3832295  -0.2862669), wk =   0.2962963

                       cryst. coord.
        k(    1) = (   0.0000000   0.0000000   0.0000000), wk =   0.0740741
        k(    2) = (   0.0000000   0.0000000   0.3333333), wk =   0.1481481
        k(    3) = (   0.0000000   0.3333333   0.0000000), wk =   0.1481481
        k(    4) = (   0.0000000   0.3333333   0.3333333), wk =   0.2962963
        k(    5) = (   0.3333333   0.0000000   0.0000000), wk =   0.1481481
        k(    6) = (   0.3333333   0.0000000   0.3333333), wk =   0.1481481
        k(    7) = (   0.3333333   0.0000000  -0.3333333), wk =   0.1481481
        k(    8) = (   0.3333333   0.3333333   0.0000000), wk =   0.2962963
        k(    9) = (   0.3333333   0.3333333   0.3333333), wk =   0.2962963
        k(   10) = (   0.3333333   0.3333333  -0.3333333), wk =   0.2962963

     Dense  grid:  1212455 G-vectors     FFT dimensions: ( 144, 125, 144)

     Smooth grid:   428701 G-vectors     FFT dimensions: ( 100,  90, 100)

     Dynamical RAM for                 wfc:      42.80 MB

     Dynamical RAM for     wfc (w. buffer):     470.75 MB

     Dynamical RAM for           str. fact:      24.67 MB

     Dynamical RAM for           local pot:       0.00 MB

     Dynamical RAM for          nlocal pot:     119.39 MB

     Dynamical RAM for                qrad:      28.13 MB

     Dynamical RAM for          rho,v,vnew:      19.14 MB

     Dynamical RAM for               rhoin:       6.38 MB

     Dynamical RAM for            rho*nmix:      49.33 MB

     Dynamical RAM for           G-vectors:      12.11 MB

     Dynamical RAM for          h,s,v(r/c):       4.51 MB

     Dynamical RAM for          <psi|beta>:       4.20 MB

     Dynamical RAM for                 psi:      85.59 MB

     Dynamical RAM for                hpsi:      85.59 MB

     Dynamical RAM for                spsi:      85.59 MB

     Dynamical RAM for      wfcinit/wfcrot:      87.85 MB

     Dynamical RAM for           addusdens:     721.52 MB

     Dynamical RAM for          addusforce:    1013.10 MB

     Dynamical RAM for         addusstress:     619.77 MB

     Estimated static dynamical RAM per process >     724.79 MB

     Estimated max dynamical RAM per process >       1.75 GB

     Estimated total dynamical RAM >      10.47 GB

     Atomic positions and unit cell read from directory:
     ./temp/phl-fe1-fe2x2.save/
     Atomic positions from file used, from input discarded


     Check: negative core charge=   -0.000004

     The initial density is read from file :
     ./temp/phl-fe1-fe2x2.save/charge-density


     starting charge     524.0007, renormalised to     524.0000
[miserver1:02421] 5 more processes have sent help message help-mpi-btl-openib.txt / no active ports found
[miserver1:02421] Set MCA parameter "orte_base_help_aggregate" to 0 to see all help / error messages
     Cannot read wfcs: file not found
     Starting wfcs are  366 randomized atomic wfcs
     Checking if some PAW data can be deallocated... 
       PAW data deallocated on    5 nodes for type:  1
       PAW data deallocated on    5 nodes for type:  2
       PAW data deallocated on    5 nodes for type:  3
       PAW data deallocated on    5 nodes for type:  4
       PAW data deallocated on    5 nodes for type:  5
       PAW data deallocated on    5 nodes for type:  6
       PAW data deallocated on    2 nodes for type:  7
       PAW data deallocated on    4 nodes for type:  8

     total cpu time spent up to now is      272.9 secs

     Self-consistent Calculation

     iteration #  1     ecut=    60.00 Ry     beta= 0.70
     Davidson diagonalization with overlap

---- Real-time Memory Report at c_bands before calling an iterative solver
           851 MiB given to the printing process from OS
             0 MiB allocation reported by mallinfo(arena+hblkhd)
         10143 MiB available memory on the node where the printing process lives
------------------
     c_bands:  5 eigenvalues not converged
     c_bands:  5 eigenvalues not converged
     c_bands:  3 eigenvalues not converged
     c_bands:  1 eigenvalues not converged
     c_bands:  4 eigenvalues not converged
     c_bands:  3 eigenvalues not converged
     c_bands:  3 eigenvalues not converged
     c_bands:  1 eigenvalues not converged
     ethr =  1.00E-05,  avg # of iterations = 41.0

     total cpu time spent up to now is     7666.5 secs

     total energy              =   -5262.40950852 Ry
     estimated scf accuracy    <       0.00887022 Ry

     iteration #  2     ecut=    60.00 Ry     beta= 0.70
     Davidson diagonalization with overlap

---- Real-time Memory Report at c_bands before calling an iterative solver
          1431 MiB given to the printing process from OS
             0 MiB allocation reported by mallinfo(arena+hblkhd)
          9809 MiB available memory on the node where the printing process lives
------------------
     c_bands:  2 eigenvalues not converged
     c_bands:  3 eigenvalues not converged
     c_bands:  2 eigenvalues not converged
     c_bands:  1 eigenvalues not converged
     c_bands:  1 eigenvalues not converged
     c_bands:  3 eigenvalues not converged
     c_bands:  2 eigenvalues not converged
     c_bands:  1 eigenvalues not converged
     ethr =  1.69E-06,  avg # of iterations = 19.5

     total cpu time spent up to now is     8701.0 secs

     total energy              =   -5262.41132158 Ry
     estimated scf accuracy    <       0.00107777 Ry

     iteration #  3     ecut=    60.00 Ry     beta= 0.70
     Davidson diagonalization with overlap

---- Real-time Memory Report at c_bands before calling an iterative solver
          1433 MiB given to the printing process from OS
             0 MiB allocation reported by mallinfo(arena+hblkhd)
          9792 MiB available memory on the node where the printing process lives
------------------
     c_bands:  1 eigenvalues not converged
     ethr =  2.06E-07,  avg # of iterations =  8.5

     total cpu time spent up to now is     9789.7 secs

     total energy              =   -5262.41161861 Ry
     estimated scf accuracy    <       0.00203646 Ry

     iteration #  4     ecut=    60.00 Ry     beta= 0.70
     Davidson diagonalization with overlap

---- Real-time Memory Report at c_bands before calling an iterative solver
          1436 MiB given to the printing process from OS
             0 MiB allocation reported by mallinfo(arena+hblkhd)
          9780 MiB available memory on the node where the printing process lives
------------------
     ethr =  2.06E-07,  avg # of iterations =  5.8

     total cpu time spent up to now is    10538.0 secs

     total energy              =   -5262.41204243 Ry
     estimated scf accuracy    <       0.00031489 Ry

     iteration #  5     ecut=    60.00 Ry     beta= 0.70
     Davidson diagonalization with overlap

---- Real-time Memory Report at c_bands before calling an iterative solver
          1438 MiB given to the printing process from OS
             0 MiB allocation reported by mallinfo(arena+hblkhd)
          9765 MiB available memory on the node where the printing process lives
------------------
     ethr =  6.01E-08,  avg # of iterations =  5.0

     total cpu time spent up to now is    11374.0 secs

     total energy              =   -5262.41211781 Ry
     estimated scf accuracy    <       0.00001016 Ry

     iteration #  6     ecut=    60.00 Ry     beta= 0.70
     Davidson diagonalization with overlap

---- Real-time Memory Report at c_bands before calling an iterative solver
          1441 MiB given to the printing process from OS
             0 MiB allocation reported by mallinfo(arena+hblkhd)
          9753 MiB available memory on the node where the printing process lives
------------------
     ethr =  1.94E-09,  avg # of iterations = 15.4

     total cpu time spent up to now is    14258.0 secs

     total energy              =   -5262.41214899 Ry
     estimated scf accuracy    <       0.00000303 Ry

     iteration #  7     ecut=    60.00 Ry     beta= 0.70
     Davidson diagonalization with overlap

---- Real-time Memory Report at c_bands before calling an iterative solver
          1443 MiB given to the printing process from OS
             0 MiB allocation reported by mallinfo(arena+hblkhd)
          9743 MiB available memory on the node where the printing process lives
------------------
     ethr =  5.78E-10,  avg # of iterations =  6.5

     total cpu time spent up to now is    15310.7 secs

     End of self-consistent calculation

          k = 0.0000 0.0000 0.0000 ( 53617 PWs)   bands (ev):

   -78.1402 -78.1371 -67.8676 -67.8676 -67.7637 -67.7637 -67.6562 -67.6561
   -67.2928 -67.2927 -67.1204 -67.1204 -44.3176 -44.3146 -44.2848 -44.2818
   -44.1662 -44.1631 -34.6336 -34.6329 -34.6134 -34.6126 -34.6124 -34.6122
   -34.5324 -34.5323 -34.5116 -34.5114 -34.5037 -34.5036 -34.4213 -34.4211
   -34.4136 -34.4134 -34.3888 -34.3887 -34.0482 -34.0481 -34.0465 -34.0465
   -34.0411 -34.0411 -33.8935 -33.8934 -33.8640 -33.8639 -33.8616 -33.8615
   -23.3624 -23.3619 -23.2591 -23.2586 -15.2268 -15.1849 -14.8593 -14.8284
   -14.5866 -14.5579 -14.3059 -14.2716 -14.0435 -14.0190 -13.7733 -13.7592
   -13.6108 -13.4714 -13.3890 -13.3846 -13.2856 -13.2827 -13.1757 -13.1751
   -13.1422 -13.1104 -13.0912 -13.0484 -13.0367 -13.0310 -12.9950 -12.9598
   -12.9194 -12.9055 -12.8447 -12.8174 -12.7562 -12.7213 -12.6557 -12.6202
   -12.5842 -12.5378 -12.4896 -12.4766 -12.4394 -12.3970 -12.3290 -12.3093
   -11.3587 -11.3057 -11.1579 -11.0923  -6.9013  -6.8998  -6.8510  -6.8506
    -6.8441  -6.8413  -6.8128  -6.8022  -6.7428  -6.7412  -6.7319  -6.7228
    -4.4395  -4.3989  -3.5058  -3.4513  -2.9608  -2.9011  -2.5769  -2.4944
    -1.9641  -1.9058  -1.8125  -1.5261  -1.5085  -1.3740  -1.3224  -1.2966
    -1.2337  -1.1631  -1.0503  -1.0333  -0.8538  -0.8452  -0.8017  -0.8015
    -0.6689  -0.5254  -0.5038  -0.4590  -0.4518  -0.4177  -0.3350  -0.3094
    -0.1739  -0.1604  -0.1275  -0.0620   0.0462   0.2244   0.2451   0.2566
     0.3366   0.3707   0.3976   0.4083   0.5072   0.5075   0.5237   0.7399
     0.7534   0.8018   0.9264   0.9500   0.9757   0.9957   1.0673   1.1302
     1.2139   1.2598   1.2802   1.3112   1.3239   1.3401   1.3663   1.4778
     1.4996   1.5351   1.6280   1.6554   1.6785   1.7099   1.7570   1.9024
     1.9329   1.9442   2.0138   2.0382   2.0835   2.1013   2.1412   2.1943
     2.1961   2.2501   2.3022   2.4042   2.4512   2.4561   2.4724   2.4901
     2.4912   2.5270   2.5766   2.6028   2.6461   2.6689   2.6913   2.7187
     2.7226   2.7346   2.7967   2.8092   2.8348   2.8724   2.8767   2.8999
     2.9357   2.9624   2.9756   3.0722   3.0935   3.0948   3.1233   3.1680
     3.1680   3.1996   3.2003   3.2219   3.2343   3.2911   3.2933   3.3143
     3.3336   3.3697   3.4021   3.4051   3.4526   3.4637   3.4677   3.5120
     3.5636   3.5834   3.5955   3.6197   3.6595   3.6795   3.7053   3.7272
     3.7425   3.8018   3.8506   4.0928   4.1645   4.2080   4.2779   4.3739
     7.9397   7.9576   8.1418   8.1739   8.2008   8.2391   8.8738   9.4341
     9.4447   9.6433   9.7991  10.3596  10.9103  10.9519  11.0862  11.2944
    11.3943  11.5981  11.6699  11.7378  11.7473  11.8167  11.9228  12.1887
    12.2362  12.2572  12.4304  12.4482  12.5432  12.7469  12.7924  12.8108
    12.8336  12.8706  12.8912  13.0235  13.0814  13.1107  13.2291  13.2336
    13.2418  13.3868  13.4218  13.4538  13.5350  13.5751  13.6051  13.6068
    13.6402  13.6749  13.6860  13.7840  13.8142  13.8485  13.9035  14.0016
    14.0179  14.0554

     occupation numbers 
     1.0000   1.0000   1.0000   1.0000   1.0000   1.0000   1.0000   1.0000
     1.0000   1.0000   1.0000   1.0000   1.0000   1.0000   1.0000   1.0000
     1.0000   1.0000   1.0000   1.0000   1.0000   1.0000   1.0000   1.0000
     1.0000   1.0000   1.0000   1.0000   1.0000   1.0000   1.0000   1.0000
     1.0000   1.0000   1.0000   1.0000   1.0000   1.0000   1.0000   1.0000
     1.0000   1.0000   1.0000   1.0000   1.0000   1.0000   1.0000   1.0000
     1.0000   1.0000   1.0000   1.0000   1.0000   1.0000   1.0000   1.0000
     1.0000   1.0000   1.0000   1.0000   1.0000   1.0000   1.0000   1.0000
     1.0000   1.0000   1.0000   1.0000   1.0000   1.0000   1.0000   1.0000
     1.0000   1.0000   1.0000   1.0000   1.0000   1.0000   1.0000   1.0000
     1.0000   1.0000   1.0000   1.0000   1.0000   1.0000   1.0000   1.0000
     1.0000   1.0000   1.0000   1.0000   1.0000   1.0000   1.0000   1.0000
     1.0000   1.0000   1.0000   1.0000   1.0000   1.0000   1.0000   1.0000
     1.0000   1.0000   1.0000   1.0000   1.0000   1.0000   1.0000   1.0000
     1.0000   1.0000   1.0000   1.0000   1.0000   1.0000   1.0000   1.0000
     1.0000   1.0000   1.0000   1.0000   1.0000   1.0000   1.0000   1.0000
     1.0000   1.0000   1.0000   1.0000   1.0000   1.0000   1.0000   1.0000
     1.0000   1.0000   1.0000   1.0000   1.0000   1.0000   1.0000   1.0000
     1.0000   1.0000   1.0000   1.0000   1.0000   1.0000   1.0000   1.0000
     1.0000   1.0000   1.0000   1.0000   1.0000   1.0000   1.0000   1.0000
     1.0000   1.0000   1.0000   1.0000   1.0000   1.0000   1.0000   1.0000
     1.0000   1.0000   1.0000   1.0000   1.0000   1.0000   1.0000   1.0000
     1.0000   1.0000   1.0000   1.0000   1.0000   1.0000   1.0000   1.0000
     1.0000   1.0000   1.0000   1.0000   1.0000   1.0000   1.0000   1.0000
     1.0000   1.0000   1.0000   1.0000   1.0000   1.0000   1.0000   1.0000
     1.0000   1.0000   1.0000   1.0000   1.0000   1.0000   1.0000   1.0000
     1.0000   1.0000   1.0000   1.0000   1.0000   1.0000   1.0000   1.0000
     1.0000   1.0000   1.0000   1.0000   1.0000   1.0000   1.0000   1.0000
     1.0000   1.0000   1.0000   1.0000   1.0000   1.0000   1.0000   1.0000
     1.0000   1.0000   1.0000   1.0000   1.0000   1.0000   1.0000   1.0000
     1.0000   1.0000   1.0000   1.0000   1.0000   1.0000   1.0000   1.0000
     1.0000   1.0000   1.0000   1.0000   1.0000   1.0000   1.0000   1.0000
     1.0000   1.0000   1.0000   1.0000   1.0000   1.0000   0.0000   0.0000
     0.0000   0.0000   0.0000   0.0000   0.0000   0.0000   0.0000   0.0000
     0.0000   0.0000   0.0000   0.0000   0.0000   0.0000   0.0000   0.0000
     0.0000   0.0000   0.0000   0.0000   0.0000   0.0000   0.0000   0.0000
     0.0000   0.0000   0.0000   0.0000   0.0000   0.0000   0.0000   0.0000
     0.0000   0.0000   0.0000   0.0000   0.0000   0.0000   0.0000   0.0000
     0.0000   0.0000   0.0000   0.0000   0.0000   0.0000   0.0000   0.0000
     0.0000   0.0000

          k = 0.0000 0.0000 0.3460 ( 53576 PWs)   bands (ev):

   -78.1402 -78.1371 -67.8676 -67.8676 -67.7637 -67.7637 -67.6562 -67.6561
   -67.2928 -67.2927 -67.1204 -67.1204 -44.3176 -44.3146 -44.2848 -44.2818
   -44.1662 -44.1631 -34.6336 -34.6329 -34.6134 -34.6126 -34.6124 -34.6122
   -34.5324 -34.5323 -34.5116 -34.5114 -34.5037 -34.5035 -34.4213 -34.4211
   -34.4136 -34.4133 -34.3888 -34.3887 -34.0482 -34.0481 -34.0465 -34.0465
   -34.0411 -34.0410 -33.8935 -33.8934 -33.8640 -33.8638 -33.8616 -33.8615
   -23.3624 -23.3619 -23.2591 -23.2586 -15.2180 -15.1941 -14.8521 -14.8360
   -14.5800 -14.5646 -14.2976 -14.2802 -14.0392 -14.0235 -13.7737 -13.7587
   -13.6049 -13.4837 -13.3838 -13.3835 -13.2838 -13.2829 -13.1745 -13.1719
   -13.1386 -13.1110 -13.1040 -13.0431 -13.0369 -13.0248 -13.0031 -12.9608
   -12.9188 -12.9007 -12.8443 -12.8201 -12.7530 -12.7282 -12.6504 -12.6082
   -12.5889 -12.5468 -12.4939 -12.4712 -12.4363 -12.3910 -12.3335 -12.3149
   -11.3585 -11.3050 -11.1585 -11.0927  -6.9014  -6.8999  -6.8509  -6.8507
    -6.8440  -6.8413  -6.8129  -6.8023  -6.7427  -6.7412  -6.7319  -6.7228
    -4.4348  -4.4039  -3.4925  -3.4649  -2.9472  -2.9165  -2.5590  -2.5151
    -1.9400  -1.8964  -1.8246  -1.5202  -1.5016  -1.3746  -1.3214  -1.2928
    -1.2288  -1.1802  -1.0453  -1.0238  -0.8458  -0.8258  -0.8069  -0.7992
    -0.6925  -0.5359  -0.4809  -0.4698  -0.4365  -0.4104  -0.3939  -0.3324
    -0.2179  -0.1848  -0.1019  -0.0480   0.0082   0.2166   0.2298   0.2626
     0.3287   0.3524   0.3913   0.3956   0.5010   0.5403   0.5434   0.7543
     0.7877   0.8121   0.9195   0.9330   1.0151   1.0524   1.0656   1.0960
     1.1923   1.2488   1.2654   1.3161   1.3249   1.3737   1.3915   1.4872
     1.4953   1.5099   1.6571   1.6942   1.7207   1.7256   1.8874   1.9183
     1.9228   1.9369   2.0006   2.0182   2.0544   2.1189   2.1299   2.1861
     2.1871   2.2527   2.2624   2.3932   2.3995   2.4107   2.4559   2.4724
     2.4741   2.5279   2.5772   2.6003   2.6174   2.6412   2.6479   2.6828
     2.7135   2.7554   2.8385   2.8569   2.8657   2.8659   2.8830   2.8954
     2.9269   2.9329   3.0076   3.0747   3.1008   3.1175   3.1684   3.1706
     3.1782   3.2014   3.2293   3.2409   3.2628   3.2729   3.2846   3.2916
     3.3028   3.3700   3.3884   3.4087   3.4473   3.4675   3.4813   3.5080
     3.5366   3.5557   3.6031   3.6142   3.6245   3.6585   3.6922   3.7097
     3.7434   3.8557   3.8680   4.0964   4.1685   4.2061   4.2760   4.3758
     7.9412   7.9573   8.1427   8.1745   8.2007   8.2370   9.1668   9.4288
     9.4424   9.6587   9.7776   9.9176  10.8260  11.0551  11.1908  11.2855
    11.3289  11.5397  11.5846  11.8024  11.8539  11.8718  11.9278  12.2495
    12.2699  12.3098  12.3551  12.4008  12.6066  12.7269  12.7574  12.8324
    12.8513  12.9537  12.9708  13.0104  13.0609  13.1190  13.1362  13.2051
    13.2835  13.2899  13.3909  13.4544  13.4894  13.5137  13.5321  13.6268
    13.6393  13.7102  13.7267  13.8275  13.8586  13.8628  13.9024  13.9465
    13.9688  14.0796

     occupation numbers 
     1.0000   1.0000   1.0000   1.0000   1.0000   1.0000   1.0000   1.0000
     1.0000   1.0000   1.0000   1.0000   1.0000   1.0000   1.0000   1.0000
     1.0000   1.0000   1.0000   1.0000   1.0000   1.0000   1.0000   1.0000
     1.0000   1.0000   1.0000   1.0000   1.0000   1.0000   1.0000   1.0000
     1.0000   1.0000   1.0000   1.0000   1.0000   1.0000   1.0000   1.0000
     1.0000   1.0000   1.0000   1.0000   1.0000   1.0000   1.0000   1.0000
     1.0000   1.0000   1.0000   1.0000   1.0000   1.0000   1.0000   1.0000
     1.0000   1.0000   1.0000   1.0000   1.0000   1.0000   1.0000   1.0000
     1.0000   1.0000   1.0000   1.0000   1.0000   1.0000   1.0000   1.0000
     1.0000   1.0000   1.0000   1.0000   1.0000   1.0000   1.0000   1.0000
     1.0000   1.0000   1.0000   1.0000   1.0000   1.0000   1.0000   1.0000
     1.0000   1.0000   1.0000   1.0000   1.0000   1.0000   1.0000   1.0000
     1.0000   1.0000   1.0000   1.0000   1.0000   1.0000   1.0000   1.0000
     1.0000   1.0000   1.0000   1.0000   1.0000   1.0000   1.0000   1.0000
     1.0000   1.0000   1.0000   1.0000   1.0000   1.0000   1.0000   1.0000
     1.0000   1.0000   1.0000   1.0000   1.0000   1.0000   1.0000   1.0000
     1.0000   1.0000   1.0000   1.0000   1.0000   1.0000   1.0000   1.0000
     1.0000   1.0000   1.0000   1.0000   1.0000   1.0000   1.0000   1.0000
     1.0000   1.0000   1.0000   1.0000   1.0000   1.0000   1.0000   1.0000
     1.0000   1.0000   1.0000   1.0000   1.0000   1.0000   1.0000   1.0000
     1.0000   1.0000   1.0000   1.0000   1.0000   1.0000   1.0000   1.0000
     1.0000   1.0000   1.0000   1.0000   1.0000   1.0000   1.0000   1.0000
     1.0000   1.0000   1.0000   1.0000   1.0000   1.0000   1.0000   1.0000
     1.0000   1.0000   1.0000   1.0000   1.0000   1.0000   1.0000   1.0000
     1.0000   1.0000   1.0000   1.0000   1.0000   1.0000   1.0000   1.0000
     1.0000   1.0000   1.0000   1.0000   1.0000   1.0000   1.0000   1.0000
     1.0000   1.0000   1.0000   1.0000   1.0000   1.0000   1.0000   1.0000
     1.0000   1.0000   1.0000   1.0000   1.0000   1.0000   1.0000   1.0000
     1.0000   1.0000   1.0000   1.0000   1.0000   1.0000   1.0000   1.0000
     1.0000   1.0000   1.0000   1.0000   1.0000   1.0000   1.0000   1.0000
     1.0000   1.0000   1.0000   1.0000   1.0000   1.0000   1.0000   1.0000
     1.0000   1.0000   1.0000   1.0000   1.0000   1.0000   1.0000   1.0000
     1.0000   1.0000   1.0000   1.0000   1.0000   1.0000   0.0000   0.0000
     0.0000   0.0000   0.0000   0.0000   0.0000   0.0000   0.0000   0.0000
     0.0000   0.0000   0.0000   0.0000   0.0000   0.0000   0.0000   0.0000
     0.0000   0.0000   0.0000   0.0000   0.0000   0.0000   0.0000   0.0000
     0.0000   0.0000   0.0000   0.0000   0.0000   0.0000   0.0000   0.0000
     0.0000   0.0000   0.0000   0.0000   0.0000   0.0000   0.0000   0.0000
     0.0000   0.0000   0.0000   0.0000   0.0000   0.0000   0.0000   0.0000
     0.0000   0.0000

          k = 0.0000 0.3869 0.0000 ( 53603 PWs)   bands (ev):

   -78.1402 -78.1371 -67.8676 -67.8676 -67.7637 -67.7637 -67.6562 -67.6561
   -67.2928 -67.2927 -67.1204 -67.1204 -44.3176 -44.3146 -44.2848 -44.2818
   -44.1662 -44.1631 -34.6336 -34.6329 -34.6134 -34.6126 -34.6124 -34.6122
   -34.5324 -34.5323 -34.5115 -34.5114 -34.5037 -34.5036 -34.4213 -34.4211
   -34.4136 -34.4133 -34.3888 -34.3887 -34.0482 -34.0480 -34.0465 -34.0465
   -34.0411 -34.0411 -33.8935 -33.8935 -33.8640 -33.8638 -33.8616 -33.8615
   -23.3624 -23.3619 -23.2591 -23.2586 -15.2212 -15.1796 -14.8580 -14.8270
   -14.5862 -14.5575 -14.3425 -14.3027 -14.0497 -14.0247 -13.7734 -13.7594
   -13.5271 -13.3815 -13.3754 -13.3708 -13.2911 -13.2681 -13.2064 -13.1585
   -13.1308 -13.1284 -13.0959 -13.0819 -13.0749 -13.0647 -13.0425 -12.9587
   -12.9280 -12.8992 -12.8313 -12.8122 -12.7626 -12.7156 -12.6454 -12.6261
   -12.5809 -12.5424 -12.4891 -12.4759 -12.4338 -12.3967 -12.3252 -12.3095
   -11.3572 -11.3054 -11.1580 -11.0917  -6.9016  -6.8994  -6.8511  -6.8507
    -6.8440  -6.8416  -6.8132  -6.8029  -6.7426  -6.7407  -6.7322  -6.7229
    -4.4012  -4.3590  -3.5182  -3.4612  -2.9755  -2.9146  -2.7186  -2.6334
    -1.8940  -1.8787  -1.7854  -1.5957  -1.5229  -1.3602  -1.2327  -1.2195
    -1.1404  -1.1000  -1.0628  -1.0566  -0.9022  -0.7978  -0.7861  -0.7457
    -0.7440  -0.4592  -0.4554  -0.4541  -0.4484  -0.4191  -0.3165  -0.3094
    -0.2202  -0.1794  -0.1685  -0.0165   0.0307   0.1779   0.2435   0.2594
     0.3511   0.3610   0.3791   0.3828   0.4371   0.4929   0.5301   0.7086
     0.7700   0.7748   0.7875   0.9316   1.0166   1.0857   1.0964   1.1133
     1.2195   1.2302   1.2700   1.3238   1.3786   1.3797   1.4125   1.4791
     1.4938   1.5356   1.5785   1.6514   1.6582   1.7417   1.7935   1.8986
     1.9133   1.9630   1.9707   2.0205   2.1521   2.1834   2.1837   2.2228
     2.2274   2.2603   2.2950   2.3688   2.3717   2.4045   2.4367   2.4964
     2.5074   2.5461   2.6301   2.6401   2.6507   2.6659   2.6735   2.7144
     2.7698   2.7791   2.7843   2.8103   2.8394   2.8433   2.8625   2.8825
     2.9679   2.9788   2.9830   2.9887   3.0391   3.0980   3.1221   3.1609
     3.1721   3.2479   3.2611   3.2676   3.2736   3.2852   3.2896   3.2954
     3.3061   3.3916   3.4130   3.4139   3.4238   3.4329   3.4565   3.5039
     3.5556   3.5598   3.5707   3.6285   3.6801   3.6880   3.6924   3.7235
     3.7928   3.8186   3.8189   4.0688   4.0944   4.1409   4.1411   4.3699
     7.9477   7.9643   8.1398   8.1750   8.2012   8.2380   9.2789   9.3910
     9.4180   9.6660   9.8015  10.2237  10.6315  11.0110  11.0977  11.2169
    11.4677  11.5202  11.5533  11.5908  11.7204  12.0072  12.1062  12.1595
    12.2657  12.2948  12.3047  12.3751  12.5678  12.6733  12.8195  12.8223
    12.8389  12.8792  13.0041  13.0162  13.0354  13.1115  13.1901  13.1982
    13.2106  13.2385  13.4046  13.4065  13.4858  13.5360  13.5474  13.5579
    13.6017  13.8073  13.8729  13.9017  13.9753  14.0009  14.0784  14.0871
    14.0906  14.1868

     occupation numbers 
     1.0000   1.0000   1.0000   1.0000   1.0000   1.0000   1.0000   1.0000
     1.0000   1.0000   1.0000   1.0000   1.0000   1.0000   1.0000   1.0000
     1.0000   1.0000   1.0000   1.0000   1.0000   1.0000   1.0000   1.0000
     1.0000   1.0000   1.0000   1.0000   1.0000   1.0000   1.0000   1.0000
     1.0000   1.0000   1.0000   1.0000   1.0000   1.0000   1.0000   1.0000
     1.0000   1.0000   1.0000   1.0000   1.0000   1.0000   1.0000   1.0000
     1.0000   1.0000   1.0000   1.0000   1.0000   1.0000   1.0000   1.0000
     1.0000   1.0000   1.0000   1.0000   1.0000   1.0000   1.0000   1.0000
     1.0000   1.0000   1.0000   1.0000   1.0000   1.0000   1.0000   1.0000
     1.0000   1.0000   1.0000   1.0000   1.0000   1.0000   1.0000   1.0000
     1.0000   1.0000   1.0000   1.0000   1.0000   1.0000   1.0000   1.0000
     1.0000   1.0000   1.0000   1.0000   1.0000   1.0000   1.0000   1.0000
     1.0000   1.0000   1.0000   1.0000   1.0000   1.0000   1.0000   1.0000
     1.0000   1.0000   1.0000   1.0000   1.0000   1.0000   1.0000   1.0000
     1.0000   1.0000   1.0000   1.0000   1.0000   1.0000   1.0000   1.0000
     1.0000   1.0000   1.0000   1.0000   1.0000   1.0000   1.0000   1.0000
     1.0000   1.0000   1.0000   1.0000   1.0000   1.0000   1.0000   1.0000
     1.0000   1.0000   1.0000   1.0000   1.0000   1.0000   1.0000   1.0000
     1.0000   1.0000   1.0000   1.0000   1.0000   1.0000   1.0000   1.0000
     1.0000   1.0000   1.0000   1.0000   1.0000   1.0000   1.0000   1.0000
     1.0000   1.0000   1.0000   1.0000   1.0000   1.0000   1.0000   1.0000
     1.0000   1.0000   1.0000   1.0000   1.0000   1.0000   1.0000   1.0000
     1.0000   1.0000   1.0000   1.0000   1.0000   1.0000   1.0000   1.0000
     1.0000   1.0000   1.0000   1.0000   1.0000   1.0000   1.0000   1.0000
     1.0000   1.0000   1.0000   1.0000   1.0000   1.0000   1.0000   1.0000
     1.0000   1.0000   1.0000   1.0000   1.0000   1.0000   1.0000   1.0000
     1.0000   1.0000   1.0000   1.0000   1.0000   1.0000   1.0000   1.0000
     1.0000   1.0000   1.0000   1.0000   1.0000   1.0000   1.0000   1.0000
     1.0000   1.0000   1.0000   1.0000   1.0000   1.0000   1.0000   1.0000
     1.0000   1.0000   1.0000   1.0000   1.0000   1.0000   1.0000   1.0000
     1.0000   1.0000   1.0000   1.0000   1.0000   1.0000   1.0000   1.0000
     1.0000   1.0000   1.0000   1.0000   1.0000   1.0000   1.0000   1.0000
     1.0000   1.0000   1.0000   1.0000   1.0000   1.0000   0.0000   0.0000
     0.0000   0.0000   0.0000   0.0000   0.0000   0.0000   0.0000   0.0000
     0.0000   0.0000   0.0000   0.0000   0.0000   0.0000   0.0000   0.0000
     0.0000   0.0000   0.0000   0.0000   0.0000   0.0000   0.0000   0.0000
     0.0000   0.0000   0.0000   0.0000   0.0000   0.0000   0.0000   0.0000
     0.0000   0.0000   0.0000   0.0000   0.0000   0.0000   0.0000   0.0000
     0.0000   0.0000   0.0000   0.0000   0.0000   0.0000   0.0000   0.0000
     0.0000   0.0000

          k = 0.0000 0.3869 0.3460 ( 53607 PWs)   bands (ev):

   -78.1402 -78.1371 -67.8676 -67.8676 -67.7637 -67.7637 -67.6562 -67.6561
   -67.2928 -67.2927 -67.1204 -67.1204 -44.3176 -44.3146 -44.2848 -44.2818
   -44.1662 -44.1631 -34.6336 -34.6329 -34.6134 -34.6126 -34.6124 -34.6122
   -34.5324 -34.5323 -34.5116 -34.5114 -34.5037 -34.5035 -34.4213 -34.4211
   -34.4136 -34.4133 -34.3888 -34.3887 -34.0482 -34.0481 -34.0465 -34.0465
   -34.0411 -34.0411 -33.8935 -33.8935 -33.8640 -33.8639 -33.8616 -33.8615
   -23.3624 -23.3619 -23.2591 -23.2586 -15.2122 -15.1891 -14.8509 -14.8343
   -14.5797 -14.5641 -14.3341 -14.3115 -14.0440 -14.0306 -13.7739 -13.7588
   -13.5229 -13.3848 -13.3759 -13.3742 -13.2839 -13.2698 -13.2064 -13.1554
   -13.1350 -13.1229 -13.1054 -13.0762 -13.0717 -13.0674 -13.0442 -12.9593
   -12.9260 -12.8994 -12.8308 -12.8148 -12.7566 -12.7253 -12.6406 -12.6138
   -12.5854 -12.5513 -12.4934 -12.4708 -12.4301 -12.3908 -12.3297 -12.3150
   -11.3571 -11.3048 -11.1586 -11.0921  -6.9016  -6.8994  -6.8510  -6.8507
    -6.8439  -6.8416  -6.8133  -6.8030  -6.7425  -6.7406  -6.7321  -6.7228
    -4.3941  -4.3665  -3.5042  -3.4756  -2.9614  -2.9305  -2.6981  -2.6557
    -1.8736  -1.8706  -1.7953  -1.5883  -1.5186  -1.3604  -1.2265  -1.2211
    -1.1348  -1.1108  -1.0554  -1.0457  -0.8825  -0.8177  -0.7901  -0.7550
    -0.7349  -0.4978  -0.4579  -0.4323  -0.4221  -0.3978  -0.3682  -0.3387
    -0.2263  -0.1925  -0.1859  -0.0282  -0.0111   0.1958   0.2365   0.2390
     0.3475   0.3535   0.3544   0.3908   0.4405   0.5041   0.5553   0.7080
     0.7663   0.8017   0.8121   0.9365   0.9678   1.0823   1.1351   1.1563
     1.1812   1.2804   1.2982   1.3274   1.3588   1.3930   1.4525   1.4930
     1.5020   1.5270   1.6245   1.6831   1.6898   1.7219   1.8341   1.8764
     1.9290   1.9528   1.9852   2.0125   2.0962   2.1751   2.1923   2.2031
     2.2307   2.2422   2.2692   2.3646   2.3662   2.3808   2.4292   2.4704
     2.5105   2.5436   2.5993   2.6034   2.6216   2.6551   2.6600   2.7260
     2.7579   2.7595   2.7908   2.8192   2.8510   2.8606   2.8905   2.9044
     2.9304   2.9628   3.0079   3.0151   3.0665   3.1085   3.1340   3.1551
     3.1971   3.2212   3.2462   3.2592   3.2805   3.2814   3.3040   3.3264
     3.3318   3.3619   3.3952   3.3987   3.4194   3.4483   3.4958   3.5056
     3.5374   3.5404   3.5787   3.6086   3.6444   3.6549   3.7114   3.7212
     3.7794   3.7995   3.8783   4.0765   4.1076   4.1320   4.1479   4.3723
     7.9494   7.9643   8.1406   8.1757   8.2010   8.2351   9.3268   9.4115
     9.5856   9.6786   9.8056  10.2088  10.4153  10.9150  10.9946  11.1787
    11.4019  11.5357  11.6165  11.6175  11.6507  12.0264  12.0306  12.0802
    12.3006  12.3200  12.4043  12.4568  12.6676  12.7454  12.7923  12.8178
    12.8959  12.9407  13.0206  13.0559  13.1112  13.1246  13.2196  13.2451
    13.3186  13.3546  13.3722  13.3824  13.4804  13.4878  13.5655  13.5678
    13.6524  13.6987  13.8287  13.8849  13.8961  13.9515  13.9625  13.9946
    14.0368  14.1056

     occupation numbers 
     1.0000   1.0000   1.0000   1.0000   1.0000   1.0000   1.0000   1.0000
     1.0000   1.0000   1.0000   1.0000   1.0000   1.0000   1.0000   1.0000
     1.0000   1.0000   1.0000   1.0000   1.0000   1.0000   1.0000   1.0000
     1.0000   1.0000   1.0000   1.0000   1.0000   1.0000   1.0000   1.0000
     1.0000   1.0000   1.0000   1.0000   1.0000   1.0000   1.0000   1.0000
     1.0000   1.0000   1.0000   1.0000   1.0000   1.0000   1.0000   1.0000
     1.0000   1.0000   1.0000   1.0000   1.0000   1.0000   1.0000   1.0000
     1.0000   1.0000   1.0000   1.0000   1.0000   1.0000   1.0000   1.0000
     1.0000   1.0000   1.0000   1.0000   1.0000   1.0000   1.0000   1.0000
     1.0000   1.0000   1.0000   1.0000   1.0000   1.0000   1.0000   1.0000
     1.0000   1.0000   1.0000   1.0000   1.0000   1.0000   1.0000   1.0000
     1.0000   1.0000   1.0000   1.0000   1.0000   1.0000   1.0000   1.0000
     1.0000   1.0000   1.0000   1.0000   1.0000   1.0000   1.0000   1.0000
     1.0000   1.0000   1.0000   1.0000   1.0000   1.0000   1.0000   1.0000
     1.0000   1.0000   1.0000   1.0000   1.0000   1.0000   1.0000   1.0000
     1.0000   1.0000   1.0000   1.0000   1.0000   1.0000   1.0000   1.0000
     1.0000   1.0000   1.0000   1.0000   1.0000   1.0000   1.0000   1.0000
     1.0000   1.0000   1.0000   1.0000   1.0000   1.0000   1.0000   1.0000
     1.0000   1.0000   1.0000   1.0000   1.0000   1.0000   1.0000   1.0000
     1.0000   1.0000   1.0000   1.0000   1.0000   1.0000   1.0000   1.0000
     1.0000   1.0000   1.0000   1.0000   1.0000   1.0000   1.0000   1.0000
     1.0000   1.0000   1.0000   1.0000   1.0000   1.0000   1.0000   1.0000
     1.0000   1.0000   1.0000   1.0000   1.0000   1.0000   1.0000   1.0000
     1.0000   1.0000   1.0000   1.0000   1.0000   1.0000   1.0000   1.0000
     1.0000   1.0000   1.0000   1.0000   1.0000   1.0000   1.0000   1.0000
     1.0000   1.0000   1.0000   1.0000   1.0000   1.0000   1.0000   1.0000
     1.0000   1.0000   1.0000   1.0000   1.0000   1.0000   1.0000   1.0000
     1.0000   1.0000   1.0000   1.0000   1.0000   1.0000   1.0000   1.0000
     1.0000   1.0000   1.0000   1.0000   1.0000   1.0000   1.0000   1.0000
     1.0000   1.0000   1.0000   1.0000   1.0000   1.0000   1.0000   1.0000
     1.0000   1.0000   1.0000   1.0000   1.0000   1.0000   1.0000   1.0000
     1.0000   1.0000   1.0000   1.0000   1.0000   1.0000   1.0000   1.0000
     1.0000   1.0000   1.0000   1.0000   1.0000   1.0000   0.0000   0.0000
     0.0000   0.0000   0.0000   0.0000   0.0000   0.0000   0.0000   0.0000
     0.0000   0.0000   0.0000   0.0000   0.0000   0.0000   0.0000   0.0000
     0.0000   0.0000   0.0000   0.0000   0.0000   0.0000   0.0000   0.0000
     0.0000   0.0000   0.0000   0.0000   0.0000   0.0000   0.0000   0.0000
     0.0000   0.0000   0.0000   0.0000   0.0000   0.0000   0.0000   0.0000
     0.0000   0.0000   0.0000   0.0000   0.0000   0.0000   0.0000   0.0000
     0.0000   0.0000

          k = 0.3348 0.0000 0.0598 ( 53607 PWs)   bands (ev):

   -78.1402 -78.1371 -67.8676 -67.8676 -67.7637 -67.7637 -67.6562 -67.6561
   -67.2928 -67.2927 -67.1204 -67.1204 -44.3176 -44.3146 -44.2848 -44.2818
   -44.1662 -44.1631 -34.6334 -34.6331 -34.6133 -34.6129 -34.6123 -34.6123
   -34.5324 -34.5323 -34.5115 -34.5114 -34.5036 -34.5036 -34.4213 -34.4212
   -34.4135 -34.4134 -34.3888 -34.3887 -34.0482 -34.0481 -34.0465 -34.0465
   -34.0411 -34.0411 -33.8935 -33.8935 -33.8639 -33.8639 -33.8616 -33.8615
   -23.3622 -23.3620 -23.2589 -23.2587 -15.1688 -15.1279 -15.0096 -14.9723
   -14.4343 -14.4076 -14.3213 -14.2901 -14.0191 -13.9936 -13.8932 -13.8702
   -13.5453 -13.4521 -13.3990 -13.3413 -13.2998 -13.2703 -13.2355 -13.2324
   -13.1484 -13.1233 -13.0619 -13.0294 -13.0132 -12.9929 -12.9928 -12.9745
   -12.9020 -12.8959 -12.8325 -12.8231 -12.7328 -12.6836 -12.6743 -12.6103
   -12.6060 -12.5490 -12.5307 -12.5034 -12.4188 -12.4024 -12.3175 -12.3096
   -11.3474 -11.3217 -11.1381 -11.1060  -6.9008  -6.9000  -6.8510  -6.8509
    -6.8433  -6.8419  -6.8101  -6.8048  -6.7424  -6.7416  -6.7297  -6.7251
    -4.2831  -4.2378  -3.8752  -3.8169  -2.6841  -2.5850  -2.5504  -2.4655
    -1.9589  -1.9586  -1.8155  -1.5904  -1.5837  -1.5601  -1.4706  -1.4136
    -1.0425  -0.9980  -0.9735  -0.9532  -0.8771  -0.8607  -0.8321  -0.7805
    -0.7007  -0.5787  -0.5049  -0.4716  -0.4614  -0.4004  -0.3282  -0.2910
    -0.2373  -0.1192  -0.0540  -0.0534   0.0349   0.0850   0.2319   0.2362
     0.3292   0.3469   0.4352   0.4504   0.4814   0.5061   0.5654   0.6248
     0.8491   0.9024   0.9102   0.9963   0.9978   1.0639   1.0839   1.1097
     1.1898   1.2271   1.2746   1.3014   1.3670   1.3806   1.3916   1.4391
     1.4678   1.5080   1.5396   1.6378   1.7096   1.7728   1.7901   1.8374
     1.9042   1.9156   2.0904   2.1120   2.1230   2.1370   2.1804   2.1932
     2.2241   2.2552   2.3186   2.3638   2.4387   2.4480   2.4566   2.4681
     2.5042   2.5228   2.5331   2.5642   2.5753   2.6025   2.6943   2.7022
     2.7302   2.7453   2.7789   2.7972   2.8740   2.9092   2.9208   2.9433
     2.9451   2.9813   3.0067   3.0214   3.0451   3.0735   3.0923   3.0993
     3.1179   3.1740   3.2312   3.2619   3.2673   3.2812   3.3098   3.3295
     3.3532   3.3609   3.3891   3.4319   3.4574   3.4872   3.4959   3.5216
     3.5286   3.5882   3.5926   3.6071   3.6560   3.6791   3.6854   3.7217
     3.7553   3.8131   3.9187   4.0904   4.1382   4.2056   4.2426   4.2816
     7.9446   7.9537   8.1653   8.1802   8.1956   8.2160   9.1773   9.4357
     9.4411   9.6107   9.7810  10.0874  10.5599  10.9874  11.1683  11.3231
    11.4161  11.6573  11.7825  11.8201  11.8635  11.9118  11.9888  12.0948
    12.2343  12.4111  12.4564  12.4892  12.5259  12.6670  12.7054  12.7796
    12.9130  12.9169  12.9309  13.0138  13.0243  13.1574  13.2297  13.2667
    13.2688  13.3135  13.3189  13.3430  13.4248  13.4262  13.5045  13.5434
    13.5486  13.6625  13.8232  13.8527  13.8885  13.9161  13.9385  14.0214
    14.0375  14.2129

     occupation numbers 
     1.0000   1.0000   1.0000   1.0000   1.0000   1.0000   1.0000   1.0000
     1.0000   1.0000   1.0000   1.0000   1.0000   1.0000   1.0000   1.0000
     1.0000   1.0000   1.0000   1.0000   1.0000   1.0000   1.0000   1.0000
     1.0000   1.0000   1.0000   1.0000   1.0000   1.0000   1.0000   1.0000
     1.0000   1.0000   1.0000   1.0000   1.0000   1.0000   1.0000   1.0000
     1.0000   1.0000   1.0000   1.0000   1.0000   1.0000   1.0000   1.0000
     1.0000   1.0000   1.0000   1.0000   1.0000   1.0000   1.0000   1.0000
     1.0000   1.0000   1.0000   1.0000   1.0000   1.0000   1.0000   1.0000
     1.0000   1.0000   1.0000   1.0000   1.0000   1.0000   1.0000   1.0000
     1.0000   1.0000   1.0000   1.0000   1.0000   1.0000   1.0000   1.0000
     1.0000   1.0000   1.0000   1.0000   1.0000   1.0000   1.0000   1.0000
     1.0000   1.0000   1.0000   1.0000   1.0000   1.0000   1.0000   1.0000
     1.0000   1.0000   1.0000   1.0000   1.0000   1.0000   1.0000   1.0000
     1.0000   1.0000   1.0000   1.0000   1.0000   1.0000   1.0000   1.0000
     1.0000   1.0000   1.0000   1.0000   1.0000   1.0000   1.0000   1.0000
     1.0000   1.0000   1.0000   1.0000   1.0000   1.0000   1.0000   1.0000
     1.0000   1.0000   1.0000   1.0000   1.0000   1.0000   1.0000   1.0000
     1.0000   1.0000   1.0000   1.0000   1.0000   1.0000   1.0000   1.0000
     1.0000   1.0000   1.0000   1.0000   1.0000   1.0000   1.0000   1.0000
     1.0000   1.0000   1.0000   1.0000   1.0000   1.0000   1.0000   1.0000
     1.0000   1.0000   1.0000   1.0000   1.0000   1.0000   1.0000   1.0000
     1.0000   1.0000   1.0000   1.0000   1.0000   1.0000   1.0000   1.0000
     1.0000   1.0000   1.0000   1.0000   1.0000   1.0000   1.0000   1.0000
     1.0000   1.0000   1.0000   1.0000   1.0000   1.0000   1.0000   1.0000
     1.0000   1.0000   1.0000   1.0000   1.0000   1.0000   1.0000   1.0000
     1.0000   1.0000   1.0000   1.0000   1.0000   1.0000   1.0000   1.0000
     1.0000   1.0000   1.0000   1.0000   1.0000   1.0000   1.0000   1.0000
     1.0000   1.0000   1.0000   1.0000   1.0000   1.0000   1.0000   1.0000
     1.0000   1.0000   1.0000   1.0000   1.0000   1.0000   1.0000   1.0000
     1.0000   1.0000   1.0000   1.0000   1.0000   1.0000   1.0000   1.0000
     1.0000   1.0000   1.0000   1.0000   1.0000   1.0000   1.0000   1.0000
     1.0000   1.0000   1.0000   1.0000   1.0000   1.0000   1.0000   1.0000
     1.0000   1.0000   1.0000   1.0000   1.0000   1.0000   0.0000   0.0000
     0.0000   0.0000   0.0000   0.0000   0.0000   0.0000   0.0000   0.0000
     0.0000   0.0000   0.0000   0.0000   0.0000   0.0000   0.0000   0.0000
     0.0000   0.0000   0.0000   0.0000   0.0000   0.0000   0.0000   0.0000
     0.0000   0.0000   0.0000   0.0000   0.0000   0.0000   0.0000   0.0000
     0.0000   0.0000   0.0000   0.0000   0.0000   0.0000   0.0000   0.0000
     0.0000   0.0000   0.0000   0.0000   0.0000   0.0000   0.0000   0.0000
     0.0000   0.0000

          k = 0.3348 0.0000 0.4058 ( 53609 PWs)   bands (ev):

   -78.1402 -78.1371 -67.8676 -67.8676 -67.7637 -67.7637 -67.6562 -67.6561
   -67.2928 -67.2927 -67.1204 -67.1204 -44.3176 -44.3146 -44.2848 -44.2818
   -44.1662 -44.1631 -34.6334 -34.6331 -34.6132 -34.6129 -34.6123 -34.6123
   -34.5324 -34.5323 -34.5115 -34.5114 -34.5036 -34.5036 -34.4213 -34.4212
   -34.4135 -34.4134 -34.3888 -34.3887 -34.0482 -34.0481 -34.0465 -34.0465
   -34.0411 -34.0411 -33.8935 -33.8935 -33.8639 -33.8639 -33.8616 -33.8615
   -23.3622 -23.3620 -23.2589 -23.2587 -15.1579 -15.1394 -15.0054 -14.9766
   -14.4264 -14.4157 -14.3134 -14.2983 -14.0145 -13.9984 -13.8884 -13.8751
   -13.5401 -13.4505 -13.4120 -13.3348 -13.3034 -13.2668 -13.2401 -13.2237
   -13.1499 -13.1239 -13.0635 -13.0215 -13.0044 -13.0038 -13.0005 -12.9739
   -12.9019 -12.8920 -12.8335 -12.8257 -12.7258 -12.6931 -12.6692 -12.6165
   -12.5931 -12.5424 -12.5405 -12.5093 -12.4122 -12.3968 -12.3233 -12.3146
   -11.3471 -11.3212 -11.1386 -11.1066  -6.9008  -6.9000  -6.8510  -6.8509
    -6.8433  -6.8419  -6.8102  -6.8049  -6.7424  -6.7416  -6.7297  -6.7251
    -4.2835  -4.2375  -3.8516  -3.8412  -2.6762  -2.5944  -2.5361  -2.4831
    -1.9478  -1.9327  -1.8292  -1.6120  -1.5844  -1.5442  -1.4567  -1.4106
    -1.0384  -0.9856  -0.9791  -0.9524  -0.8697  -0.8573  -0.8227  -0.7894
    -0.6981  -0.5837  -0.5011  -0.4597  -0.4586  -0.4194  -0.4088  -0.3303
    -0.2296  -0.0907  -0.0808  -0.0269  -0.0042   0.1101   0.1908   0.1916
     0.3354   0.3470   0.4322   0.4513   0.4604   0.5270   0.5759   0.6673
     0.8590   0.8917   0.9488   1.0058   1.0103   1.0514   1.0725   1.1545
     1.1658   1.2056   1.3037   1.3150   1.3742   1.3931   1.4133   1.4451
     1.4651   1.4971   1.5714   1.6484   1.7333   1.8102   1.8133   1.8331
     1.8913   1.9869   2.0676   2.1029   2.1199   2.1409   2.1761   2.1923
     2.1971   2.2532   2.2825   2.3427   2.3540   2.4247   2.4410   2.4662
     2.4920   2.5246   2.5494   2.5811   2.5814   2.6341   2.6653   2.6886
     2.7000   2.7197   2.7861   2.7894   2.8911   2.9026   2.9099   2.9242
     2.9698   2.9833   3.0013   3.0296   3.0714   3.0985   3.1125   3.1263
     3.1320   3.1712   3.2457   3.2535   3.2683   3.2687   3.2987   3.3347
     3.3443   3.3540   3.4082   3.4148   3.4382   3.4816   3.5086   3.5232
     3.5280   3.5580   3.5973   3.6097   3.6185   3.6309   3.6757   3.7305
     3.7988   3.8291   3.9283   4.0875   4.1378   4.2192   4.2457   4.2833
     7.9451   7.9542   8.1662   8.1803   8.1954   8.2145   9.4119   9.4367
     9.4695   9.6738   9.8799  10.0051  10.0314  10.9253  11.2608  11.4468
    11.4503  11.6449  11.6456  11.7761  11.9520  11.9548  12.0204  12.0876
    12.1989  12.3014  12.4013  12.5671  12.6017  12.6620  12.7770  12.8515
    12.9193  12.9706  13.0157  13.0418  13.0555  13.1011  13.1832  13.2049
    13.2644  13.2903  13.3200  13.3646  13.3793  13.4492  13.4564  13.5682
    13.5980  13.6713  13.7344  13.7363  13.8409  13.8881  13.9388  14.0418
    14.0435  14.1816

     occupation numbers 
     1.0000   1.0000   1.0000   1.0000   1.0000   1.0000   1.0000   1.0000
     1.0000   1.0000   1.0000   1.0000   1.0000   1.0000   1.0000   1.0000
     1.0000   1.0000   1.0000   1.0000   1.0000   1.0000   1.0000   1.0000
     1.0000   1.0000   1.0000   1.0000   1.0000   1.0000   1.0000   1.0000
     1.0000   1.0000   1.0000   1.0000   1.0000   1.0000   1.0000   1.0000
     1.0000   1.0000   1.0000   1.0000   1.0000   1.0000   1.0000   1.0000
     1.0000   1.0000   1.0000   1.0000   1.0000   1.0000   1.0000   1.0000
     1.0000   1.0000   1.0000   1.0000   1.0000   1.0000   1.0000   1.0000
     1.0000   1.0000   1.0000   1.0000   1.0000   1.0000   1.0000   1.0000
     1.0000   1.0000   1.0000   1.0000   1.0000   1.0000   1.0000   1.0000
     1.0000   1.0000   1.0000   1.0000   1.0000   1.0000   1.0000   1.0000
     1.0000   1.0000   1.0000   1.0000   1.0000   1.0000   1.0000   1.0000
     1.0000   1.0000   1.0000   1.0000   1.0000   1.0000   1.0000   1.0000
     1.0000   1.0000   1.0000   1.0000   1.0000   1.0000   1.0000   1.0000
     1.0000   1.0000   1.0000   1.0000   1.0000   1.0000   1.0000   1.0000
     1.0000   1.0000   1.0000   1.0000   1.0000   1.0000   1.0000   1.0000
     1.0000   1.0000   1.0000   1.0000   1.0000   1.0000   1.0000   1.0000
     1.0000   1.0000   1.0000   1.0000   1.0000   1.0000   1.0000   1.0000
     1.0000   1.0000   1.0000   1.0000   1.0000   1.0000   1.0000   1.0000
     1.0000   1.0000   1.0000   1.0000   1.0000   1.0000   1.0000   1.0000
     1.0000   1.0000   1.0000   1.0000   1.0000   1.0000   1.0000   1.0000
     1.0000   1.0000   1.0000   1.0000   1.0000   1.0000   1.0000   1.0000
     1.0000   1.0000   1.0000   1.0000   1.0000   1.0000   1.0000   1.0000
     1.0000   1.0000   1.0000   1.0000   1.0000   1.0000   1.0000   1.0000
     1.0000   1.0000   1.0000   1.0000   1.0000   1.0000   1.0000   1.0000
     1.0000   1.0000   1.0000   1.0000   1.0000   1.0000   1.0000   1.0000
     1.0000   1.0000   1.0000   1.0000   1.0000   1.0000   1.0000   1.0000
     1.0000   1.0000   1.0000   1.0000   1.0000   1.0000   1.0000   1.0000
     1.0000   1.0000   1.0000   1.0000   1.0000   1.0000   1.0000   1.0000
     1.0000   1.0000   1.0000   1.0000   1.0000   1.0000   1.0000   1.0000
     1.0000   1.0000   1.0000   1.0000   1.0000   1.0000   1.0000   1.0000
     1.0000   1.0000   1.0000   1.0000   1.0000   1.0000   1.0000   1.0000
     1.0000   1.0000   1.0000   1.0000   1.0000   1.0000   0.0000   0.0000
     0.0000   0.0000   0.0000   0.0000   0.0000   0.0000   0.0000   0.0000
     0.0000   0.0000   0.0000   0.0000   0.0000   0.0000   0.0000   0.0000
     0.0000   0.0000   0.0000   0.0000   0.0000   0.0000   0.0000   0.0000
     0.0000   0.0000   0.0000   0.0000   0.0000   0.0000   0.0000   0.0000
     0.0000   0.0000   0.0000   0.0000   0.0000   0.0000   0.0000   0.0000
     0.0000   0.0000   0.0000   0.0000   0.0000   0.0000   0.0000   0.0000
     0.0000   0.0000

          k = 0.3348 0.0000-0.2862 ( 53589 PWs)   bands (ev):

   -78.1402 -78.1371 -67.8676 -67.8676 -67.7637 -67.7637 -67.6562 -67.6561
   -67.2928 -67.2927 -67.1204 -67.1204 -44.3176 -44.3146 -44.2848 -44.2818
   -44.1662 -44.1631 -34.6334 -34.6331 -34.6132 -34.6129 -34.6123 -34.6122
   -34.5324 -34.5323 -34.5115 -34.5114 -34.5036 -34.5036 -34.4213 -34.4212
   -34.4135 -34.4134 -34.3888 -34.3887 -34.0482 -34.0481 -34.0465 -34.0465
   -34.0411 -34.0411 -33.8935 -33.8935 -33.8639 -33.8639 -33.8616 -33.8615
   -23.3622 -23.3620 -23.2589 -23.2587 -15.1623 -15.1348 -14.9966 -14.9858
   -14.4323 -14.4097 -14.3141 -14.2976 -14.0127 -14.0004 -13.8882 -13.8753
   -13.5417 -13.4485 -13.4069 -13.3393 -13.3077 -13.2665 -13.2381 -13.2241
   -13.1495 -13.1236 -13.0550 -13.0250 -13.0164 -12.9991 -12.9969 -12.9737
   -12.9017 -12.8941 -12.8332 -12.8255 -12.7278 -12.6897 -12.6668 -12.6185
   -12.5964 -12.5383 -12.5357 -12.5160 -12.4127 -12.3959 -12.3222 -12.3158
   -11.3470 -11.3211 -11.1387 -11.1065  -6.9008  -6.9001  -6.8510  -6.8509
    -6.8433  -6.8419  -6.8102  -6.8049  -6.7424  -6.7416  -6.7297  -6.7251
    -4.2667  -4.2546  -3.8759  -3.8163  -2.6673  -2.6038  -2.5342  -2.4837
    -1.9434  -1.9386  -1.8418  -1.6081  -1.5743  -1.5434  -1.4598  -1.4047
    -1.0300  -0.9952  -0.9882  -0.9566  -0.8684  -0.8654  -0.8171  -0.7684
    -0.7165  -0.5576  -0.4963  -0.4810  -0.4421  -0.4231  -0.3908  -0.3743
    -0.2009  -0.1132  -0.0826  -0.0306   0.0102   0.0859   0.1906   0.2068
     0.3337   0.3543   0.4256   0.4476   0.4884   0.5052   0.6091   0.6554
     0.8704   0.9050   0.9280   0.9855   0.9955   1.0421   1.0878   1.1051
     1.1585   1.2306   1.3166   1.3412   1.3663   1.3797   1.4206   1.4249
     1.4973   1.5482   1.5857   1.5928   1.7357   1.7863   1.8405   1.8627
     1.9158   1.9177   2.0699   2.0939   2.1090   2.1503   2.1545   2.1822
     2.2289   2.2372   2.3034   2.3129   2.4053   2.4283   2.4340   2.4551
     2.5055   2.5292   2.5509   2.5694   2.5903   2.6050   2.6507   2.6773
     2.7219   2.7346   2.8000   2.8365   2.8723   2.8879   2.8974   2.9161
     2.9315   2.9961   3.0156   3.0511   3.0753   3.0876   3.0999   3.1115
     3.1440   3.1560   3.2252   3.2595   3.2665   3.2792   3.3466   3.3495
     3.3571   3.3641   3.3642   3.4005   3.4279   3.4676   3.5100   3.5135
     3.5307   3.5649   3.5980   3.6117   3.6294   3.6386   3.7023   3.7065
     3.7701   3.8491   3.9486   4.0855   4.1346   4.2147   4.2465   4.2816
     7.9460   7.9534   8.1649   8.1798   8.1959   8.2162   9.3555   9.4368
     9.4479   9.6313   9.7136  10.3068  10.3786  10.5363  11.2979  11.3801
    11.5033  11.6298  11.7141  11.7624  11.8699  11.9553  11.9892  12.0628
    12.2189  12.3147  12.4112  12.5254  12.6721  12.7038  12.7101  12.7977
    12.9121  13.0037  13.0123  13.0292  13.0808  13.1428  13.1680  13.1834
    13.2636  13.2836  13.3247  13.4018  13.4319  13.4964  13.5080  13.5512
    13.5896  13.6644  13.7087  13.7383  13.7687  13.8303  13.9393  14.0342
    14.1300  14.1560

     occupation numbers 
     1.0000   1.0000   1.0000   1.0000   1.0000   1.0000   1.0000   1.0000
     1.0000   1.0000   1.0000   1.0000   1.0000   1.0000   1.0000   1.0000
     1.0000   1.0000   1.0000   1.0000   1.0000   1.0000   1.0000   1.0000
     1.0000   1.0000   1.0000   1.0000   1.0000   1.0000   1.0000   1.0000
     1.0000   1.0000   1.0000   1.0000   1.0000   1.0000   1.0000   1.0000
     1.0000   1.0000   1.0000   1.0000   1.0000   1.0000   1.0000   1.0000
     1.0000   1.0000   1.0000   1.0000   1.0000   1.0000   1.0000   1.0000
     1.0000   1.0000   1.0000   1.0000   1.0000   1.0000   1.0000   1.0000
[...]
     atom   87 type  2   force =     0.00000000   -0.00005933    0.00000000
     atom   88 type  3   force =     0.00000000   -0.00004547   -0.00000000

     DFT-D3 dispersion contribution to forces:
     atom    1 type  5   force =     0.00000001    0.00082667   -0.00000000
     atom    2 type  5   force =     0.00000001    0.00082665   -0.00000000
     atom    3 type  5   force =     0.00000000   -0.00055091   -0.00000003
     atom    4 type  5   force =    -0.00000000   -0.00055091    0.00000003
     atom    5 type  6   force =    -0.00000001    0.00067769    0.00000000
     atom    6 type  6   force =    -0.00000000    0.00067774    0.00000000
     atom    7 type  6   force =    -0.00000001   -0.00154210   -0.00000000
     atom    8 type  6   force =    -0.00000001   -0.00154197   -0.00000000
     atom    9 type  6   force =    -0.00000003   -0.00081769   -0.00000001
     atom   10 type  6   force =     0.00000004   -0.00081769    0.00000001
     atom   11 type  6   force =     0.00000005    0.00116305    0.00000000
     atom   12 type  6   force =    -0.00000004    0.00116305   -0.00000000
     atom   13 type  6   force =     0.00000008   -0.00004245    0.00000001
     atom   14 type  6   force =    -0.00000007   -0.00004245   -0.00000002
     atom   15 type  8   force =    -0.00003545   -0.00004142   -0.00007021
     atom   16 type  8   force =    -0.00003544   -0.00004144   -0.00007021
     atom   17 type  8   force =     0.00003544   -0.00004144    0.00007021
     atom   18 type  8   force =     0.00003546   -0.00004142    0.00007021
     atom   19 type  8   force =     0.00005671   -0.00003814    0.00014099
     atom   20 type  8   force =     0.00005669   -0.00003812    0.00014099
     atom   21 type  8   force =    -0.00005669   -0.00003812   -0.00014099
     atom   22 type  8   force =    -0.00005670   -0.00003814   -0.00014099
     atom   23 type  8   force =    -0.00015307    0.00012816   -0.00016985
     atom   24 type  8   force =    -0.00015309    0.00012815   -0.00016984
     atom   25 type  8   force =     0.00015309    0.00012815    0.00016984
     atom   26 type  8   force =     0.00015308    0.00012816    0.00016985
     atom   27 type  1   force =    -0.00001491    0.00007276   -0.00101751
     atom   28 type  1   force =    -0.00001496    0.00007275   -0.00101753
     atom   29 type  1   force =     0.00001496    0.00007276    0.00101753
     atom   30 type  1   force =     0.00001491    0.00007276    0.00101752
     atom   31 type  7   force =     0.00000014   -0.00001193    0.00048400
     atom   32 type  7   force =     0.00000015   -0.00001192    0.00048401
     atom   33 type  7   force =    -0.00000014   -0.00001192   -0.00048401
     atom   34 type  7   force =    -0.00000014   -0.00001193   -0.00048400
     atom   35 type  7   force =    -0.00000850    0.00001934   -0.00037745
     atom   36 type  7   force =    -0.00000850    0.00001934   -0.00037745
     atom   37 type  7   force =     0.00000850    0.00001934    0.00037745
     atom   38 type  7   force =     0.00000850    0.00001934    0.00037745
     atom   39 type  7   force =    -0.00000529   -0.00005539    0.00041697
     atom   40 type  7   force =    -0.00000528   -0.00005539    0.00041698
     atom   41 type  7   force =     0.00000528   -0.00005539   -0.00041698
     atom   42 type  7   force =     0.00000529   -0.00005539   -0.00041697
     atom   43 type  7   force =     0.00003727   -0.00003548    0.00008318
     atom   44 type  7   force =     0.00003729   -0.00003550    0.00008320
     atom   45 type  7   force =    -0.00003729   -0.00003550   -0.00008319
     atom   46 type  7   force =    -0.00003727   -0.00003548   -0.00008318
     atom   47 type  7   force =    -0.00021998    0.00105190    0.00021525
     atom   48 type  7   force =    -0.00021998    0.00105191    0.00021522
     atom   49 type  7   force =     0.00021998    0.00105191   -0.00021522
     atom   50 type  7   force =     0.00021998    0.00105190   -0.00021525
     atom   51 type  7   force =     0.00085919    0.00008840    0.00020210
     atom   52 type  7   force =     0.00085918    0.00008840    0.00020211
     atom   53 type  7   force =    -0.00085918    0.00008840   -0.00020211
     atom   54 type  7   force =    -0.00085919    0.00008840   -0.00020210
     atom   55 type  7   force =     0.00035767   -0.00049813   -0.00008617
     atom   56 type  7   force =     0.00035767   -0.00049813   -0.00008616
     atom   57 type  7   force =    -0.00035767   -0.00049813    0.00008616
     atom   58 type  7   force =    -0.00035767   -0.00049813    0.00008618
     atom   59 type  7   force =    -0.00022609    0.00031110    0.00008940
     atom   60 type  7   force =    -0.00022611    0.00031110    0.00008933
     atom   61 type  7   force =     0.00022611    0.00031109   -0.00008932
     atom   62 type  7   force =     0.00022609    0.00031110   -0.00008939
     atom   63 type  7   force =     0.00095908   -0.00046043    0.00042349
     atom   64 type  7   force =     0.00095912   -0.00046044    0.00042347
     atom   65 type  7   force =    -0.00095912   -0.00046044   -0.00042347
     atom   66 type  7   force =    -0.00095908   -0.00046043   -0.00042349
     atom   67 type  7   force =     0.00072336   -0.00066168   -0.00033726
     atom   68 type  7   force =     0.00072334   -0.00066170   -0.00033726
     atom   69 type  7   force =    -0.00072334   -0.00066170    0.00033725
     atom   70 type  7   force =    -0.00072336   -0.00066168    0.00033726
     atom   71 type  7   force =     0.00007802    0.00013192   -0.00052254
     atom   72 type  7   force =     0.00007800    0.00013194   -0.00052262
     atom   73 type  7   force =    -0.00007800    0.00013194    0.00052262
     atom   74 type  7   force =    -0.00007802    0.00013191    0.00052254
     atom   75 type  7   force =     0.00002646    0.00004537   -0.00048109
     atom   76 type  7   force =     0.00002646    0.00004540   -0.00048109
     atom   77 type  7   force =    -0.00002646    0.00004540    0.00048109
     atom   78 type  7   force =    -0.00002646    0.00004537    0.00048109
     atom   79 type  4   force =     0.00019696    0.00043663   -0.00013864
     atom   80 type  4   force =     0.00019698    0.00043660   -0.00013863
     atom   81 type  4   force =    -0.00019698    0.00043660    0.00013864
     atom   82 type  4   force =    -0.00019696    0.00043663    0.00013864
     atom   83 type  4   force =     0.00008727   -0.00051640   -0.00023091
     atom   84 type  4   force =     0.00008735   -0.00051638   -0.00023084
     atom   85 type  4   force =    -0.00008735   -0.00051638    0.00023084
     atom   86 type  4   force =    -0.00008728   -0.00051640    0.00023090
     atom   87 type  2   force =    -0.00000001    0.00035254   -0.00000000
     atom   88 type  3   force =    -0.00000001    0.00035245   -0.00000000

     Total force =     0.000841     Total SCF correction =     0.000167

     DFT-D3 dispersion Force =     0.006546
     SCF correction compared to forces is large: reduce conv_thr to get better values


     Computing stress (Cartesian axis) and pressure

          total   stress  (Ry/bohr**3)                   (kbar)     P=        0.02
   0.00000037   0.00000000  -0.00000050            0.05        0.00       -0.07
   0.00000000   0.00000017   0.00000000            0.00        0.03        0.00
  -0.00000050   0.00000000  -0.00000006           -0.07        0.00       -0.01

     kinetic stress (kbar)  20395.77      0.00     -4.45
                                0.00  20383.85      0.00
                               -4.45      0.00  20104.06

     local   stress (kbar) -42529.73      0.00    -87.94
                                0.00 -41970.88     -0.00
                              -87.94     -0.00  20987.18

     nonloc. stress (kbar)   3837.64      0.00     -4.46
                                0.00   3838.13      0.00
                               -4.46      0.00   3822.46

     hartree stress (kbar)  23890.84      0.00     33.93
                                0.00  23614.78     -0.00
                               33.93     -0.00  -7172.25

     exc-cor stress (kbar)  -2854.01      0.00      0.21
                                0.00  -2853.98      0.00
                                0.21      0.00  -2850.93

     corecor stress (kbar)  -1881.88     -0.00      0.24
                               -0.00  -1881.90     -0.00
                                0.24     -0.00  -1883.52

     ewald   stress (kbar)   -843.41     -0.00     62.31
                               -0.00  -1114.77      0.00
                               62.31      0.00 -32995.88

     hubbard stress (kbar)      0.00      0.00      0.00
                                0.00      0.00      0.00
                                0.00      0.00      0.00

     DFT-D   stress (kbar)    -15.17      0.00      0.08
                                0.00    -15.21     -0.00
                                0.08     -0.00    -11.13

     XDM     stress (kbar)      0.00      0.00      0.00
                                0.00      0.00      0.00
                                0.00      0.00      0.00

     dft-nl  stress (kbar)      0.00      0.00      0.00
                                0.00      0.00      0.00
                                0.00      0.00      0.00

     TS-vdW  stress (kbar)      0.00      0.00      0.00
                                0.00      0.00      0.00
                                0.00      0.00      0.00

     MDB     stress (kbar)      0.00      0.00      0.00
                                0.00      0.00      0.00
                                0.00      0.00      0.00

     3D-RISM stress (kbar)      0.00      0.00      0.00
                                0.00      0.00      0.00
                                0.00      0.00      0.00

     Energy error            =      1.8E-06 Ry
     Gradient error          =      1.7E-04 Ry/Bohr
     Cell gradient error     =      7.4E-02 kbar

     number of scf cycles    =  50
     number of bfgs steps    =  49

     enthalpy           old  =   -5262.4122758624 Ry
     enthalpy           new  =   -5262.4122776732 Ry

     CASE: enthalpy          _new < enthalpy          _old

     new trust radius        =       0.0025537003 bohr
ibrav =    -12
 celldm(1) =     20.05449426
 celldm(2) =      0.86491157
 celldm(3) =      0.98346521
 celldm(5) =     -0.18041806
Input lattice vectors:
     0.99599739     0.00000000    -0.00000377
     0.00000000     0.86144966     0.00000000
    -0.17672104     0.00000000     0.96345539
New lattice vectors in INITIAL alat:
     0.99599739     0.00000000     0.00000000
     0.00000000     0.86144966     0.00000000
    -0.17672468     0.00000000     0.96345473
New lattice vectors in NEW alat (for information only):
     1.00000000     0.00000000     0.00000000
     0.00000000     0.86491157     0.00000000
    -0.17743489     0.00000000     0.96732656
Discrepancy in bohr =     0.000004    0.000000    0.000004
     new conv_thr            =       0.0000000100 Ry

     new unit-cell volume =   6748.07594 a.u.^3 (   999.96169 Ang^3 )
     density =      2.87636 g/cm^3

CELL_PARAMETERS (alat= 20.13508722)
   0.995997387   0.000000000   0.000000000
   0.000000000   0.861449663   0.000000000
  -0.176724685   0.000000000   0.963454725

ATOMIC_POSITIONS (crystal)
K                0.0000000000        0.4965181322        0.0000000000
K                0.5000000000        0.4965204863        0.0000000000
K                0.2500006249        0.0058058436       -0.0000003460
K                0.7499994951        0.0058058436        0.0000003460
Mg              -0.0000000000        0.0088946320        0.4999999400
Mg               0.5000000000        0.0088951337        0.4999999400
Mg              -0.0000000000        0.6617341899        0.4999999400
Mg               0.5000000000        0.6617345060        0.4999999400
Mg               0.2499994478        0.4903356905        0.4999992022
Mg               0.7500008202        0.4903356905        0.5000006778
Mg               0.2500005757        0.8349166806        0.5000003429
Mg               0.7499996923        0.8349166806        0.4999995371
Mg               0.2500012378        0.1744778674        0.5000000516
Mg               0.7499990302        0.1744778674        0.4999998284
Si               0.0431404002        0.1681020138        0.2276421400
Si               0.5431408938        0.1681018825        0.2276424116
Si               0.4568594042        0.1681018825        0.7723574994
Si               0.9568599008        0.1681020138        0.7723577710
Si               0.4688780671        0.8354746806        0.7656754748
Si               0.9688779033        0.8354747854        0.7656753878
Si               0.0311223877        0.8354747854        0.2343244932
Si               0.5311222609        0.8354746806        0.2343244062
Si               0.2802080362        0.6671351860        0.2312897195
Si               0.7802077280        0.6671350910        0.2312903167
Si               0.2197925700        0.6671350910        0.7687095643
Si               0.7197922618        0.6671351860        0.7687101615
Al               0.2052676753        0.3321422587        0.7715381676
Al               0.7052677164        0.3321422294        0.7715385476
Al               0.2947326116        0.3321422294        0.2284613184
Al               0.7947326377        0.3321422587        0.2284616984
O                0.0635814756        0.1681754355        0.3871265678
O                0.5635817360        0.1681750129        0.3871270447
O                0.4364185620        0.1681750129        0.6128728963
O                0.9364188454        0.1681754355        0.6128733732
O                0.4380678543        0.8323006040        0.6079773374
O                0.9380674070        0.8323009445        0.6079776055
O                0.0619329500        0.8323009445        0.3920223045
O                0.5619324737        0.8323006040        0.3920225726
O                0.3112277769        0.6676952317        0.3899501157
O                0.8112269990        0.6676946351        0.3899507403
O                0.1887732540        0.6676946351        0.6100491697
O                0.6887724911        0.6676952317        0.6100497943
O                0.1799164405        0.3330337402        0.6026593911
O                0.6799146259        0.3330340908        0.6026598315
O                0.3200857021        0.3330340908        0.3973399895
O                0.8200838425        0.3330337402        0.3973404299
O                0.1738732906        0.2020772817        0.1715725625
O                0.6738731401        0.2020773069        0.1715728201
O                0.3261271879        0.2020773069        0.8284270009
O                0.8261269924        0.2020772817        0.8284272585
O               -0.0022734881        0.9997642799        0.1751636958
O                0.4977266085        0.9997640724        0.1751643984
O                0.5022737195        0.9997640724        0.8248354816
O                1.0022738421        0.9997642799        0.8248361842
O                0.3443798801        0.7748241831        0.8253001690
O                0.8443797138        0.7748239359        0.8253006071
O                0.1556206142        0.7748239359        0.1746992889
O                0.6556204179        0.7748241831        0.1746997270
O                0.4048058116        0.7353860847        0.1738175703
O                0.9048059303        0.7353852013        0.1738182551
O                0.0951943747        0.7353852013        0.8261816259
O                0.5951944864        0.7353860847        0.8261823107
O                0.2479359870        0.5083123039        0.1663287782
O                0.7479337446        0.5083120599        0.1663301083
O                0.2520665684        0.5083120599        0.8336697577
O                0.7520642810        0.5083123039        0.8336710878
O                0.0686935980        0.2813012775        0.8364501281
O                0.5686935972        0.2813005259        0.8364485875
O                0.4313067298        0.2813005259        0.1635513085
O                0.9313067000        0.2813012775        0.1635497679
O                0.0630286782        0.4962433076        0.3982310743
O                0.5630290726        0.4962413392        0.3982339908
O                0.4369712254        0.4962413392        0.6017659202
O                0.9369716198        0.4962433076        0.6017688367
O                0.3159378961        1.0001733223        0.3998209239
O                0.8159368961        1.0001719834        0.3998217590
O                0.1840634759        1.0001719834        0.6001781220
O                0.6840624319        1.0001733223        0.6001789571
H                0.0427074802        0.4778141290        0.3053584116
H                0.5427081308        0.4778146955        0.3053602105
H                0.4572922272        0.4778146955        0.6946397005
H                0.9572928518        0.4778141290        0.6946414994
H                0.2973509335        0.0171213639        0.3068759088
H                0.7973485625        0.0171205300        0.3068741018
H                0.2026517215        0.0171205300        0.6931257792
H                0.7026493935        0.0171213639        0.6931239722
Fe1             -0.0000000000        0.3331619633        0.4999999400
Fe2              0.5000000000        0.3331604815        0.4999999400



     Writing config-only to output data dir ./temp/phl-fe1-fe2x2.save/ :
     XML data file
     NEW-OLD atomic charge density approx. for the potential

     Check: negative core charge=   -0.000004

     total cpu time spent up to now is   166305.8 secs

     Self-consistent Calculation

     iteration #  1     ecut=    60.00 Ry     beta= 0.70
     Davidson diagonalization with overlap

---- Real-time Memory Report at c_bands before calling an iterative solver
          1499 MiB given to the printing process from OS
             0 MiB allocation reported by mallinfo(arena+hblkhd)
          9744 MiB available memory on the node where the printing process lives
------------------
     ethr =  1.00E-06,  avg # of iterations =  2.0

     Threshold (ethr) on eigenvalues was too large:
     Diagonalizing with lowered threshold

     Davidson diagonalization with overlap

---- Real-time Memory Report at c_bands before calling an iterative solver
          1499 MiB given to the printing process from OS
             0 MiB allocation reported by mallinfo(arena+hblkhd)
          9637 MiB available memory on the node where the printing process lives
------------------
     ethr =  1.62E-09,  avg # of iterations =  9.0

     total cpu time spent up to now is   169499.8 secs

     total energy              =   -5262.41227862 Ry
     estimated scf accuracy    <       0.00000304 Ry

     iteration #  2     ecut=    60.00 Ry     beta= 0.70
     Davidson diagonalization with overlap

---- Real-time Memory Report at c_bands before calling an iterative solver
          1499 MiB given to the printing process from OS
             0 MiB allocation reported by mallinfo(arena+hblkhd)
          9764 MiB available memory on the node where the printing process lives
------------------
     ethr =  5.80E-10,  avg # of iterations =  2.0

     total cpu time spent up to now is   170339.3 secs

     total energy              =   -5262.41227910 Ry
     estimated scf accuracy    <       0.00000023 Ry

     iteration #  3     ecut=    60.00 Ry     beta= 0.70
     Davidson diagonalization with overlap

---- Real-time Memory Report at c_bands before calling an iterative solver
          1499 MiB given to the printing process from OS
             0 MiB allocation reported by mallinfo(arena+hblkhd)
          9750 MiB available memory on the node where the printing process lives
------------------
