--------------------------------------------------------------------------
WARNING: There is at least non-excluded one OpenFabrics device found,
but there are no active ports detected (or Open MPI was unable to use
them).  This is most certainly not what you wanted.  Check your
cables, subnet manager configuration, etc.  The openib BTL will be
ignored for this job.

  Local host: miserver1
--------------------------------------------------------------------------

     Program PWSCF v.7.3.1 starts on 17Feb2025 at 13:55:12 

     This program is part of the open-source Quantum ESPRESSO suite
     for quantum simulation of materials; please cite
         "P. Giannozzi et al., J. Phys.:Condens. Matter 21 395502 (2009);
         "P. Giannozzi et al., J. Phys.:Condens. Matter 29 465901 (2017);
         "P. Giannozzi et al., J. Chem. Phys. 152 154105 (2020);
          URL http://www.quantum-espresso.org", 
     in publications or presentations arising from this work. More details at
     http://www.quantum-espresso.org/quote

     Parallel version (MPI), running on     6 processors

     MPI processes distributed on     1 nodes
     14554 MiB available memory on the printing compute node when the environment starts

     Reading input from vc_relax.in

     Current dimensions of program PWSCF are:
     Max number of different atomic species (ntypx) = 10
     Max number of k-points (npk) =  40000
     Max angular momentum in pseudopotentials (lmaxx) =  4
     file Al.pbe-n-kjpaw_psl.1.0.0.UPF: wavefunction(s)  3S 3P renormalized
     file Fe.pbe-spn-kjpaw_psl.1.0.0.UPF: wavefunction(s)  3P 3D renormalized
     file Fe.pbe-spn-kjpaw_psl.1.0.0.UPF: wavefunction(s)  3P 3D renormalized
     file H.pbe-kjpaw_psl.1.0.0.UPF: wavefunction(s)  1S renormalized
     file K.pbe-spn-kjpaw_psl.1.0.0.UPF: wavefunction(s)  3S renormalized
     file Mg.pbe-spnl-kjpaw_psl.1.0.0.UPF: wavefunction(s)  2P renormalized
     file O.pbe-n-kjpaw_psl.1.0.0.UPF: wavefunction(s)  2S 2P renormalized
     file Si.pbe-n-kjpaw_psl.1.0.0.UPF: wavefunction(s)  3S 3P renormalized

     R & G space division:  proc/nbgrp/npool/nimage =       6
     Subspace diagonalization in iterative solution of the eigenvalue problem:
     one sub-group per band group will be used
     custom distributed-memory algorithm (size of sub-group:  2*  2 procs)


     Parallelization info
     --------------------
     sticks:   dense  smooth     PW     G-vecs:    dense   smooth      PW
     Min        2245    1122    295               202075    71450    9650
     Max        2246    1123    296               202076    71451    9652
     Sum       13475    6737   1775              1212455   428701   57909

     Using Slab Decomposition



     bravais-lattice index     =          -12
     lattice parameter (alat)  =      20.1351  a.u.
     unit-cell volume          =    6828.4878 (a.u.)^3
     number of atoms/cell      =           88
     number of atomic types    =            8
     number of electrons       =       524.00
     number of Kohn-Sham states=          314
     kinetic-energy cutoff     =      60.0000  Ry
     charge density cutoff     =     480.0000  Ry
     scf convergence threshold =      1.0E-06
     mixing beta               =       0.7000
     number of iterations used =            8  plain     mixing
     energy convergence thresh.=      1.0E-06
     force convergence thresh. =      1.0E-03
     press convergence thresh. =      5.0E-01
     Exchange-correlation= SLA  PW   PBX  PBC
                           (   1   4   3   4   0   0   0)
     nstep                     =           50


     celldm(1)=  20.135087  celldm(2)=   0.869801  celldm(3)=   0.977339
     celldm(4)=   0.000000  celldm(5)=  -0.178119  celldm(6)=   0.000000

     crystal axes: (cart. coord. in units of alat)
               a(1) = (   1.000000   0.000000   0.000000 )  
               a(2) = (   0.000000   0.869801   0.000000 )  
               a(3) = (  -0.174083   0.000000   0.961710 )  

     reciprocal axes: (cart. coord. in units 2 pi/alat)
               b(1) = (  1.000000 -0.000000  0.181014 )  
               b(2) = (  0.000000  1.149688 -0.000000 )  
               b(3) = (  0.000000  0.000000  1.039814 )  


     PseudoPot. # 1 for Al read from file:
     ./../../../pseudos/Al.pbe-n-kjpaw_psl.1.0.0.UPF
     MD5 check sum: 502b6b27b9c6270cab5dd1084b96fa6d
     Pseudo is Projector augmented-wave + core cor, Zval =  3.0
     Generated using &quot;atomic&quot; code by A. Dal Corso  v.6.3
     Shape of augmentation charge: PSQ
     Using radial grid of 1135 points,  6 beta functions with: 
                l(1) =   0
                l(2) =   0
                l(3) =   1
                l(4) =   1
                l(5) =   2
                l(6) =   2
     Q(r) pseudized with 0 coefficients 


     PseudoPot. # 2 for Fe read from file:
     ./../../../pseudos/Fe.pbe-spn-kjpaw_psl.1.0.0.UPF
     MD5 check sum: fc81f059e5c5069939230b1155715ae8
     Pseudo is Projector augmented-wave + core cor, Zval = 16.0
     Generated using &quot;atomic&quot; code by A. Dal Corso  v.6.3
     Shape of augmentation charge: PSQ
     Using radial grid of 1191 points,  6 beta functions with: 
                l(1) =   0
                l(2) =   0
                l(3) =   1
                l(4) =   1
                l(5) =   2
                l(6) =   2
     Q(r) pseudized with 0 coefficients 


     PseudoPot. # 3 for Fe read from file:
     ./../../../pseudos/Fe.pbe-spn-kjpaw_psl.1.0.0.UPF
     MD5 check sum: fc81f059e5c5069939230b1155715ae8
     Pseudo is Projector augmented-wave + core cor, Zval = 16.0
     Generated using &quot;atomic&quot; code by A. Dal Corso  v.6.3
     Shape of augmentation charge: PSQ
     Using radial grid of 1191 points,  6 beta functions with: 
                l(1) =   0
                l(2) =   0
                l(3) =   1
                l(4) =   1
                l(5) =   2
                l(6) =   2
     Q(r) pseudized with 0 coefficients 


     PseudoPot. # 4 for H  read from file:
     ./../../../pseudos/H.pbe-kjpaw_psl.1.0.0.UPF
     MD5 check sum: d81a744832360e4a8af0b0b5b123bc2a
     Pseudo is Projector augmented-wave, Zval =  1.0
     Generated using &quot;atomic&quot; code by A. Dal Corso  v.6.3MaX
     Shape of augmentation charge: PSQ
     Using radial grid of  929 points,  2 beta functions with: 
                l(1) =   0
                l(2) =   0
     Q(r) pseudized with 0 coefficients 


     PseudoPot. # 5 for K  read from file:
     ./../../../pseudos/K.pbe-spn-kjpaw_psl.1.0.0.UPF
     MD5 check sum: 34cc42130a09071ebe376fd42eb21491
     Pseudo is Projector augmented-wave + core cor, Zval =  9.0
     Generated using &quot;atomic&quot; code by A. Dal Corso  v.6.2.2
     Shape of augmentation charge: PSQ
     Using radial grid of 1165 points,  6 beta functions with: 
                l(1) =   0
                l(2) =   0
                l(3) =   1
                l(4) =   1
                l(5) =   2
                l(6) =   2
     Q(r) pseudized with 0 coefficients 


     PseudoPot. # 6 for Mg read from file:
     ./../../../pseudos/Mg.pbe-spnl-kjpaw_psl.1.0.0.UPF
     MD5 check sum: fda14e0d92a6a9a5ebed782e5a4b3067
     Pseudo is Projector augmented-wave + core cor, Zval = 10.0
     Generated using &quot;atomic&quot; code by A. Dal Corso  v.6.3
     Shape of augmentation charge: PSQ
     Using radial grid of 1129 points,  4 beta functions with: 
                l(1) =   0
                l(2) =   0
                l(3) =   1
                l(4) =   1
     Q(r) pseudized with 0 coefficients 


     PseudoPot. # 7 for O  read from file:
     ./../../../pseudos/O.pbe-n-kjpaw_psl.1.0.0.UPF
     MD5 check sum: e99d9cef9b487d1ca56f5b95ecd0fd7a
     Pseudo is Projector augmented-wave + core cor, Zval =  6.0
     Generated using &quot;atomic&quot; code by A. Dal Corso  v.6.3
     Shape of augmentation charge: PSQ
     Using radial grid of 1095 points,  4 beta functions with: 
                l(1) =   0
                l(2) =   0
                l(3) =   1
                l(4) =   1
     Q(r) pseudized with 0 coefficients 


     PseudoPot. # 8 for Si read from file:
     ./../../../pseudos/Si.pbe-n-kjpaw_psl.1.0.0.UPF
     MD5 check sum: c39c59da582df4a0d9f10159256ea34e
     Pseudo is Projector augmented-wave + core cor, Zval =  4.0
     Generated using &quot;atomic&quot; code by A. Dal Corso  v.6.3
     Shape of augmentation charge: PSQ
     Using radial grid of 1141 points,  6 beta functions with: 
                l(1) =   0
                l(2) =   0
                l(3) =   1
                l(4) =   1
                l(5) =   2
                l(6) =   2
     Q(r) pseudized with 0 coefficients 


     atomic species   valence    mass     pseudopotential
     Al                3.00    26.98154     Al( 1.00)
     Fe1              16.00    55.84500     Fe( 1.00)
     Fe2              16.00    55.84500     Fe( 1.00)
     H                 1.00     1.00794     H ( 1.00)
     K                 9.00    39.09830     K ( 1.00)
     Mg               10.00    24.30500     Mg( 1.00)
     O                 6.00    15.99940     O ( 1.00)
     Si                4.00    28.08550     Si( 1.00)

      2 Sym. Ops. (no inversion) found


                                    s                        frac. trans.

      isym =  1     identity                                     

 cryst.   s( 1) = (     1          0          0      )
                  (     0          1          0      )
                  (     0          0          1      )

 cart.    s( 1) = (  1.0000000  0.0000000  0.0000000 )
                  (  0.0000000  1.0000000  0.0000000 )
                  (  0.0000000  0.0000000  1.0000000 )


      isym =  2     180 deg rotation - cart. axis [0,1,0]        

 cryst.   s( 2) = (    -1          0          0      )
                  (     0          1          0      )
                  (     0          0         -1      )

 cart.    s( 2) = ( -1.0000000  0.0000000  0.0000000 )
                  (  0.0000000  1.0000000  0.0000000 )
                  (  0.0000000  0.0000000 -1.0000000 )


     point group C_2  (2)   
     there are  2 classes
     the character table:

       E     C2   
A      1.00  1.00
B      1.00 -1.00

     the symmetry operations in each class and the name of the first element:

     E        1
          identity                                               
     C2       2
          180 deg rotation - cart. axis [0,1,0]                  

   Cartesian axes

     site n.     atom                  positions (alat units)
         1        K      tau(   1) = (   0.0000000   0.4296389   0.0000000  )
         2        K      tau(   2) = (   0.5000000   0.4296389   0.0000000  )
         3        K      tau(   3) = (   0.2500001   0.0024501   0.0000000  )
         4        K      tau(   4) = (   0.7500001   0.0024501   0.0000000  )
         5        Mg     tau(   5) = (  -0.0870414   0.0055279   0.4808550  )
         6        Mg     tau(   6) = (   0.4129586   0.0055279   0.4808550  )
         7        Mg     tau(   7) = (  -0.0870414   0.5801280   0.4808550  )
         8        Mg     tau(   8) = (   0.4129586   0.5801280   0.4808550  )
         9        Mg     tau(   9) = (   0.1629587   0.4310949   0.4808550  )
        10        Mg     tau(  10) = (   0.6629587   0.4310949   0.4808550  )
        11        Mg     tau(  11) = (   0.1629587   0.7269300   0.4808550  )
        12        Mg     tau(  12) = (   0.6629587   0.7269300   0.4808550  )
        13        Mg     tau(  13) = (   0.1629587   0.1482588   0.4808550  )
        14        Mg     tau(  14) = (   0.6629587   0.1482588   0.4808550  )
        15        Si     tau(  15) = (   0.0074326   0.1420119   0.2164892  )
        16        Si     tau(  16) = (   0.5074326   0.1420119   0.2164892  )
        17        Si     tau(  17) = (   0.3184849   0.1420119   0.7452208  )
        18        Si     tau(  18) = (   0.8184849   0.1420119   0.7452208  )
        19        Si     tau(  19) = (   0.3331608   0.7257911   0.7377580  )
        20        Si     tau(  20) = (   0.8331608   0.7257911   0.7377580  )
        21        Si     tau(  21) = (  -0.0072433   0.7257911   0.2239520  )
        22        Si     tau(  22) = (   0.4927567   0.7257911   0.2239520  )
        23        Si     tau(  23) = (   0.2427667   0.5796705   0.2225784  )
        24        Si     tau(  24) = (   0.7427667   0.5796705   0.2225784  )
        25        Si     tau(  25) = (   0.0831508   0.5796705   0.7391315  )
        26        Si     tau(  26) = (   0.5831508   0.5796705   0.7391315  )
        27        Al     tau(  27) = (   0.0682443   0.2875617   0.7425041  )
        28        Al     tau(  28) = (   0.5682443   0.2875617   0.7425041  )
        29        Al     tau(  29) = (   0.2576732   0.2875617   0.2192058  )
        30        Al     tau(  30) = (   0.7576731   0.2875617   0.2192058  )
        31        O      tau(  31) = (   0.0017352   0.1371008   0.3693886  )
        32        O      tau(  32) = (   0.5017352   0.1371008   0.3693886  )
        33        O      tau(  33) = (   0.3241823   0.1371008   0.5923214  )
        34        O      tau(  34) = (   0.8241823   0.1371008   0.5923214  )
        35        O      tau(  35) = (   0.3309875   0.7260882   0.5856762  )
        36        O      tau(  36) = (   0.8309875   0.7260882   0.5856762  )
        37        O      tau(  37) = (  -0.0050700   0.7260882   0.3760337  )
        38        O      tau(  38) = (   0.4949300   0.7260882   0.3760337  )
        39        O      tau(  39) = (   0.2456591   0.5824087   0.3753945  )
        40        O      tau(  40) = (   0.7456591   0.5824087   0.3753945  )
        41        O      tau(  41) = (   0.0802583   0.5824087   0.5863155  )
        42        O      tau(  42) = (   0.5802583   0.5824087   0.5863155  )
        43        O      tau(  43) = (   0.0748950   0.2898192   0.5784747  )
        44        O      tau(  44) = (   0.5748950   0.2898192   0.5784747  )
        45        O      tau(  45) = (   0.2510225   0.2898192   0.3832352  )
        46        O      tau(  46) = (   0.7510224   0.2898192   0.3832352  )
        47        O      tau(  47) = (   0.1463863   0.1775489   0.1626707  )
        48        O      tau(  48) = (   0.6463863   0.1775489   0.1626707  )
        49        O      tau(  49) = (   0.1795312   0.1775489   0.7990392  )
        50        O      tau(  50) = (   0.6795312   0.1775489   0.7990392  )
        51        O      tau(  51) = (  -0.0250455   0.8667889   0.1630411  )
        52        O      tau(  52) = (   0.4749545   0.8667889   0.1630411  )
        53        O      tau(  53) = (   0.3509630   0.8667889   0.7986688  )
        54        O      tau(  54) = (   0.8509630   0.8667889   0.7986688  )
        55        O      tau(  55) = (   0.2001651   0.6682872   0.7942782  )
        56        O      tau(  56) = (   0.7001651   0.6682872   0.7942782  )
        57        O      tau(  57) = (   0.1257524   0.6682872   0.1674318  )
        58        O      tau(  58) = (   0.6257524   0.6682872   0.1674318  )
        59        O      tau(  59) = (   0.3751016   0.6421235   0.1665090  )
        60        O      tau(  60) = (   0.8751016   0.6421235   0.1665090  )
        61        O      tau(  61) = (  -0.0491842   0.6421235   0.7952009  )
        62        O      tau(  62) = (   0.4508158   0.6421235   0.7952009  )
        63        O      tau(  63) = (   0.2267361   0.4412388   0.1614261  )
        64        O      tau(  64) = (   0.7267362   0.4412388   0.1614261  )
        65        O      tau(  65) = (   0.0991813   0.4412388   0.8002838  )
        66        O      tau(  66) = (   0.5991813   0.4412388   0.8002838  )
        67        O      tau(  67) = (  -0.0785908   0.2392057   0.8031981  )
        68        O      tau(  68) = (   0.4214092   0.2392057   0.8031981  )
        69        O      tau(  69) = (   0.4045083   0.2392057   0.1585119  )
        70        O      tau(  70) = (   0.9045082   0.2392057   0.1585119  )
        71        O      tau(  71) = (  -0.0000042   0.4450115   0.3781135  )
        72        O      tau(  72) = (   0.4999958   0.4450115   0.3781135  )
        73        O      tau(  73) = (   0.3259217   0.4450115   0.5835965  )
        74        O      tau(  74) = (   0.8259217   0.4450115   0.5835965  )
        75        O      tau(  75) = (   0.2478596   0.8693925   0.3836472  )
        76        O      tau(  76) = (   0.7478596   0.8693925   0.3836472  )
        77        O      tau(  77) = (   0.0780579   0.8693925   0.5780627  )
        78        O      tau(  78) = (   0.5780579   0.8693925   0.5780627  )
        79        H      tau(  79) = (   0.0004471   0.4269259   0.2892434  )
        80        H      tau(  80) = (   0.5004471   0.4269259   0.2892434  )
        81        H      tau(  81) = (   0.3254704   0.4269259   0.6724666  )
        82        H      tau(  82) = (   0.8254704   0.4269259   0.6724666  )
        83        H      tau(  83) = (   0.2447352   0.0128545   0.2939423  )
        84        H      tau(  84) = (   0.7447351   0.0128545   0.2939423  )
        85        H      tau(  85) = (   0.0811823   0.0128545   0.6677677  )
        86        H      tau(  86) = (   0.5811823   0.0128545   0.6677677  )
        87        Fe1    tau(  87) = (  -0.0870414   0.2919251   0.4808550  )
        88        Fe2    tau(  88) = (   0.4129586   0.2919251   0.4808550  )

     --------------------------------------------
     DFT-D3 Dispersion Correction (3-body terms):
     --------------------------------------------
       Reference C6 values for interpolation: 

         atom   Coordination number   C6
         H          0.912             6.05
         H          0.000            15.18
         O          0.000            31.01
         O          0.993            25.63
         O          1.989            20.74
         Mg         0.000          1366.75
         Mg         0.963           902.54
         Mg         1.950           351.12
         Al         0.000          1081.08
         Al         0.965           875.51
         Al         1.931           513.50
         Al         2.915           307.19
         Si         0.000           635.71
         Si         0.951           540.53
         Si         1.944           466.25
         Si         2.941           443.01
         Si         3.868           299.55
         K          0.000          9967.00
         K          0.977           676.04
         Fe1        0.000           982.67
         Fe1        1.648           409.99
         Fe1        9.138           219.01
         Fe2        0.000           982.67
         Fe2        1.648           409.99
         Fe2        9.138           219.01

       Values used:

         atom   Coordination number  R0_AB[au]  C6      C8
         K         11.877            4.007    676.04 129074.98
         K         11.877            4.007    676.04 129074.98
         K         12.270            4.007    676.04 129074.98
         K         12.270            4.007    676.04 129074.98
         Mg        11.314            3.292    351.12  31436.69
         Mg        11.314            3.292    351.12  31436.69
         Mg        11.299            3.292    351.12  31436.69
         Mg        11.299            3.292    351.12  31436.69
         Mg        11.204            3.292    351.12  31436.69
         Mg        11.204            3.292    351.12  31436.69
         Mg        11.573            3.292    351.12  31436.69
         Mg        11.573            3.292    351.12  31436.69
         Mg        11.383            3.292    351.12  31436.69
         Mg        11.383            3.292    351.12  31436.69
         Si         6.519            3.583    299.55  21425.58
         Si         6.519            3.583    299.55  21425.58
         Si         6.519            3.583    299.55  21425.58
         Si         6.519            3.583    299.55  21425.58
         Si         6.299            3.583    299.55  21425.58
         Si         6.299            3.583    299.55  21425.58
         Si         6.299            3.583    299.55  21425.58
         Si         6.299            3.583    299.55  21425.58
         Si         6.332            3.583    299.55  21425.58
         Si         6.332            3.583    299.55  21425.58
         Si         6.332            3.583    299.55  21425.58
         Si         6.332            3.583    299.55  21425.58
         Al         7.195            3.789    307.19  29441.29
         Al         7.195            3.789    307.19  29441.29
         Al         7.195            3.789    307.19  29441.29
         Al         7.195            3.789    307.19  29441.29
         O          3.463            2.345     20.74    418.58
         O          3.463            2.345     20.74    418.58
         O          3.463            2.345     20.74    418.58
         O          3.463            2.345     20.74    418.58
         O          3.908            2.345     20.74    418.58
         O          3.908            2.345     20.74    418.58
         O          3.908            2.345     20.74    418.58
         O          3.908            2.345     20.74    418.58
         O          3.897            2.345     20.74    418.58
         O          3.897            2.345     20.74    418.58
         O          3.897            2.345     20.74    418.58
         O          3.897            2.345     20.74    418.58
         O          3.833            2.345     20.74    418.58
         O          3.833            2.345     20.74    418.58
         O          3.833            2.345     20.74    418.58
         O          3.833            2.345     20.74    418.58
         O          3.114            2.345     20.74    418.58
         O          3.114            2.345     20.74    418.58
         O          3.114            2.345     20.74    418.58
         O          3.114            2.345     20.74    418.58
         O          3.077            2.345     20.74    418.58
         O          3.077            2.345     20.74    418.58
         O          3.077            2.345     20.74    418.58
         O          3.077            2.345     20.74    418.58
         O          2.927            2.345     20.74    418.58
         O          2.927            2.345     20.74    418.58
         O          2.927            2.345     20.74    418.58
         O          2.927            2.345     20.74    418.58
         O          2.924            2.345     20.74    418.58
         O          2.924            2.345     20.74    418.58
         O          2.924            2.345     20.74    418.58
         O          2.924            2.345     20.74    418.58
         O          3.084            2.345     20.74    418.58
         O          3.084            2.345     20.74    418.58
         O          3.084            2.345     20.74    418.58
         O          3.084            2.345     20.74    418.58
         O          3.139            2.345     20.74    418.58
         O          3.139            2.345     20.74    418.58
         O          3.139            2.345     20.74    418.58
         O          3.139            2.345     20.74    418.58
         O          3.632            2.345     20.74    418.58
         O          3.632            2.345     20.74    418.58
         O          3.632            2.345     20.74    418.58
         O          3.632            2.345     20.74    418.58
         O          3.981            2.345     20.74    418.58
         O          3.981            2.345     20.74    418.58
         O          3.981            2.345     20.74    418.58
         O          3.981            2.345     20.74    418.58
         H          1.231            2.062      6.08     73.47
         H          1.231            2.062      6.08     73.47
         H          1.231            2.062      6.08     73.47
         H          1.231            2.062      6.08     73.47
         H          1.237            2.062      6.08     73.45
         H          1.237            2.062      6.08     73.45
         H          1.237            2.062      6.08     73.45
         H          1.237            2.062      6.08     73.45
         Fe1        7.261            3.252    219.01  20487.87
         Fe2        7.261            3.252    219.01  20487.87

         Molecular C6 ( Ry / a.u.^6 ) =    661236.15


   Crystallographic axes

     site n.     atom                  positions (cryst. coord.)
         1        K      tau(   1) = (  0.0000000  0.4939509  0.0000000  )
         2        K      tau(   2) = (  0.5000000  0.4939509  0.0000000  )
         3        K      tau(   3) = (  0.2500001  0.0028168  0.0000000  )
         4        K      tau(   4) = (  0.7500001  0.0028168  0.0000000  )
         5        Mg     tau(   5) = (  0.0000000  0.0063553  0.4999999  )
         6        Mg     tau(   6) = (  0.5000000  0.0063553  0.4999999  )
         7        Mg     tau(   7) = (  0.0000000  0.6669664  0.4999999  )
         8        Mg     tau(   8) = (  0.5000000  0.6669664  0.4999999  )
         9        Mg     tau(   9) = (  0.2500001  0.4956248  0.4999999  )
        10        Mg     tau(  10) = (  0.7500001  0.4956248  0.4999999  )
        11        Mg     tau(  11) = (  0.2500001  0.8357430  0.4999999  )
        12        Mg     tau(  12) = (  0.7500001  0.8357430  0.4999999  )
        13        Mg     tau(  13) = (  0.2500001  0.1704514  0.4999999  )
        14        Mg     tau(  14) = (  0.7500001  0.1704514  0.4999999  )
        15        Si     tau(  15) = (  0.0466201  0.1632694  0.2251086  )
        16        Si     tau(  16) = (  0.5466201  0.1632694  0.2251086  )
        17        Si     tau(  17) = (  0.4533802  0.1632694  0.7748913  )
        18        Si     tau(  18) = (  0.9533802  0.1632694  0.7748913  )
        19        Si     tau(  19) = (  0.4667052  0.8344337  0.7671314  )
        20        Si     tau(  20) = (  0.9667052  0.8344337  0.7671314  )
        21        Si     tau(  21) = (  0.0332951  0.8344337  0.2328685  )
        22        Si     tau(  22) = (  0.5332951  0.8344337  0.2328685  )
        23        Si     tau(  23) = (  0.2830564  0.6664404  0.2314402  )
        24        Si     tau(  24) = (  0.7830564  0.6664404  0.2314402  )
        25        Si     tau(  25) = (  0.2169439  0.6664404  0.7685596  )
        26        Si     tau(  26) = (  0.7169439  0.6664404  0.7685596  )
        27        Al     tau(  27) = (  0.2026479  0.3306063  0.7720665  )
        28        Al     tau(  28) = (  0.7026479  0.3306063  0.7720665  )
        29        Al     tau(  29) = (  0.2973525  0.3306063  0.2279334  )
        30        Al     tau(  30) = (  0.7973524  0.3306063  0.2279334  )
        31        O      tau(  31) = (  0.0685997  0.1576232  0.3840956  )
        32        O      tau(  32) = (  0.5685996  0.1576232  0.3840956  )
        33        O      tau(  33) = (  0.4314007  0.1576232  0.6159044  )
        34        O      tau(  34) = (  0.9314007  0.1576232  0.6159044  )
        35        O      tau(  35) = (  0.4370030  0.8347753  0.6089946  )
        36        O      tau(  36) = (  0.9370030  0.8347753  0.6089946  )
        37        O      tau(  37) = (  0.0629973  0.8347753  0.3910053  )
        38        O      tau(  38) = (  0.5629973  0.8347753  0.3910053  )
        39        O      tau(  39) = (  0.3136107  0.6695885  0.3903406  )
        40        O      tau(  40) = (  0.8136107  0.6695885  0.3903406  )
        41        O      tau(  41) = (  0.1863896  0.6695885  0.6096593  )
        42        O      tau(  42) = (  0.6863896  0.6695885  0.6096593  )
        43        O      tau(  43) = (  0.1796070  0.3332018  0.6015063  )
        44        O      tau(  44) = (  0.6796070  0.3332018  0.6015063  )
        45        O      tau(  45) = (  0.3203934  0.3332018  0.3984935  )
        46        O      tau(  46) = (  0.8203933  0.3332018  0.3984935  )
        47        O      tau(  47) = (  0.1758320  0.2041259  0.1691474  )
        48        O      tau(  48) = (  0.6758320  0.2041259  0.1691474  )
        49        O      tau(  49) = (  0.3241684  0.2041259  0.8308524  )
        50        O      tau(  50) = (  0.8241683  0.2041259  0.8308524  )
        51        O      tau(  51) = (  0.0044672  0.9965371  0.1695325  )
        52        O      tau(  52) = (  0.5044672  0.9965371  0.1695325  )
        53        O      tau(  53) = (  0.4955331  0.9965371  0.8304673  )
        54        O      tau(  54) = (  0.9955331  0.9965371  0.8304673  )
        55        O      tau(  55) = (  0.3439404  0.7683221  0.8259019  )
        56        O      tau(  56) = (  0.8439404  0.7683221  0.8259019  )
        57        O      tau(  57) = (  0.1560599  0.7683221  0.1740980  )
        58        O      tau(  58) = (  0.6560599  0.7683221  0.1740980  )
        59        O      tau(  59) = (  0.4052421  0.7382420  0.1731385  )
        60        O      tau(  60) = (  0.9052421  0.7382420  0.1731385  )
        61        O      tau(  61) = (  0.0947582  0.7382420  0.8268614  )
        62        O      tau(  62) = (  0.5947582  0.7382420  0.8268614  )
        63        O      tau(  63) = (  0.2559565  0.5072872  0.1678532  )
        64        O      tau(  64) = (  0.7559565  0.5072872  0.1678532  )
        65        O      tau(  65) = (  0.2440438  0.5072872  0.8321466  )
        66        O      tau(  66) = (  0.7440438  0.5072872  0.8321466  )
        67        O      tau(  67) = (  0.0667992  0.2750120  0.8351769  )
        68        O      tau(  68) = (  0.5667992  0.2750120  0.8351769  )
        69        O      tau(  69) = (  0.4332011  0.2750120  0.1648230  )
        70        O      tau(  70) = (  0.9332011  0.2750120  0.1648230  )
        71        O      tau(  71) = (  0.0684395  0.5116246  0.3931678  )
        72        O      tau(  72) = (  0.5684395  0.5116246  0.3931678  )
        73        O      tau(  73) = (  0.4315608  0.5116246  0.6068321  )
        74        O      tau(  74) = (  0.9315608  0.5116246  0.6068321  )
        75        O      tau(  75) = (  0.3173051  0.9995306  0.3989219  )
        76        O      tau(  76) = (  0.8173051  0.9995306  0.3989219  )
        77        O      tau(  77) = (  0.1826953  0.9995306  0.6010780  )
        78        O      tau(  78) = (  0.6826953  0.9995306  0.6010780  )
        79        H      tau(  79) = (  0.0528041  0.4908318  0.3007595  )
        80        H      tau(  80) = (  0.5528042  0.4908318  0.3007595  )
        81        H      tau(  81) = (  0.4471962  0.4908318  0.6992404  )
        82        H      tau(  82) = (  0.9471962  0.4908318  0.6992404  )
        83        H      tau(  83) = (  0.2979428  0.0147786  0.3056454  )
        84        H      tau(  84) = (  0.7979428  0.0147786  0.3056454  )
        85        H      tau(  85) = (  0.2020575  0.0147786  0.6943545  )
        86        H      tau(  86) = (  0.7020575  0.0147786  0.6943545  )
        87        Fe1    tau(  87) = (  0.0000000  0.3356230  0.4999999  )
        88        Fe2    tau(  88) = (  0.5000000  0.3356230  0.4999999  )

     number of k points=    10  Gaussian smearing, width (Ry)=  0.0010
                       cart. coord. in units 2pi/alat
        k(    1) = (   0.0000000   0.0000000   0.0000000), wk =   0.0740741
        k(    2) = (   0.0000000   0.0000000   0.3466048), wk =   0.1481481
        k(    3) = (   0.0000000   0.3832295   0.0000000), wk =   0.1481481
        k(    4) = (   0.0000000   0.3832295   0.3466048), wk =   0.2962963
        k(    5) = (   0.3333333   0.0000000   0.0603380), wk =   0.1481481
        k(    6) = (   0.3333333   0.0000000   0.4069428), wk =   0.1481481
        k(    7) = (   0.3333333   0.0000000  -0.2862669), wk =   0.1481481
        k(    8) = (   0.3333333   0.3832295   0.0603380), wk =   0.2962963
        k(    9) = (   0.3333333   0.3832295   0.4069428), wk =   0.2962963
        k(   10) = (   0.3333333   0.3832295  -0.2862669), wk =   0.2962963

                       cryst. coord.
        k(    1) = (   0.0000000   0.0000000   0.0000000), wk =   0.0740741
        k(    2) = (   0.0000000   0.0000000   0.3333333), wk =   0.1481481
        k(    3) = (   0.0000000   0.3333333   0.0000000), wk =   0.1481481
        k(    4) = (   0.0000000   0.3333333   0.3333333), wk =   0.2962963
        k(    5) = (   0.3333333   0.0000000   0.0000000), wk =   0.1481481
        k(    6) = (   0.3333333   0.0000000   0.3333333), wk =   0.1481481
        k(    7) = (   0.3333333   0.0000000  -0.3333333), wk =   0.1481481
        k(    8) = (   0.3333333   0.3333333   0.0000000), wk =   0.2962963
        k(    9) = (   0.3333333   0.3333333   0.3333333), wk =   0.2962963
        k(   10) = (   0.3333333   0.3333333  -0.3333333), wk =   0.2962963

     Dense  grid:  1212455 G-vectors     FFT dimensions: ( 144, 125, 144)

     Smooth grid:   428701 G-vectors     FFT dimensions: ( 100,  90, 100)

     Dynamical RAM for                 wfc:      42.80 MB

     Dynamical RAM for     wfc (w. buffer):     470.75 MB

     Dynamical RAM for           str. fact:      24.67 MB

     Dynamical RAM for           local pot:       0.00 MB

     Dynamical RAM for          nlocal pot:     119.39 MB

     Dynamical RAM for                qrad:      28.13 MB

     Dynamical RAM for          rho,v,vnew:      19.14 MB

     Dynamical RAM for               rhoin:       6.38 MB

     Dynamical RAM for            rho*nmix:      49.33 MB

     Dynamical RAM for           G-vectors:      12.11 MB

     Dynamical RAM for          h,s,v(r/c):       4.51 MB

     Dynamical RAM for          <psi|beta>:       4.20 MB

     Dynamical RAM for                 psi:      85.59 MB

     Dynamical RAM for                hpsi:      85.59 MB

     Dynamical RAM for                spsi:      85.59 MB

     Dynamical RAM for      wfcinit/wfcrot:      87.85 MB

     Dynamical RAM for           addusdens:     721.52 MB

     Dynamical RAM for          addusforce:    1013.10 MB

     Dynamical RAM for         addusstress:     619.77 MB

     Estimated static dynamical RAM per process >     724.79 MB

     Estimated max dynamical RAM per process >       1.75 GB

     Estimated total dynamical RAM >      10.47 GB

     Atomic positions and unit cell read from directory:
     ./temp/phl-fe1-fe2x2.save/
     Atomic positions from file used, from input discarded


     Check: negative core charge=   -0.000004

     The initial density is read from file :
     ./temp/phl-fe1-fe2x2.save/charge-density


     starting charge     524.0223, renormalised to     524.0000
[miserver1:01859] 5 more processes have sent help message help-mpi-btl-openib.txt / no active ports found
[miserver1:01859] Set MCA parameter "orte_base_help_aggregate" to 0 to see all help / error messages
     Cannot read wfcs: file not found
     Starting wfcs are  366 randomized atomic wfcs
     Checking if some PAW data can be deallocated... 
       PAW data deallocated on    5 nodes for type:  1
       PAW data deallocated on    5 nodes for type:  2
       PAW data deallocated on    5 nodes for type:  3
       PAW data deallocated on    5 nodes for type:  4
       PAW data deallocated on    5 nodes for type:  5
       PAW data deallocated on    5 nodes for type:  6
       PAW data deallocated on    2 nodes for type:  7
       PAW data deallocated on    4 nodes for type:  8

     total cpu time spent up to now is      273.1 secs

     Self-consistent Calculation

     iteration #  1     ecut=    60.00 Ry     beta= 0.70
     Davidson diagonalization with overlap

---- Real-time Memory Report at c_bands before calling an iterative solver
           851 MiB given to the printing process from OS
             0 MiB allocation reported by mallinfo(arena+hblkhd)
          9893 MiB available memory on the node where the printing process lives
------------------
     c_bands:  5 eigenvalues not converged
     c_bands:  3 eigenvalues not converged
     c_bands:  5 eigenvalues not converged
     c_bands:  3 eigenvalues not converged
     c_bands:  3 eigenvalues not converged
     c_bands:  5 eigenvalues not converged
     c_bands:  3 eigenvalues not converged
     c_bands:  3 eigenvalues not converged
     c_bands:  2 eigenvalues not converged
     ethr =  1.00E-05,  avg # of iterations = 40.2

     total cpu time spent up to now is     7616.2 secs

     total energy              =   -5262.40889708 Ry
     estimated scf accuracy    <       0.00943598 Ry

     iteration #  2     ecut=    60.00 Ry     beta= 0.70
     Davidson diagonalization with overlap

---- Real-time Memory Report at c_bands before calling an iterative solver
          1431 MiB given to the printing process from OS
             0 MiB allocation reported by mallinfo(arena+hblkhd)
          9862 MiB available memory on the node where the printing process lives
------------------
     c_bands:  1 eigenvalues not converged
     c_bands:  1 eigenvalues not converged
     c_bands:  1 eigenvalues not converged
     ethr =  1.80E-06,  avg # of iterations = 15.5

     total cpu time spent up to now is     8773.5 secs

     total energy              =   -5262.41082178 Ry
     estimated scf accuracy    <       0.00217814 Ry

     iteration #  3     ecut=    60.00 Ry     beta= 0.70
     Davidson diagonalization with overlap

---- Real-time Memory Report at c_bands before calling an iterative solver
          1434 MiB given to the printing process from OS
             0 MiB allocation reported by mallinfo(arena+hblkhd)
          9845 MiB available memory on the node where the printing process lives
------------------
     c_bands:  1 eigenvalues not converged
     c_bands:  1 eigenvalues not converged
     ethr =  4.16E-07,  avg # of iterations = 12.2

     total cpu time spent up to now is     9743.6 secs

     total energy              =   -5262.41123000 Ry
     estimated scf accuracy    <       0.00215120 Ry

     iteration #  4     ecut=    60.00 Ry     beta= 0.70
     Davidson diagonalization with overlap

---- Real-time Memory Report at c_bands before calling an iterative solver
          1436 MiB given to the printing process from OS
             0 MiB allocation reported by mallinfo(arena+hblkhd)
          9833 MiB available memory on the node where the printing process lives
------------------
     ethr =  4.11E-07,  avg # of iterations =  5.0

     total cpu time spent up to now is    10474.8 secs

     total energy              =   -5262.41172760 Ry
     estimated scf accuracy    <       0.00062031 Ry

     iteration #  5     ecut=    60.00 Ry     beta= 0.70
     Davidson diagonalization with overlap

---- Real-time Memory Report at c_bands before calling an iterative solver
          1439 MiB given to the printing process from OS
             0 MiB allocation reported by mallinfo(arena+hblkhd)
          9819 MiB available memory on the node where the printing process lives
------------------
     ethr =  1.18E-07,  avg # of iterations =  5.0

     total cpu time spent up to now is    11283.3 secs

     total energy              =   -5262.41187839 Ry
     estimated scf accuracy    <       0.00000688 Ry

     iteration #  6     ecut=    60.00 Ry     beta= 0.70
     Davidson diagonalization with overlap

---- Real-time Memory Report at c_bands before calling an iterative solver
          1441 MiB given to the printing process from OS
             0 MiB allocation reported by mallinfo(arena+hblkhd)
          9805 MiB available memory on the node where the printing process lives
------------------
     c_bands:  3 eigenvalues not converged
     c_bands:  4 eigenvalues not converged
     c_bands:  1 eigenvalues not converged
     ethr =  1.31E-09,  avg # of iterations = 19.6

     total cpu time spent up to now is    15879.9 secs

     total energy              =   -5262.41195269 Ry
     estimated scf accuracy    <       0.00000354 Ry

     iteration #  7     ecut=    60.00 Ry     beta= 0.70
     Davidson diagonalization with overlap

---- Real-time Memory Report at c_bands before calling an iterative solver
          1443 MiB given to the printing process from OS
             0 MiB allocation reported by mallinfo(arena+hblkhd)
          9787 MiB available memory on the node where the printing process lives
------------------
     ethr =  6.75E-10,  avg # of iterations =  5.1

     total cpu time spent up to now is    16686.9 secs

     total energy              =   -5262.41195301 Ry
     estimated scf accuracy    <       0.00000140 Ry

     iteration #  8     ecut=    60.00 Ry     beta= 0.70
     Davidson diagonalization with overlap

---- Real-time Memory Report at c_bands before calling an iterative solver
          1446 MiB given to the printing process from OS
             0 MiB allocation reported by mallinfo(arena+hblkhd)
          9774 MiB available memory on the node where the printing process lives
------------------
     ethr =  2.68E-10,  avg # of iterations =  5.9

     total cpu time spent up to now is    17686.1 secs

     total energy              =   -5262.41195356 Ry
     estimated scf accuracy    <       0.00000160 Ry

     iteration #  9     ecut=    60.00 Ry     beta= 0.70
     Davidson diagonalization with overlap

---- Real-time Memory Report at c_bands before calling an iterative solver
          1448 MiB given to the printing process from OS
             0 MiB allocation reported by mallinfo(arena+hblkhd)
          9761 MiB available memory on the node where the printing process lives
------------------
     ethr =  2.68E-10,  avg # of iterations =  5.0

     total cpu time spent up to now is    18417.9 secs

     End of self-consistent calculation

          k = 0.0000 0.0000 0.0000 ( 53617 PWs)   bands (ev):

   -78.1398 -78.1394 -67.8768 -67.8768 -67.7816 -67.7816 -67.6626 -67.6626
   -67.2942 -67.2942 -67.1239 -67.1239 -44.3169 -44.3164 -44.2856 -44.2852
   -44.1652 -44.1648 -34.6426 -34.6419 -34.6229 -34.6220 -34.6215 -34.6213
   -34.5496 -34.5496 -34.5296 -34.5295 -34.5215 -34.5214 -34.4279 -34.4277
   -34.4198 -34.4196 -34.3955 -34.3954 -34.0494 -34.0494 -34.0483 -34.0482
   -34.0424 -34.0423 -33.8969 -33.8968 -33.8674 -33.8673 -33.8653 -33.8652
   -23.3600 -23.3595 -23.2479 -23.2474 -15.2163 -15.1736 -14.8517 -14.8202
   -14.5739 -14.5446 -14.3024 -14.2669 -14.0382 -14.0131 -13.7610 -13.7464
   -13.6080 -13.4684 -13.3896 -13.3829 -13.2870 -13.2850 -13.1779 -13.1765
   -13.1368 -13.1101 -13.0850 -13.0456 -13.0367 -13.0238 -12.9898 -12.9674
   -12.9225 -12.9081 -12.8434 -12.8161 -12.7546 -12.7194 -12.6479 -12.6142
   -12.5764 -12.5308 -12.4898 -12.4776 -12.4439 -12.4024 -12.3343 -12.3149
   -11.3595 -11.3062 -11.1575 -11.0918  -6.9009  -6.8992  -6.8482  -6.8482
    -6.8398  -6.8369  -6.8035  -6.7928  -6.7301  -6.7285  -6.7214  -6.7119
    -4.4349  -4.3935  -3.5024  -3.4470  -2.9512  -2.8903  -2.5756  -2.4927
    -1.9620  -1.9016  -1.8081  -1.5228  -1.5102  -1.3804  -1.3215  -1.2885
    -1.2221  -1.1574  -1.0498  -1.0347  -0.8496  -0.8428  -0.8047  -0.7967
    -0.6708  -0.5128  -0.5019  -0.4574  -0.4501  -0.4168  -0.3319  -0.3047
    -0.1663  -0.1598  -0.1216  -0.0580   0.0523   0.2223   0.2534   0.2551
     0.3457   0.3693   0.3982   0.4089   0.5101   0.5146   0.5266   0.7459
     0.7584   0.8011   0.9314   0.9566   0.9810   0.9982   1.0676   1.1322
     1.2171   1.2625   1.2869   1.3194   1.3346   1.3437   1.3734   1.4851
     1.4996   1.5440   1.6292   1.6562   1.6800   1.7122   1.7547   1.9071
     1.9361   1.9488   2.0133   2.0392   2.0874   2.1064   2.1477   2.1986
     2.2003   2.2547   2.3090   2.4087   2.4549   2.4626   2.4779   2.4906
     2.4939   2.5299   2.5786   2.6058   2.6482   2.6698   2.6934   2.7217
     2.7231   2.7370   2.8002   2.8116   2.8376   2.8747   2.8777   2.9022
     2.9350   2.9653   2.9768   3.0717   3.0916   3.0941   3.1223   3.1701
     3.1724   3.1999   3.2076   3.2285   3.2372   3.2874   3.2963   3.3153
     3.3336   3.3726   3.3999   3.4056   3.4516   3.4654   3.4670   3.5117
     3.5732   3.5867   3.6065   3.6244   3.6557   3.6771   3.7096   3.7206
     3.7428   3.7981   3.8462   4.0876   4.1621   4.2059   4.2747   4.3728
     7.9381   7.9557   8.1404   8.1720   8.1999   8.2380   8.8750   9.4313
     9.4418   9.6413   9.7986  10.3628  10.9094  10.9463  11.0781  11.3006
    11.3949  11.5908  11.6821  11.7358  11.7405  11.8255  11.9225  12.2049
    12.2484  12.2749  12.4202  12.4468  12.5454  12.7550  12.7924  12.8128
    12.8387  12.8766  12.9026  13.0261  13.0808  13.1105  13.2350  13.2413
    13.2450  13.3939  13.4201  13.4596  13.5354  13.5817  13.6093  13.6132
    13.6502  13.6790  13.7042  13.7925  13.8134  13.8667  13.9108  14.0153
    14.0224  14.1247

     occupation numbers 
     1.0000   1.0000   1.0000   1.0000   1.0000   1.0000   1.0000   1.0000
     1.0000   1.0000   1.0000   1.0000   1.0000   1.0000   1.0000   1.0000
     1.0000   1.0000   1.0000   1.0000   1.0000   1.0000   1.0000   1.0000
     1.0000   1.0000   1.0000   1.0000   1.0000   1.0000   1.0000   1.0000
     1.0000   1.0000   1.0000   1.0000   1.0000   1.0000   1.0000   1.0000
     1.0000   1.0000   1.0000   1.0000   1.0000   1.0000   1.0000   1.0000
     1.0000   1.0000   1.0000   1.0000   1.0000   1.0000   1.0000   1.0000
     1.0000   1.0000   1.0000   1.0000   1.0000   1.0000   1.0000   1.0000
     1.0000   1.0000   1.0000   1.0000   1.0000   1.0000   1.0000   1.0000
     1.0000   1.0000   1.0000   1.0000   1.0000   1.0000   1.0000   1.0000
     1.0000   1.0000   1.0000   1.0000   1.0000   1.0000   1.0000   1.0000
     1.0000   1.0000   1.0000   1.0000   1.0000   1.0000   1.0000   1.0000
     1.0000   1.0000   1.0000   1.0000   1.0000   1.0000   1.0000   1.0000
     1.0000   1.0000   1.0000   1.0000   1.0000   1.0000   1.0000   1.0000
     1.0000   1.0000   1.0000   1.0000   1.0000   1.0000   1.0000   1.0000
     1.0000   1.0000   1.0000   1.0000   1.0000   1.0000   1.0000   1.0000
     1.0000   1.0000   1.0000   1.0000   1.0000   1.0000   1.0000   1.0000
     1.0000   1.0000   1.0000   1.0000   1.0000   1.0000   1.0000   1.0000
     1.0000   1.0000   1.0000   1.0000   1.0000   1.0000   1.0000   1.0000
     1.0000   1.0000   1.0000   1.0000   1.0000   1.0000   1.0000   1.0000
     1.0000   1.0000   1.0000   1.0000   1.0000   1.0000   1.0000   1.0000
     1.0000   1.0000   1.0000   1.0000   1.0000   1.0000   1.0000   1.0000
     1.0000   1.0000   1.0000   1.0000   1.0000   1.0000   1.0000   1.0000
     1.0000   1.0000   1.0000   1.0000   1.0000   1.0000   1.0000   1.0000
     1.0000   1.0000   1.0000   1.0000   1.0000   1.0000   1.0000   1.0000
     1.0000   1.0000   1.0000   1.0000   1.0000   1.0000   1.0000   1.0000
     1.0000   1.0000   1.0000   1.0000   1.0000   1.0000   1.0000   1.0000
     1.0000   1.0000   1.0000   1.0000   1.0000   1.0000   1.0000   1.0000
     1.0000   1.0000   1.0000   1.0000   1.0000   1.0000   1.0000   1.0000
     1.0000   1.0000   1.0000   1.0000   1.0000   1.0000   1.0000   1.0000
     1.0000   1.0000   1.0000   1.0000   1.0000   1.0000   1.0000   1.0000
     1.0000   1.0000   1.0000   1.0000   1.0000   1.0000   1.0000   1.0000
     1.0000   1.0000   1.0000   1.0000   1.0000   1.0000   0.0000   0.0000
     0.0000   0.0000   0.0000   0.0000   0.0000   0.0000   0.0000   0.0000
     0.0000   0.0000   0.0000   0.0000   0.0000   0.0000   0.0000   0.0000
     0.0000   0.0000   0.0000   0.0000   0.0000   0.0000   0.0000   0.0000
     0.0000   0.0000   0.0000   0.0000   0.0000   0.0000   0.0000   0.0000
     0.0000   0.0000   0.0000   0.0000   0.0000   0.0000   0.0000   0.0000
     0.0000   0.0000   0.0000   0.0000   0.0000   0.0000   0.0000   0.0000
     0.0000   0.0000

          k = 0.0000 0.0000 0.3463 ( 53576 PWs)   bands (ev):

   -78.1398 -78.1394 -67.8768 -67.8768 -67.7816 -67.7816 -67.6626 -67.6626
   -67.2942 -67.2942 -67.1239 -67.1239 -44.3169 -44.3164 -44.2856 -44.2852
   -44.1652 -44.1648 -34.6426 -34.6419 -34.6229 -34.6220 -34.6215 -34.6213
   -34.5496 -34.5496 -34.5296 -34.5295 -34.5215 -34.5214 -34.4279 -34.4277
   -34.4198 -34.4196 -34.3955 -34.3954 -34.0495 -34.0494 -34.0483 -34.0482
   -34.0424 -34.0423 -33.8969 -33.8968 -33.8674 -33.8673 -33.8653 -33.8652
   -23.3600 -23.3595 -23.2479 -23.2474 -15.2072 -15.1831 -14.8444 -14.8279
   -14.5673 -14.5514 -14.2938 -14.2758 -14.0338 -14.0176 -13.7614 -13.7459
   -13.6020 -13.4812 -13.3841 -13.3821 -13.2862 -13.2841 -13.1776 -13.1724
   -13.1337 -13.1107 -13.0964 -13.0415 -13.0368 -13.0173 -12.9972 -12.9694
   -12.9216 -12.9031 -12.8433 -12.8190 -12.7511 -12.7265 -12.6420 -12.6019
   -12.5816 -12.5401 -12.4943 -12.4714 -12.4410 -12.3963 -12.3390 -12.3206
   -11.3593 -11.3055 -11.1582 -11.0923  -6.9010  -6.8992  -6.8482  -6.8481
    -6.8397  -6.8369  -6.8036  -6.7928  -6.7300  -6.7285  -6.7214  -6.7118
    -4.4303  -4.3984  -3.4889  -3.4608  -2.9372  -2.9061  -2.5575  -2.5136
    -1.9378  -1.8919  -1.8205  -1.5167  -1.5032  -1.3811  -1.3167  -1.2893
    -1.2181  -1.1729  -1.0448  -1.0252  -0.8412  -0.8230  -0.8099  -0.7942
    -0.6940  -0.5251  -0.4787  -0.4691  -0.4338  -0.4080  -0.3925  -0.3274
    -0.2119  -0.1844  -0.0954  -0.0449   0.0130   0.2151   0.2315   0.2649
     0.3332   0.3566   0.3923   0.3957   0.5052   0.5449   0.5494   0.7599
     0.7942   0.8109   0.9252   0.9374   1.0190   1.0555   1.0681   1.0986
     1.2005   1.2573   1.2674   1.3206   1.3301   1.3779   1.4013   1.4943
     1.5003   1.5129   1.6611   1.6967   1.7233   1.7291   1.8879   1.9228
     1.9253   1.9407   1.9997   2.0187   2.0587   2.1230   2.1357   2.1900
     2.1903   2.2591   2.2676   2.3954   2.4041   2.4147   2.4601   2.4723
     2.4766   2.5303   2.5790   2.6041   2.6201   2.6431   2.6498   2.6856
     2.7166   2.7551   2.8446   2.8577   2.8671   2.8690   2.8843   2.8972
     2.9309   2.9321   3.0090   3.0743   3.0979   3.1160   3.1705   3.1707
     3.1793   3.2014   3.2357   3.2483   3.2658   3.2762   3.2843   3.2901
     3.3044   3.3692   3.3920   3.4131   3.4442   3.4715   3.4838   3.5081
     3.5381   3.5578   3.6114   3.6165   3.6202   3.6660   3.6919   3.7090
     3.7379   3.8516   3.8658   4.0906   4.1664   4.2038   4.2729   4.3749
     7.9396   7.9554   8.1413   8.1726   8.1998   8.2358   9.1690   9.4258
     9.4394   9.6569   9.7777   9.9193  10.8274  11.0548  11.1854  11.2807
    11.3320  11.5335  11.5768  11.8100  11.8550  11.8708  11.9340  12.2658
    12.2739  12.3115  12.3730  12.4084  12.6064  12.7267  12.7674  12.8364
    12.8549  12.9582  12.9717  13.0211  13.0658  13.1203  13.1489  13.2091
    13.2808  13.2985  13.3937  13.4615  13.4928  13.5127  13.5385  13.6287
    13.6403  13.7187  13.7353  13.8243  13.8655  13.8731  13.9102  13.9521
    13.9771  14.0856

     occupation numbers 
     1.0000   1.0000   1.0000   1.0000   1.0000   1.0000   1.0000   1.0000
     1.0000   1.0000   1.0000   1.0000   1.0000   1.0000   1.0000   1.0000
     1.0000   1.0000   1.0000   1.0000   1.0000   1.0000   1.0000   1.0000
     1.0000   1.0000   1.0000   1.0000   1.0000   1.0000   1.0000   1.0000
     1.0000   1.0000   1.0000   1.0000   1.0000   1.0000   1.0000   1.0000
     1.0000   1.0000   1.0000   1.0000   1.0000   1.0000   1.0000   1.0000
     1.0000   1.0000   1.0000   1.0000   1.0000   1.0000   1.0000   1.0000
     1.0000   1.0000   1.0000   1.0000   1.0000   1.0000   1.0000   1.0000
     1.0000   1.0000   1.0000   1.0000   1.0000   1.0000   1.0000   1.0000
     1.0000   1.0000   1.0000   1.0000   1.0000   1.0000   1.0000   1.0000
     1.0000   1.0000   1.0000   1.0000   1.0000   1.0000   1.0000   1.0000
     1.0000   1.0000   1.0000   1.0000   1.0000   1.0000   1.0000   1.0000
     1.0000   1.0000   1.0000   1.0000   1.0000   1.0000   1.0000   1.0000
     1.0000   1.0000   1.0000   1.0000   1.0000   1.0000   1.0000   1.0000
     1.0000   1.0000   1.0000   1.0000   1.0000   1.0000   1.0000   1.0000
     1.0000   1.0000   1.0000   1.0000   1.0000   1.0000   1.0000   1.0000
     1.0000   1.0000   1.0000   1.0000   1.0000   1.0000   1.0000   1.0000
     1.0000   1.0000   1.0000   1.0000   1.0000   1.0000   1.0000   1.0000
     1.0000   1.0000   1.0000   1.0000   1.0000   1.0000   1.0000   1.0000
     1.0000   1.0000   1.0000   1.0000   1.0000   1.0000   1.0000   1.0000
     1.0000   1.0000   1.0000   1.0000   1.0000   1.0000   1.0000   1.0000
     1.0000   1.0000   1.0000   1.0000   1.0000   1.0000   1.0000   1.0000
     1.0000   1.0000   1.0000   1.0000   1.0000   1.0000   1.0000   1.0000
     1.0000   1.0000   1.0000   1.0000   1.0000   1.0000   1.0000   1.0000
     1.0000   1.0000   1.0000   1.0000   1.0000   1.0000   1.0000   1.0000
     1.0000   1.0000   1.0000   1.0000   1.0000   1.0000   1.0000   1.0000
     1.0000   1.0000   1.0000   1.0000   1.0000   1.0000   1.0000   1.0000
     1.0000   1.0000   1.0000   1.0000   1.0000   1.0000   1.0000   1.0000
     1.0000   1.0000   1.0000   1.0000   1.0000   1.0000   1.0000   1.0000
     1.0000   1.0000   1.0000   1.0000   1.0000   1.0000   1.0000   1.0000
     1.0000   1.0000   1.0000   1.0000   1.0000   1.0000   1.0000   1.0000
     1.0000   1.0000   1.0000   1.0000   1.0000   1.0000   1.0000   1.0000
     1.0000   1.0000   1.0000   1.0000   1.0000   1.0000   0.0000   0.0000
     0.0000   0.0000   0.0000   0.0000   0.0000   0.0000   0.0000   0.0000
     0.0000   0.0000   0.0000   0.0000   0.0000   0.0000   0.0000   0.0000
     0.0000   0.0000   0.0000   0.0000   0.0000   0.0000   0.0000   0.0000
     0.0000   0.0000   0.0000   0.0000   0.0000   0.0000   0.0000   0.0000
     0.0000   0.0000   0.0000   0.0000   0.0000   0.0000   0.0000   0.0000
     0.0000   0.0000   0.0000   0.0000   0.0000   0.0000   0.0000   0.0000
     0.0000   0.0000

          k = 0.0000 0.3868 0.0000 ( 53603 PWs)   bands (ev):

   -78.1398 -78.1394 -67.8768 -67.8768 -67.7816 -67.7816 -67.6626 -67.6626
   -67.2942 -67.2942 -67.1239 -67.1239 -44.3169 -44.3164 -44.2856 -44.2852
   -44.1652 -44.1648 -34.6426 -34.6419 -34.6228 -34.6220 -34.6215 -34.6213
   -34.5496 -34.5496 -34.5295 -34.5295 -34.5215 -34.5214 -34.4279 -34.4277
   -34.4198 -34.4195 -34.3955 -34.3954 -34.0494 -34.0493 -34.0483 -34.0482
   -34.0424 -34.0423 -33.8969 -33.8969 -33.8675 -33.8673 -33.8653 -33.8652
   -23.3600 -23.3595 -23.2479 -23.2474 -15.2106 -15.1683 -14.8504 -14.8188
   -14.5735 -14.5442 -14.3391 -14.2982 -14.0444 -14.0188 -13.7611 -13.7466
   -13.5242 -13.3838 -13.3733 -13.3690 -13.2910 -13.2714 -13.2064 -13.1601
   -13.1274 -13.1228 -13.0921 -13.0741 -13.0719 -13.0591 -13.0417 -12.9685
   -12.9305 -12.9026 -12.8307 -12.8108 -12.7604 -12.7140 -12.6387 -12.6198
   -12.5732 -12.5351 -12.4893 -12.4766 -12.4381 -12.4021 -12.3304 -12.3151
   -11.3581 -11.3059 -11.1577 -11.0913  -6.9012  -6.8988  -6.8483  -6.8482
    -6.8397  -6.8371  -6.8040  -6.7934  -6.7299  -6.7279  -6.7217  -6.7119
    -4.3959  -4.3528  -3.5148  -3.4567  -2.9659  -2.9038  -2.7189  -2.6331
    -1.8922  -1.8745  -1.7813  -1.5968  -1.5196  -1.3668  -1.2230  -1.2084
    -1.1375  -1.0974  -1.0619  -1.0577  -0.8994  -0.7976  -0.7810  -0.7442
    -0.7406  -0.4547  -0.4536  -0.4508  -0.4461  -0.4173  -0.3129  -0.3033
    -0.2164  -0.1722  -0.1675  -0.0122   0.0352   0.1771   0.2448   0.2587
     0.3518   0.3618   0.3850   0.3871   0.4406   0.5005   0.5329   0.7137
     0.7746   0.7808   0.7907   0.9317   1.0189   1.0908   1.0994   1.1173
     1.2260   1.2346   1.2764   1.3324   1.3832   1.3853   1.4204   1.4790
     1.5026   1.5370   1.5804   1.6548   1.6592   1.7471   1.7966   1.9029
     1.9150   1.9677   1.9726   2.0222   2.1544   2.1883   2.1920   2.2286
     2.2323   2.2638   2.2993   2.3679   2.3765   2.4077   2.4394   2.4990
     2.5090   2.5476   2.6341   2.6414   2.6529   2.6689   2.6752   2.7130
     2.7725   2.7821   2.7869   2.8128   2.8403   2.8448   2.8628   2.8839
     2.9685   2.9783   2.9831   2.9867   3.0388   3.0971   3.1250   3.1636
     3.1717   3.2549   3.2683   3.2688   3.2795   3.2894   3.2922   3.3023
     3.3086   3.3953   3.4138   3.4157   3.4238   3.4322   3.4569   3.5011
     3.5555   3.5650   3.5768   3.6335   3.6778   3.6861   3.6949   3.7213
     3.7900   3.8143   3.8144   4.0635   4.0916   4.1384   4.1399   4.3690
     7.9460   7.9624   8.1385   8.1731   8.2003   8.2369   9.2800   9.3884
     9.4153   9.6639   9.8010  10.2222  10.6335  11.0102  11.0875  11.2142
    11.4722  11.5192  11.5575  11.5960  11.7147  12.0136  12.1133  12.1582
    12.2794  12.2920  12.3167  12.3909  12.5618  12.6767  12.8253  12.8283
    12.8435  12.8916  13.0117  13.0188  13.0453  13.1210  13.1961  13.1997
    13.2187  13.2397  13.4052  13.4125  13.4916  13.5422  13.5599  13.5637
    13.6031  13.8078  13.8851  13.9090  13.9850  14.0117  14.0832  14.0896
    14.0969  14.1937

     occupation numbers 
     1.0000   1.0000   1.0000   1.0000   1.0000   1.0000   1.0000   1.0000
     1.0000   1.0000   1.0000   1.0000   1.0000   1.0000   1.0000   1.0000
     1.0000   1.0000   1.0000   1.0000   1.0000   1.0000   1.0000   1.0000
     1.0000   1.0000   1.0000   1.0000   1.0000   1.0000   1.0000   1.0000
     1.0000   1.0000   1.0000   1.0000   1.0000   1.0000   1.0000   1.0000
     1.0000   1.0000   1.0000   1.0000   1.0000   1.0000   1.0000   1.0000
     1.0000   1.0000   1.0000   1.0000   1.0000   1.0000   1.0000   1.0000
     1.0000   1.0000   1.0000   1.0000   1.0000   1.0000   1.0000   1.0000
     1.0000   1.0000   1.0000   1.0000   1.0000   1.0000   1.0000   1.0000
     1.0000   1.0000   1.0000   1.0000   1.0000   1.0000   1.0000   1.0000
     1.0000   1.0000   1.0000   1.0000   1.0000   1.0000   1.0000   1.0000
     1.0000   1.0000   1.0000   1.0000   1.0000   1.0000   1.0000   1.0000
     1.0000   1.0000   1.0000   1.0000   1.0000   1.0000   1.0000   1.0000
     1.0000   1.0000   1.0000   1.0000   1.0000   1.0000   1.0000   1.0000
     1.0000   1.0000   1.0000   1.0000   1.0000   1.0000   1.0000   1.0000
     1.0000   1.0000   1.0000   1.0000   1.0000   1.0000   1.0000   1.0000
     1.0000   1.0000   1.0000   1.0000   1.0000   1.0000   1.0000   1.0000
     1.0000   1.0000   1.0000   1.0000   1.0000   1.0000   1.0000   1.0000
     1.0000   1.0000   1.0000   1.0000   1.0000   1.0000   1.0000   1.0000
     1.0000   1.0000   1.0000   1.0000   1.0000   1.0000   1.0000   1.0000
     1.0000   1.0000   1.0000   1.0000   1.0000   1.0000   1.0000   1.0000
     1.0000   1.0000   1.0000   1.0000   1.0000   1.0000   1.0000   1.0000
     1.0000   1.0000   1.0000   1.0000   1.0000   1.0000   1.0000   1.0000
     1.0000   1.0000   1.0000   1.0000   1.0000   1.0000   1.0000   1.0000
     1.0000   1.0000   1.0000   1.0000   1.0000   1.0000   1.0000   1.0000
     1.0000   1.0000   1.0000   1.0000   1.0000   1.0000   1.0000   1.0000
     1.0000   1.0000   1.0000   1.0000   1.0000   1.0000   1.0000   1.0000
     1.0000   1.0000   1.0000   1.0000   1.0000   1.0000   1.0000   1.0000
     1.0000   1.0000   1.0000   1.0000   1.0000   1.0000   1.0000   1.0000
     1.0000   1.0000   1.0000   1.0000   1.0000   1.0000   1.0000   1.0000
     1.0000   1.0000   1.0000   1.0000   1.0000   1.0000   1.0000   1.0000
     1.0000   1.0000   1.0000   1.0000   1.0000   1.0000   1.0000   1.0000
     1.0000   1.0000   1.0000   1.0000   1.0000   1.0000   0.0000   0.0000
     0.0000   0.0000   0.0000   0.0000   0.0000   0.0000   0.0000   0.0000
     0.0000   0.0000   0.0000   0.0000   0.0000   0.0000   0.0000   0.0000
     0.0000   0.0000   0.0000   0.0000   0.0000   0.0000   0.0000   0.0000
     0.0000   0.0000   0.0000   0.0000   0.0000   0.0000   0.0000   0.0000
     0.0000   0.0000   0.0000   0.0000   0.0000   0.0000   0.0000   0.0000
     0.0000   0.0000   0.0000   0.0000   0.0000   0.0000   0.0000   0.0000
     0.0000   0.0000

          k = 0.0000 0.3868 0.3463 ( 53607 PWs)   bands (ev):

   -78.1398 -78.1394 -67.8768 -67.8768 -67.7816 -67.7816 -67.6626 -67.6626
   -67.2942 -67.2942 -67.1239 -67.1239 -44.3169 -44.3164 -44.2856 -44.2852
   -44.1652 -44.1648 -34.6426 -34.6419 -34.6228 -34.6220 -34.6215 -34.6213
   -34.5496 -34.5496 -34.5295 -34.5295 -34.5215 -34.5214 -34.4279 -34.4277
   -34.4198 -34.4196 -34.3955 -34.3954 -34.0495 -34.0493 -34.0483 -34.0482
   -34.0424 -34.0423 -33.8969 -33.8968 -33.8675 -33.8673 -33.8653 -33.8652
   -23.3600 -23.3595 -23.2479 -23.2474 -15.2013 -15.1780 -14.8433 -14.8262
   -14.5670 -14.5509 -14.3304 -14.3074 -14.0387 -14.0249 -13.7616 -13.7460
   -13.5199 -13.3843 -13.3774 -13.3721 -13.2833 -13.2732 -13.2067 -13.1568
   -13.1314 -13.1176 -13.0981 -13.0728 -13.0703 -13.0601 -13.0424 -12.9691
   -12.9285 -12.9029 -12.8304 -12.8137 -12.7542 -12.7238 -12.6333 -12.6072
   -12.5781 -12.5442 -12.4938 -12.4709 -12.4344 -12.3961 -12.3351 -12.3207
   -11.3579 -11.3053 -11.1582 -11.0917  -6.9012  -6.8988  -6.8482  -6.8482
    -6.8396  -6.8371  -6.8041  -6.7935  -6.7298  -6.7279  -6.7217  -6.7119
    -4.3888  -4.3603  -3.5006  -3.4714  -2.9514  -2.9200  -2.6983  -2.6555
    -1.8716  -1.8663  -1.7914  -1.5893  -1.5152  -1.3671  -1.2166  -1.2097
    -1.1320  -1.1084  -1.0550  -1.0461  -0.8790  -0.8163  -0.7851  -0.7561
    -0.7293  -0.4959  -0.4571  -0.4299  -0.4176  -0.3957  -0.3620  -0.3349
    -0.2209  -0.1912  -0.1816  -0.0255  -0.0068   0.1946   0.2366   0.2386
     0.3483   0.3550   0.3591   0.3970   0.4429   0.5114   0.5596   0.7122
     0.7699   0.8059   0.8198   0.9368   0.9694   1.0865   1.1405   1.1617
     1.1874   1.2882   1.3042   1.3328   1.3657   1.4003   1.4583   1.4939
     1.5047   1.5346   1.6274   1.6876   1.6930   1.7266   1.8382   1.8808
     1.9305   1.9546   1.9880   2.0141   2.0987   2.1822   2.1941   2.2062
     2.2352   2.2484   2.2750   2.3672   2.3700   2.3807   2.4327   2.4724
     2.5109   2.5449   2.6023   2.6058   2.6222   2.6571   2.6619   2.7275
     2.7576   2.7607   2.7917   2.8207   2.8522   2.8663   2.8912   2.9052
     2.9302   2.9622   3.0086   3.0128   3.0648   3.1079   3.1370   3.1578
     3.1974   3.2232   3.2472   3.2720   3.2834   3.2926   3.3086   3.3287
     3.3346   3.3632   3.3961   3.4006   3.4201   3.4513   3.4972   3.5040
     3.5397   3.5420   3.5837   3.6093   3.6435   3.6587   3.7082   3.7230
     3.7726   3.7957   3.8753   4.0705   4.1053   4.1300   4.1462   4.3716
     7.9478   7.9624   8.1393   8.1738   8.2001   8.2340   9.3255   9.4087
     9.5860   9.6767   9.8051  10.2101  10.4152  10.9126  10.9942  11.1732
    11.4010  11.5396  11.6116  11.6163  11.6502  12.0260  12.0345  12.0783
    12.3232  12.3241  12.4151  12.4767  12.6751  12.7539  12.7943  12.8228
    12.9060  12.9437  13.0296  13.0584  13.1128  13.1267  13.2216  13.2584
    13.3299  13.3571  13.3808  13.3841  13.4821  13.4956  13.5699  13.5747
    13.6543  13.6989  13.8330  13.8889  13.9000  13.9570  13.9629  14.0112
    14.0365  14.1038

     occupation numbers 
     1.0000   1.0000   1.0000   1.0000   1.0000   1.0000   1.0000   1.0000
     1.0000   1.0000   1.0000   1.0000   1.0000   1.0000   1.0000   1.0000
     1.0000   1.0000   1.0000   1.0000   1.0000   1.0000   1.0000   1.0000
     1.0000   1.0000   1.0000   1.0000   1.0000   1.0000   1.0000   1.0000
     1.0000   1.0000   1.0000   1.0000   1.0000   1.0000   1.0000   1.0000
     1.0000   1.0000   1.0000   1.0000   1.0000   1.0000   1.0000   1.0000
     1.0000   1.0000   1.0000   1.0000   1.0000   1.0000   1.0000   1.0000
     1.0000   1.0000   1.0000   1.0000   1.0000   1.0000   1.0000   1.0000
     1.0000   1.0000   1.0000   1.0000   1.0000   1.0000   1.0000   1.0000
     1.0000   1.0000   1.0000   1.0000   1.0000   1.0000   1.0000   1.0000
     1.0000   1.0000   1.0000   1.0000   1.0000   1.0000   1.0000   1.0000
     1.0000   1.0000   1.0000   1.0000   1.0000   1.0000   1.0000   1.0000
     1.0000   1.0000   1.0000   1.0000   1.0000   1.0000   1.0000   1.0000
     1.0000   1.0000   1.0000   1.0000   1.0000   1.0000   1.0000   1.0000
     1.0000   1.0000   1.0000   1.0000   1.0000   1.0000   1.0000   1.0000
     1.0000   1.0000   1.0000   1.0000   1.0000   1.0000   1.0000   1.0000
     1.0000   1.0000   1.0000   1.0000   1.0000   1.0000   1.0000   1.0000
     1.0000   1.0000   1.0000   1.0000   1.0000   1.0000   1.0000   1.0000
     1.0000   1.0000   1.0000   1.0000   1.0000   1.0000   1.0000   1.0000
     1.0000   1.0000   1.0000   1.0000   1.0000   1.0000   1.0000   1.0000
     1.0000   1.0000   1.0000   1.0000   1.0000   1.0000   1.0000   1.0000
     1.0000   1.0000   1.0000   1.0000   1.0000   1.0000   1.0000   1.0000
     1.0000   1.0000   1.0000   1.0000   1.0000   1.0000   1.0000   1.0000
     1.0000   1.0000   1.0000   1.0000   1.0000   1.0000   1.0000   1.0000
     1.0000   1.0000   1.0000   1.0000   1.0000   1.0000   1.0000   1.0000
     1.0000   1.0000   1.0000   1.0000   1.0000   1.0000   1.0000   1.0000
     1.0000   1.0000   1.0000   1.0000   1.0000   1.0000   1.0000   1.0000
     1.0000   1.0000   1.0000   1.0000   1.0000   1.0000   1.0000   1.0000
     1.0000   1.0000   1.0000   1.0000   1.0000   1.0000   1.0000   1.0000
     1.0000   1.0000   1.0000   1.0000   1.0000   1.0000   1.0000   1.0000
     1.0000   1.0000   1.0000   1.0000   1.0000   1.0000   1.0000   1.0000
     1.0000   1.0000   1.0000   1.0000   1.0000   1.0000   1.0000   1.0000
     1.0000   1.0000   1.0000   1.0000   1.0000   1.0000   0.0000   0.0000
     0.0000   0.0000   0.0000   0.0000   0.0000   0.0000   0.0000   0.0000
     0.0000   0.0000   0.0000   0.0000   0.0000   0.0000   0.0000   0.0000
     0.0000   0.0000   0.0000   0.0000   0.0000   0.0000   0.0000   0.0000
     0.0000   0.0000   0.0000   0.0000   0.0000   0.0000   0.0000   0.0000
     0.0000   0.0000   0.0000   0.0000   0.0000   0.0000   0.0000   0.0000
     0.0000   0.0000   0.0000   0.0000   0.0000   0.0000   0.0000   0.0000
     0.0000   0.0000

          k = 0.3346 0.0000 0.0588 ( 53607 PWs)   bands (ev):

   -78.1398 -78.1394 -67.8768 -67.8768 -67.7816 -67.7816 -67.6626 -67.6626
   -67.2942 -67.2942 -67.1239 -67.1239 -44.3169 -44.3164 -44.2856 -44.2852
   -44.1652 -44.1648 -34.6424 -34.6421 -34.6227 -34.6222 -34.6214 -34.6213
   -34.5496 -34.5496 -34.5296 -34.5295 -34.5214 -34.5214 -34.4278 -34.4277
   -34.4197 -34.4196 -34.3955 -34.3954 -34.0494 -34.0494 -34.0482 -34.0482
   -34.0424 -34.0423 -33.8969 -33.8969 -33.8674 -33.8674 -33.8653 -33.8652
   -23.3599 -23.3596 -23.2478 -23.2475 -15.1584 -15.1168 -15.0000 -14.9621
   -14.4251 -14.3978 -14.3164 -14.2842 -14.0125 -13.9863 -13.8832 -13.8595
   -13.5420 -13.4498 -13.3960 -13.3417 -13.3006 -13.2713 -13.2363 -13.2311
   -13.1454 -13.1220 -13.0602 -13.0236 -13.0119 -12.9900 -12.9857 -12.9829
   -12.9041 -12.8977 -12.8319 -12.8221 -12.7302 -12.6816 -12.6680 -12.6052
   -12.6011 -12.5482 -12.5245 -12.5008 -12.4238 -12.4077 -12.3227 -12.3151
   -11.3482 -11.3223 -11.1377 -11.1056  -6.9003  -6.8995  -6.8483  -6.8483
    -6.8390  -6.8375  -6.8008  -6.7954  -6.7297  -6.7289  -6.7191  -6.7143
    -4.2783  -4.2323  -3.8703  -3.8116  -2.6769  -2.5775  -2.5477  -2.4623
    -1.9564  -1.9553  -1.8099  -1.5868  -1.5754  -1.5545  -1.4740  -1.4181
    -1.0375  -0.9992  -0.9690  -0.9543  -0.8774  -0.8568  -0.8270  -0.7819
    -0.7003  -0.5776  -0.5020  -0.4620  -0.4610  -0.3951  -0.3251  -0.2860
    -0.2315  -0.1123  -0.0510  -0.0503   0.0403   0.0882   0.2359   0.2361
     0.3323   0.3495   0.4384   0.4512   0.4868   0.5122   0.5683   0.6277
     0.8497   0.9089   0.9136   0.9979   1.0002   1.0641   1.0868   1.1142
     1.1950   1.2316   1.2802   1.3098   1.3701   1.3839   1.3975   1.4451
     1.4702   1.5155   1.5415   1.6453   1.7103   1.7794   1.7915   1.8389
     1.9059   1.9189   2.0907   2.1144   2.1306   2.1422   2.1869   2.1969
     2.2312   2.2592   2.3238   2.3693   2.4413   2.4503   2.4573   2.4702
     2.5065   2.5255   2.5323   2.5666   2.5776   2.6035   2.6977   2.7048
     2.7335   2.7484   2.7822   2.8006   2.8776   2.9112   2.9226   2.9463
     2.9467   2.9826   3.0089   3.0240   3.0461   3.0741   3.0935   3.0981
     3.1183   3.1809   3.2332   3.2625   3.2662   3.2819   3.3093   3.3288
     3.3500   3.3599   3.3959   3.4356   3.4560   3.4871   3.4967   3.5249
     3.5401   3.5924   3.5980   3.6063   3.6522   3.6797   3.6870   3.7191
     3.7535   3.8079   3.9164   4.0854   4.1357   4.2045   4.2401   4.2793
     7.9430   7.9517   8.1640   8.1787   8.1944   8.2148   9.1779   9.4330
     9.4380   9.6093   9.7804  10.0871  10.5627  10.9891  11.1597  11.3120
    11.4241  11.6633  11.7757  11.8169  11.8722  11.9192  12.0017  12.0961
    12.2499  12.4129  12.4657  12.4919  12.5198  12.6705  12.7101  12.7848
    12.9152  12.9231  12.9320  13.0138  13.0307  13.1631  13.2324  13.2697
    13.2753  13.3170  13.3236  13.3478  13.4272  13.4358  13.5168  13.5463
    13.5551  13.6760  13.8302  13.8676  13.8993  13.9211  13.9458  14.0326
    14.0489  14.2035

     occupation numbers 
     1.0000   1.0000   1.0000   1.0000   1.0000   1.0000   1.0000   1.0000
     1.0000   1.0000   1.0000   1.0000   1.0000   1.0000   1.0000   1.0000
     1.0000   1.0000   1.0000   1.0000   1.0000   1.0000   1.0000   1.0000
     1.0000   1.0000   1.0000   1.0000   1.0000   1.0000   1.0000   1.0000
     1.0000   1.0000   1.0000   1.0000   1.0000   1.0000   1.0000   1.0000
     1.0000   1.0000   1.0000   1.0000   1.0000   1.0000   1.0000   1.0000
     1.0000   1.0000   1.0000   1.0000   1.0000   1.0000   1.0000   1.0000
     1.0000   1.0000   1.0000   1.0000   1.0000   1.0000   1.0000   1.0000
     1.0000   1.0000   1.0000   1.0000   1.0000   1.0000   1.0000   1.0000
     1.0000   1.0000   1.0000   1.0000   1.0000   1.0000   1.0000   1.0000
     1.0000   1.0000   1.0000   1.0000   1.0000   1.0000   1.0000   1.0000
     1.0000   1.0000   1.0000   1.0000   1.0000   1.0000   1.0000   1.0000
     1.0000   1.0000   1.0000   1.0000   1.0000   1.0000   1.0000   1.0000
     1.0000   1.0000   1.0000   1.0000   1.0000   1.0000   1.0000   1.0000
     1.0000   1.0000   1.0000   1.0000   1.0000   1.0000   1.0000   1.0000
     1.0000   1.0000   1.0000   1.0000   1.0000   1.0000   1.0000   1.0000
     1.0000   1.0000   1.0000   1.0000   1.0000   1.0000   1.0000   1.0000
     1.0000   1.0000   1.0000   1.0000   1.0000   1.0000   1.0000   1.0000
     1.0000   1.0000   1.0000   1.0000   1.0000   1.0000   1.0000   1.0000
     1.0000   1.0000   1.0000   1.0000   1.0000   1.0000   1.0000   1.0000
     1.0000   1.0000   1.0000   1.0000   1.0000   1.0000   1.0000   1.0000
     1.0000   1.0000   1.0000   1.0000   1.0000   1.0000   1.0000   1.0000
     1.0000   1.0000   1.0000   1.0000   1.0000   1.0000   1.0000   1.0000
     1.0000   1.0000   1.0000   1.0000   1.0000   1.0000   1.0000   1.0000
     1.0000   1.0000   1.0000   1.0000   1.0000   1.0000   1.0000   1.0000
     1.0000   1.0000   1.0000   1.0000   1.0000   1.0000   1.0000   1.0000
     1.0000   1.0000   1.0000   1.0000   1.0000   1.0000   1.0000   1.0000
     1.0000   1.0000   1.0000   1.0000   1.0000   1.0000   1.0000   1.0000
     1.0000   1.0000   1.0000   1.0000   1.0000   1.0000   1.0000   1.0000
     1.0000   1.0000   1.0000   1.0000   1.0000   1.0000   1.0000   1.0000
     1.0000   1.0000   1.0000   1.0000   1.0000   1.0000   1.0000   1.0000
     1.0000   1.0000   1.0000   1.0000   1.0000   1.0000   1.0000   1.0000
     1.0000   1.0000   1.0000   1.0000   1.0000   1.0000   0.0000   0.0000
     0.0000   0.0000   0.0000   0.0000   0.0000   0.0000   0.0000   0.0000
     0.0000   0.0000   0.0000   0.0000   0.0000   0.0000   0.0000   0.0000
     0.0000   0.0000   0.0000   0.0000   0.0000   0.0000   0.0000   0.0000
     0.0000   0.0000   0.0000   0.0000   0.0000   0.0000   0.0000   0.0000
     0.0000   0.0000   0.0000   0.0000   0.0000   0.0000   0.0000   0.0000
     0.0000   0.0000   0.0000   0.0000   0.0000   0.0000   0.0000   0.0000
     0.0000   0.0000

          k = 0.3346 0.0000 0.4051 ( 53609 PWs)   bands (ev):

   -78.1398 -78.1394 -67.8768 -67.8768 -67.7816 -67.7816 -67.6626 -67.6626
   -67.2942 -67.2942 -67.1239 -67.1239 -44.3169 -44.3164 -44.2856 -44.2852
   -44.1652 -44.1648 -34.6425 -34.6421 -34.6226 -34.6222 -34.6214 -34.6213
   -34.5496 -34.5496 -34.5295 -34.5295 -34.5214 -34.5214 -34.4278 -34.4278
   -34.4197 -34.4196 -34.3954 -34.3954 -34.0494 -34.0494 -34.0482 -34.0482
   -34.0424 -34.0423 -33.8969 -33.8969 -33.8674 -33.8673 -33.8653 -33.8652
   -23.3599 -23.3596 -23.2478 -23.2475 -15.1471 -15.1287 -14.9958 -14.9665
   -14.4173 -14.4058 -14.3081 -14.2928 -14.0079 -13.9912 -13.8783 -13.8646
   -13.5366 -13.4483 -13.4092 -13.3356 -13.3036 -13.2673 -13.2420 -13.2217
   -13.1472 -13.1227 -13.0609 -13.0157 -13.0054 -12.9970 -12.9959 -12.9820
   -12.9042 -12.8936 -12.8331 -12.8249 -12.7228 -12.6912 -12.6623 -12.6120
   -12.5879 -12.5412 -12.5345 -12.5069 -12.4170 -12.4021 -12.3287 -12.3202
   -11.3478 -11.3217 -11.1382 -11.1062  -6.9004  -6.8995  -6.8483  -6.8483
    -6.8390  -6.8375  -6.8009  -6.7955  -6.7297  -6.7289  -6.7191  -6.7143
    -4.2789  -4.2319  -3.8461  -3.8364  -2.6689  -2.5871  -2.5330  -2.4802
    -1.9442  -1.9300  -1.8237  -1.6049  -1.5809  -1.5377  -1.4597  -1.4152
    -1.0331  -0.9862  -0.9749  -0.9535  -0.8701  -0.8526  -0.8185  -0.7910
    -0.6960  -0.5829  -0.4931  -0.4576  -0.4567  -0.4173  -0.4037  -0.3257
    -0.2238  -0.0839  -0.0785  -0.0239  -0.0002   0.1140   0.1909   0.1937
     0.3387   0.3500   0.4351   0.4528   0.4657   0.5345   0.5787   0.6707
     0.8581   0.8973   0.9550   1.0085   1.0134   1.0509   1.0745   1.1611
     1.1697   1.2114   1.3090   1.3211   1.3771   1.3963   1.4191   1.4516
     1.4738   1.5010   1.5748   1.6559   1.7382   1.8125   1.8183   1.8359
     1.8926   1.9904   2.0716   2.1075   2.1215   2.1479   2.1786   2.1939
     2.2017   2.2579   2.2873   2.3470   2.3577   2.4252   2.4450   2.4661
     2.4935   2.5257   2.5500   2.5840   2.5846   2.6351   2.6684   2.6917
     2.7021   2.7236   2.7872   2.7947   2.8930   2.9032   2.9100   2.9296
     2.9717   2.9840   3.0024   3.0317   3.0728   3.0975   3.1137   3.1287
     3.1342   3.1761   3.2455   3.2546   3.2677   3.2700   3.2971   3.3332
     3.3488   3.3494   3.4118   3.4176   3.4448   3.4826   3.5079   3.5253
     3.5375   3.5581   3.6056   3.6137   3.6217   3.6281   3.6709   3.7258
     3.7983   3.8251   3.9257   4.0818   4.1352   4.2183   4.2432   4.2812
     7.9435   7.9522   8.1649   8.1787   8.1942   8.2133   9.4101   9.4337
     9.4690   9.6722   9.8797  10.0079  10.0338  10.9235  11.2543  11.4389
    11.4509  11.6372  11.6417  11.7863  11.9581  11.9607  12.0233  12.1010
    12.2116  12.3007  12.4046  12.5766  12.6021  12.6723  12.7836  12.8546
    12.9308  12.9758  13.0193  13.0486  13.0563  13.1064  13.1807  13.2088
    13.2748  13.2933  13.3258  13.3684  13.3807  13.4504  13.4682  13.5712
    13.6042  13.6801  13.7388  13.7426  13.8446  13.9004  13.9478  14.0436
    14.0441  14.1891

     occupation numbers 
     1.0000   1.0000   1.0000   1.0000   1.0000   1.0000   1.0000   1.0000
     1.0000   1.0000   1.0000   1.0000   1.0000   1.0000   1.0000   1.0000
     1.0000   1.0000   1.0000   1.0000   1.0000   1.0000   1.0000   1.0000
     1.0000   1.0000   1.0000   1.0000   1.0000   1.0000   1.0000   1.0000
     1.0000   1.0000   1.0000   1.0000   1.0000   1.0000   1.0000   1.0000
     1.0000   1.0000   1.0000   1.0000   1.0000   1.0000   1.0000   1.0000
     1.0000   1.0000   1.0000   1.0000   1.0000   1.0000   1.0000   1.0000
     1.0000   1.0000   1.0000   1.0000   1.0000   1.0000   1.0000   1.0000
     1.0000   1.0000   1.0000   1.0000   1.0000   1.0000   1.0000   1.0000
     1.0000   1.0000   1.0000   1.0000   1.0000   1.0000   1.0000   1.0000
     1.0000   1.0000   1.0000   1.0000   1.0000   1.0000   1.0000   1.0000
     1.0000   1.0000   1.0000   1.0000   1.0000   1.0000   1.0000   1.0000
     1.0000   1.0000   1.0000   1.0000   1.0000   1.0000   1.0000   1.0000
     1.0000   1.0000   1.0000   1.0000   1.0000   1.0000   1.0000   1.0000
     1.0000   1.0000   1.0000   1.0000   1.0000   1.0000   1.0000   1.0000
     1.0000   1.0000   1.0000   1.0000   1.0000   1.0000   1.0000   1.0000
     1.0000   1.0000   1.0000   1.0000   1.0000   1.0000   1.0000   1.0000
     1.0000   1.0000   1.0000   1.0000   1.0000   1.0000   1.0000   1.0000
     1.0000   1.0000   1.0000   1.0000   1.0000   1.0000   1.0000   1.0000
     1.0000   1.0000   1.0000   1.0000   1.0000   1.0000   1.0000   1.0000
     1.0000   1.0000   1.0000   1.0000   1.0000   1.0000   1.0000   1.0000
     1.0000   1.0000   1.0000   1.0000   1.0000   1.0000   1.0000   1.0000
     1.0000   1.0000   1.0000   1.0000   1.0000   1.0000   1.0000   1.0000
     1.0000   1.0000   1.0000   1.0000   1.0000   1.0000   1.0000   1.0000
     1.0000   1.0000   1.0000   1.0000   1.0000   1.0000   1.0000   1.0000
     1.0000   1.0000   1.0000   1.0000   1.0000   1.0000   1.0000   1.0000
     1.0000   1.0000   1.0000   1.0000   1.0000   1.0000   1.0000   1.0000
     1.0000   1.0000   1.0000   1.0000   1.0000   1.0000   1.0000   1.0000
     1.0000   1.0000   1.0000   1.0000   1.0000   1.0000   1.0000   1.0000
     1.0000   1.0000   1.0000   1.0000   1.0000   1.0000   1.0000   1.0000
     1.0000   1.0000   1.0000   1.0000   1.0000   1.0000   1.0000   1.0000
     1.0000   1.0000   1.0000   1.0000   1.0000   1.0000   1.0000   1.0000
     1.0000   1.0000   1.0000   1.0000   1.0000   1.0000   0.0000   0.0000
     0.0000   0.0000   0.0000   0.0000   0.0000   0.0000   0.0000   0.0000
     0.0000   0.0000   0.0000   0.0000   0.0000   0.0000   0.0000   0.0000
     0.0000   0.0000   0.0000   0.0000   0.0000   0.0000   0.0000   0.0000
     0.0000   0.0000   0.0000   0.0000   0.0000   0.0000   0.0000   0.0000
     0.0000   0.0000   0.0000   0.0000   0.0000   0.0000   0.0000   0.0000
     0.0000   0.0000   0.0000   0.0000   0.0000   0.0000   0.0000   0.0000
     0.0000   0.0000

          k = 0.3346 0.0000-0.2876 ( 53589 PWs)   bands (ev):

   -78.1398 -78.1394 -67.8768 -67.8768 -67.7816 -67.7816 -67.6626 -67.6626
   -67.2942 -67.2942 -67.1239 -67.1239 -44.3169 -44.3164 -44.2856 -44.2852
   -44.1652 -44.1648 -34.6425 -34.6421 -34.6226 -34.6222 -34.6214 -34.6213
   -34.5496 -34.5496 -34.5295 -34.5295 -34.5214 -34.5214 -34.4278 -34.4277
   -34.4197 -34.4196 -34.3954 -34.3954 -34.0494 -34.0494 -34.0482 -34.0482
   -34.0424 -34.0423 -33.8969 -33.8969 -33.8674 -33.8674 -33.8652 -33.8652
   -23.3599 -23.3596 -23.2478 -23.2475 -15.1518 -15.1239 -14.9866 -14.9760
   -14.4229 -14.4000 -14.3092 -14.2918 -14.0059 -13.9933 -13.8782 -13.8646
   -13.5384 -13.4462 -13.4038 -13.3403 -13.3079 -13.2671 -13.2411 -13.2211
   -13.1469 -13.1225 -13.0540 -13.0190 -13.0108 -12.9974 -12.9930 -12.9810
   -12.9039 -12.8962 -12.8328 -12.8246 -12.7247 -12.6879 -12.6601 -12.6138
   -12.5913 -12.5348 -12.5323 -12.5135 -12.4174 -12.4010 -12.3276 -12.3214
   -11.3478 -11.3217 -11.1384 -11.1061  -6.9004  -6.8995  -6.8483  -6.8483
    -6.8389  -6.8375  -6.8008  -6.7955  -6.7297  -6.7289  -6.7191  -6.7143
    -4.2620  -4.2490  -3.8712  -3.8108  -2.6596  -2.5970  -2.5310  -2.4810
    -1.9406  -1.9349  -1.8369  -1.6004  -1.5701  -1.5375  -1.4629  -1.4094
    -1.0246  -0.9964  -0.9837  -0.9578  -0.8662  -0.8634  -0.8126  -0.7694
    -0.7160  -0.5557  -0.4930  -0.4721  -0.4406  -0.4210  -0.3891  -0.3691
    -0.1950  -0.1070  -0.0801  -0.0273   0.0154   0.0889   0.1897   0.2108
     0.3372   0.3574   0.4296   0.4476   0.4933   0.5121   0.6123   0.6593
     0.8704   0.9100   0.9331   0.9886   1.0001   1.0451   1.0879   1.1075
     1.1643   1.2355   1.3173   1.3466   1.3681   1.3875   1.4288   1.4311
     1.5022   1.5566   1.5897   1.5987   1.7424   1.7871   1.8457   1.8656
     1.9182   1.9208   2.0705   2.0964   2.1133   2.1544   2.1590   2.1847
     2.2312   2.2456   2.3066   2.3208   2.4098   2.4313   2.4352   2.4552
     2.5078   2.5298   2.5506   2.5698   2.5921   2.6075   2.6530   2.6799
     2.7260   2.7371   2.8024   2.8388   2.8739   2.8918   2.9030   2.9169
     2.9307   2.9989   3.0167   3.0542   3.0751   3.0877   3.1014   3.1146
     3.1468   3.1574   3.2266   3.2600   3.2661   3.2783   3.3462   3.3469
     3.3533   3.3657   3.3708   3.4018   3.4298   3.4730   3.5128   3.5165
     3.5396   3.5680   3.6032   3.6120   3.6332   3.6392   3.6988   3.7007
[...]
     atom   21 type  8   force =    -0.00004765   -0.00004195   -0.00013823
     atom   22 type  8   force =    -0.00004764   -0.00004194   -0.00013821
     atom   23 type  8   force =    -0.00014440    0.00012725   -0.00016522
     atom   24 type  8   force =    -0.00014441    0.00012726   -0.00016523
     atom   25 type  8   force =     0.00014441    0.00012726    0.00016523
     atom   26 type  8   force =     0.00014440    0.00012725    0.00016522
     atom   27 type  1   force =     0.00002668    0.00006898   -0.00097529
     atom   28 type  1   force =     0.00002673    0.00006901   -0.00097527
     atom   29 type  1   force =    -0.00002673    0.00006901    0.00097527
     atom   30 type  1   force =    -0.00002668    0.00006898    0.00097529
     atom   31 type  7   force =     0.00000080   -0.00001248    0.00049016
     atom   32 type  7   force =     0.00000087   -0.00001253    0.00049020
     atom   33 type  7   force =    -0.00000087   -0.00001253   -0.00049021
     atom   34 type  7   force =    -0.00000080   -0.00001248   -0.00049017
     atom   35 type  7   force =    -0.00001138    0.00001885   -0.00037391
     atom   36 type  7   force =    -0.00001134    0.00001881   -0.00037384
     atom   37 type  7   force =     0.00001134    0.00001881    0.00037384
     atom   38 type  7   force =     0.00001138    0.00001885    0.00037391
     atom   39 type  7   force =    -0.00000174   -0.00005433    0.00041191
     atom   40 type  7   force =    -0.00000172   -0.00005438    0.00041194
     atom   41 type  7   force =     0.00000172   -0.00005438   -0.00041194
     atom   42 type  7   force =     0.00000174   -0.00005433   -0.00041191
     atom   43 type  7   force =     0.00003637   -0.00003572    0.00007662
     atom   44 type  7   force =     0.00003640   -0.00003578    0.00007666
     atom   45 type  7   force =    -0.00003640   -0.00003578   -0.00007666
     atom   46 type  7   force =    -0.00003637   -0.00003572   -0.00007662
     atom   47 type  7   force =    -0.00020412    0.00105636    0.00021429
     atom   48 type  7   force =    -0.00020413    0.00105638    0.00021432
     atom   49 type  7   force =     0.00020413    0.00105638   -0.00021432
     atom   50 type  7   force =     0.00020412    0.00105636   -0.00021429
     atom   51 type  7   force =     0.00082969    0.00008441    0.00019867
     atom   52 type  7   force =     0.00082967    0.00008444    0.00019863
     atom   53 type  7   force =    -0.00082967    0.00008444   -0.00019863
     atom   54 type  7   force =    -0.00082969    0.00008441   -0.00019867
     atom   55 type  7   force =     0.00037522   -0.00054261   -0.00012289
     atom   56 type  7   force =     0.00037522   -0.00054260   -0.00012286
     atom   57 type  7   force =    -0.00037522   -0.00054261    0.00012287
     atom   58 type  7   force =    -0.00037522   -0.00054261    0.00012289
     atom   59 type  7   force =    -0.00025847    0.00038185    0.00013210
     atom   60 type  7   force =    -0.00025847    0.00038188    0.00013218
     atom   61 type  7   force =     0.00025847    0.00038188   -0.00013218
     atom   62 type  7   force =     0.00025846    0.00038184   -0.00013210
     atom   63 type  7   force =     0.00092199   -0.00045817    0.00043325
     atom   64 type  7   force =     0.00092198   -0.00045815    0.00043328
     atom   65 type  7   force =    -0.00092199   -0.00045816   -0.00043328
     atom   66 type  7   force =    -0.00092200   -0.00045817   -0.00043324
     atom   67 type  7   force =     0.00072192   -0.00069645   -0.00032335
     atom   68 type  7   force =     0.00072194   -0.00069647   -0.00032332
     atom   69 type  7   force =    -0.00072194   -0.00069647    0.00032332
     atom   70 type  7   force =    -0.00072192   -0.00069645    0.00032335
     atom   71 type  7   force =     0.00007901    0.00013426   -0.00052620
     atom   72 type  7   force =     0.00007902    0.00013428   -0.00052634
     atom   73 type  7   force =    -0.00007902    0.00013428    0.00052634
     atom   74 type  7   force =    -0.00007901    0.00013426    0.00052620
     atom   75 type  7   force =     0.00002413    0.00004801   -0.00048220
     atom   76 type  7   force =     0.00002406    0.00004801   -0.00048232
     atom   77 type  7   force =    -0.00002407    0.00004801    0.00048232
     atom   78 type  7   force =    -0.00002414    0.00004801    0.00048220
     atom   79 type  4   force =     0.00019879    0.00043873   -0.00013926
     atom   80 type  4   force =     0.00019878    0.00043878   -0.00013919
     atom   81 type  4   force =    -0.00019878    0.00043878    0.00013919
     atom   82 type  4   force =    -0.00019879    0.00043873    0.00013926
     atom   83 type  4   force =     0.00009176   -0.00050890   -0.00023446
     atom   84 type  4   force =     0.00009171   -0.00050897   -0.00023430
     atom   85 type  4   force =    -0.00009172   -0.00050897    0.00023430
     atom   86 type  4   force =    -0.00009177   -0.00050890    0.00023446
     atom   87 type  2   force =    -0.00000001    0.00034999   -0.00000000
     atom   88 type  3   force =    -0.00000001    0.00035002   -0.00000000

     Total force =     0.002830     Total SCF correction =     0.000194

     DFT-D3 dispersion Force =     0.006496


     Computing stress (Cartesian axis) and pressure

          total   stress  (Ry/bohr**3)                   (kbar)     P=        0.08
   0.00000086   0.00000000  -0.00000026            0.13        0.00       -0.04
   0.00000000  -0.00000043   0.00000000            0.00       -0.06        0.00
  -0.00000026   0.00000000   0.00000121           -0.04        0.00        0.18

     kinetic stress (kbar)  20401.81      0.00     -4.00
                                0.00  20389.55      0.00
                               -4.00      0.00  20110.39

     local   stress (kbar) -42514.93      0.00    -32.49
                                0.00 -41982.82     -0.00
                              -32.49     -0.00  20992.24

     nonloc. stress (kbar)   3838.66      0.00     -4.49
                                0.00   3839.23      0.00
                               -4.49      0.00   3823.59

     hartree stress (kbar)  23886.40      0.00     13.34
                                0.00  23620.13     -0.00
                               13.34     -0.00  -7173.20

     exc-cor stress (kbar)  -2854.88      0.00      0.15
                                0.00  -2854.78      0.00
                                0.15      0.00  -2851.78

     corecor stress (kbar)  -1882.41     -0.00      0.26
                               -0.00  -1882.47     -0.00
                                0.26     -0.00  -1884.07

     ewald   stress (kbar)   -859.35     -0.00     27.15
                               -0.00  -1113.70      0.00
                               27.15      0.00 -33005.87

     hubbard stress (kbar)      0.00      0.00      0.00
                                0.00      0.00      0.00
                                0.00      0.00      0.00

     DFT-D   stress (kbar)    -15.17      0.00      0.05
                                0.00    -15.20     -0.00
                                0.05     -0.00    -11.12

     XDM     stress (kbar)      0.00      0.00      0.00
                                0.00      0.00      0.00
                                0.00      0.00      0.00

     dft-nl  stress (kbar)      0.00      0.00      0.00
                                0.00      0.00      0.00
                                0.00      0.00      0.00

     TS-vdW  stress (kbar)      0.00      0.00      0.00
                                0.00      0.00      0.00
                                0.00      0.00      0.00

     MDB     stress (kbar)      0.00      0.00      0.00
                                0.00      0.00      0.00
                                0.00      0.00      0.00

     3D-RISM stress (kbar)      0.00      0.00      0.00
                                0.00      0.00      0.00
                                0.00      0.00      0.00

     Energy error            =      1.4E-05 Ry
     Gradient error          =      4.7E-04 Ry/Bohr
     Cell gradient error     =      1.8E-01 kbar

     number of scf cycles    =  33
     number of bfgs steps    =  32

     enthalpy           old  =   -5262.4121203502 Ry
     enthalpy           new  =   -5262.4121345804 Ry

     CASE: enthalpy          _new < enthalpy          _old

     new trust radius        =       0.0065138593 bohr
ibrav =    -12
 celldm(1) =     20.04768455
 celldm(2) =      0.86519544
 celldm(3) =      0.98300035
 celldm(5) =     -0.17583417
Input lattice vectors:
     0.99565919     0.00000000    -0.00000431
     0.00000000     0.86143979     0.00000000
    -0.17209058     0.00000000     0.96348521
New lattice vectors in INITIAL alat:
     0.99565919     0.00000000     0.00000000
     0.00000000     0.86143979     0.00000000
    -0.17209476     0.00000000     0.96348447
New lattice vectors in NEW alat (for information only):
     1.00000000     0.00000000     0.00000000
     0.00000000     0.86519544     0.00000000
    -0.17284505     0.00000000     0.96768501
Discrepancy in bohr =     0.000004    0.000000    0.000004
     new conv_thr            =       0.0000000100 Ry

     new unit-cell volume =   6745.91548 a.u.^3 (   999.64154 Ang^3 )
     density =      2.87728 g/cm^3

CELL_PARAMETERS (alat= 20.13508722)
   0.995659186   0.000000000   0.000000000
   0.000000000   0.861439789   0.000000000
  -0.172094758   0.000000000   0.963484468

ATOMIC_POSITIONS (crystal)
K                0.0000000000        0.4986017985        0.0000000000
K                0.5000000000        0.4985986055        0.0000000000
K                0.2499999488        0.0044115324        0.0000000430
K                0.7500001712        0.0044115324       -0.0000000430
Mg               0.0000000000        0.0089653876        0.4999999400
Mg               0.5000000000        0.0089621330        0.4999999400
Mg               0.0000000000        0.6617533024        0.4999999400
Mg               0.5000000000        0.6617541372        0.4999999400
Mg               0.2499989991        0.4901629588        0.4999997877
Mg               0.7500012689        0.4901629588        0.5000000923
Mg               0.2499999822        0.8348930345        0.5000000294
Mg               0.7500002858        0.8348930345        0.4999998506
Mg               0.2499990357        0.1744978939        0.4999991726
Mg               0.7500012323        0.1744978939        0.5000007074
Si               0.0444585090        0.1681789163        0.2274784078
Si               0.5444582485        0.1681783974        0.2274788783
Si               0.4555420495        0.1681783974        0.7725210327
Si               0.9555417920        0.1681789163        0.7725215032
Si               0.4675077258        0.8356106498        0.7656373064
Si               0.9675085190        0.8356117442        0.7656404304
Si               0.0324917720        0.8356117442        0.2343594506
Si               0.5324926022        0.8356106498        0.2343625746
Si               0.2816236342        0.6670406517        0.2313873403
Si               0.7816223586        0.6670407047        0.2313851983
Si               0.2183779394        0.6670407047        0.7686146827
Si               0.7183766638        0.6670406517        0.7686125407
Al               0.2039839194        0.3321001768        0.7716700235
Al               0.7039835448        0.3321000716        0.7716699511
Al               0.2960167832        0.3321000716        0.2283299149
Al               0.7960163936        0.3321001768        0.2283298425
O                0.0641557308        0.1682176567        0.3869968082
O                0.5641549896        0.1682160463        0.3869966046
O                0.4358453084        0.1682160463        0.6130033364
O                0.9358445902        0.1682176567        0.6130031328
O                0.4375733127        0.8323888419        0.6079788398
O                0.9375735736        0.8323888388        0.6079783993
O                0.0624267834        0.8323888388        0.3920215107
O                0.5624270153        0.8323888419        0.3920210702
O                0.3117653749        0.6676278556        0.3900066985
O                0.8117648465        0.6676294465        0.3900058946
O                0.1882354065        0.6676294465        0.6099940154
O                0.6882348931        0.6676278556        0.6099932115
O                0.1794315499        0.3329590377        0.6027717716
O                0.6794319862        0.3329604567        0.6027717878
O                0.3205683418        0.3329604567        0.3972280332
O                0.8205687331        0.3329590377        0.3972280494
O                0.1756313189        0.2017253813        0.1714909564
O                0.6756304945        0.2017269260        0.1714887543
O                0.3243698335        0.2017269260        0.8285110667
O                0.8243689641        0.2017253813        0.8285088646
O               -0.0009057123        0.9997965513        0.1750943327
O                0.4990944053        0.9997962957        0.1750960756
O                0.5009059227        0.9997962957        0.8249038044
O                1.0009060663        0.9997965513        0.8249055473
O                0.3425373823        0.7751000515        0.8251370702
O                0.8425369350        0.7751014501        0.8251357587
O                0.1574633930        0.7751014501        0.1748641373
O                0.6574629157        0.7751000515        0.1748628258
O                0.4066190452        0.7351375629        0.1739208192
O                0.9066189871        0.7351383957        0.1739186662
O                0.0933813179        0.7351383957        0.8260812148
O                0.5933812528        0.7351375629        0.8260790618
O                0.2494619054        0.5083346873        0.1662847029
O                0.7494618869        0.5083347206        0.1662823120
O                0.2505384261        0.5083347206        0.8337175540
O                0.7505383626        0.5083346873        0.8337151631
O                0.0669086837        0.2816549715        0.8364871309
O                0.5669082951        0.2816555693        0.8364862473
O                0.4330920319        0.2816555693        0.1635136487
O                0.9330916143        0.2816549715        0.1635127651
O                0.0635405461        0.4962366382        0.3983408597
O                0.5635402551        0.4962363347        0.3983433957
O                0.4364600429        0.4962363347        0.6016565153
O                0.9364597519        0.4962366382        0.6016590513
O                0.3165106815        1.0000317341        0.3999046825
O                0.8165112125        1.0000315370        0.3999138092
O                0.1834891595        1.0000315370        0.6000860718
O                0.6834896465        1.0000317341        0.6000951985
H                0.0437335140        0.4778278399        0.3054638503
H                0.5437343885        0.4778271528        0.3054621789
H                0.4562659695        0.4778271528        0.6945377321
H                0.9562668180        0.4778278399        0.6945360607
H                0.2982150096        0.0168372897        0.3069567858
H                0.7982162144        0.0168396834        0.3069530971
H                0.2017840696        0.0168396834        0.6930467839
H                0.7017853174        0.0168372897        0.6930430952
Fe1              0.0000000000        0.3330891584        0.4999999400
Fe2              0.5000000000        0.3330898090        0.4999999400



     Writing config-only to output data dir ./temp/phl-fe1-fe2x2.save/ :
     XML data file
     NEW-OLD atomic charge density approx. for the potential

     Check: negative core charge=   -0.000004

     total cpu time spent up to now is   127176.4 secs

     Self-consistent Calculation

     iteration #  1     ecut=    60.00 Ry     beta= 0.70
     Davidson diagonalization with overlap

---- Real-time Memory Report at c_bands before calling an iterative solver
          1501 MiB given to the printing process from OS
             0 MiB allocation reported by mallinfo(arena+hblkhd)
          9757 MiB available memory on the node where the printing process lives
------------------
     ethr =  1.00E-06,  avg # of iterations =  5.0

     Threshold (ethr) on eigenvalues was too large:
     Diagonalizing with lowered threshold

     Davidson diagonalization with overlap

---- Real-time Memory Report at c_bands before calling an iterative solver
          1501 MiB given to the printing process from OS
             0 MiB allocation reported by mallinfo(arena+hblkhd)
          9650 MiB available memory on the node where the printing process lives
------------------
     ethr =  5.71E-09,  avg # of iterations = 16.4

     total cpu time spent up to now is   130704.8 secs

     total energy              =   -5262.41214388 Ry
     estimated scf accuracy    <       0.00003383 Ry

     iteration #  2     ecut=    60.00 Ry     beta= 0.70
     Davidson diagonalization with overlap

---- Real-time Memory Report at c_bands before calling an iterative solver
          1501 MiB given to the printing process from OS
             0 MiB allocation reported by mallinfo(arena+hblkhd)
          9776 MiB available memory on the node where the printing process lives
------------------
     ethr =  6.46E-09,  avg # of iterations =  2.0

     total cpu time spent up to now is   131531.3 secs

     total energy              =   -5262.41214877 Ry
     estimated scf accuracy    <       0.00000227 Ry

     iteration #  3     ecut=    60.00 Ry     beta= 0.70
     Davidson diagonalization with overlap

---- Real-time Memory Report at c_bands before calling an iterative solver
          1501 MiB given to the printing process from OS
             0 MiB allocation reported by mallinfo(arena+hblkhd)
          9762 MiB available memory on the node where the printing process lives
------------------
     ethr =  4.33E-10,  avg # of iterations = 11.3

     total cpu time spent up to now is   132669.0 secs

     total energy              =   -5262.41214923 Ry
     estimated scf accuracy    <       0.00000473 Ry

     iteration #  4     ecut=    60.00 Ry     beta= 0.70
     Davidson diagonalization with overlap

---- Real-time Memory Report at c_bands before calling an iterative solver
          1501 MiB given to the printing process from OS
             0 MiB allocation reported by mallinfo(arena+hblkhd)
          9744 MiB available memory on the node where the printing process lives
------------------
     ethr =  4.33E-10,  avg # of iterations =  6.1

     total cpu time spent up to now is   133422.0 secs

     total energy              =   -5262.41215024 Ry
     estimated scf accuracy    <       0.00000087 Ry

     iteration #  5     ecut=    60.00 Ry     beta= 0.70
     Davidson diagonalization with overlap

---- Real-time Memory Report at c_bands before calling an iterative solver
          1501 MiB given to the printing process from OS
             0 MiB allocation reported by mallinfo(arena+hblkhd)
          9734 MiB available memory on the node where the printing process lives
------------------
     ethr =  1.66E-10,  avg # of iterations =  5.0

     total cpu time spent up to now is   134222.8 secs

     total energy              =   -5262.41215043 Ry
     estimated scf accuracy    <       0.00000007 Ry

     iteration #  6     ecut=    60.00 Ry     beta= 0.70
     Davidson diagonalization with overlap

---- Real-time Memory Report at c_bands before calling an iterative solver
          1501 MiB given to the printing process from OS
             0 MiB allocation reported by mallinfo(arena+hblkhd)
          9717 MiB available memory on the node where the printing process lives
------------------
