--------------------------------------------------------------------------
WARNING: There is at least non-excluded one OpenFabrics device found,
but there are no active ports detected (or Open MPI was unable to use
them).  This is most certainly not what you wanted.  Check your
cables, subnet manager configuration, etc.  The openib BTL will be
ignored for this job.

  Local host: miserver1
--------------------------------------------------------------------------

     Program PWSCF v.7.3.1 starts on 14Feb2025 at  5: 9: 5 

     This program is part of the open-source Quantum ESPRESSO suite
     for quantum simulation of materials; please cite
         "P. Giannozzi et al., J. Phys.:Condens. Matter 21 395502 (2009);
         "P. Giannozzi et al., J. Phys.:Condens. Matter 29 465901 (2017);
         "P. Giannozzi et al., J. Chem. Phys. 152 154105 (2020);
          URL http://www.quantum-espresso.org", 
     in publications or presentations arising from this work. More details at
     http://www.quantum-espresso.org/quote

     Parallel version (MPI), running on     6 processors

     MPI processes distributed on     1 nodes
     14815 MiB available memory on the printing compute node when the environment starts

     Reading input from vc_relax.in

     Current dimensions of program PWSCF are:
     Max number of different atomic species (ntypx) = 10
     Max number of k-points (npk) =  40000
     Max angular momentum in pseudopotentials (lmaxx) =  4
     file Al.pbe-n-kjpaw_psl.1.0.0.UPF: wavefunction(s)  3S 3P renormalized
     file Fe.pbe-spn-kjpaw_psl.1.0.0.UPF: wavefunction(s)  3P 3D renormalized
     file Fe.pbe-spn-kjpaw_psl.1.0.0.UPF: wavefunction(s)  3P 3D renormalized
     file H.pbe-kjpaw_psl.1.0.0.UPF: wavefunction(s)  1S renormalized
     file K.pbe-spn-kjpaw_psl.1.0.0.UPF: wavefunction(s)  3S renormalized
     file Mg.pbe-spnl-kjpaw_psl.1.0.0.UPF: wavefunction(s)  2P renormalized
     file O.pbe-n-kjpaw_psl.1.0.0.UPF: wavefunction(s)  2S 2P renormalized
     file Si.pbe-n-kjpaw_psl.1.0.0.UPF: wavefunction(s)  3S 3P renormalized

     R & G space division:  proc/nbgrp/npool/nimage =       6
     Subspace diagonalization in iterative solution of the eigenvalue problem:
     one sub-group per band group will be used
     custom distributed-memory algorithm (size of sub-group:  2*  2 procs)


     Parallelization info
     --------------------
     sticks:   dense  smooth     PW     G-vecs:    dense   smooth      PW
     Min        2245    1122    295               202075    71450    9650
     Max        2246    1123    296               202076    71451    9652
     Sum       13475    6737   1775              1212455   428701   57909

     Using Slab Decomposition



     bravais-lattice index     =          -12
     lattice parameter (alat)  =      20.1351  a.u.
     unit-cell volume          =    6828.4878 (a.u.)^3
     number of atoms/cell      =           88
     number of atomic types    =            8
     number of electrons       =       524.00
     number of Kohn-Sham states=          314
     kinetic-energy cutoff     =      60.0000  Ry
     charge density cutoff     =     480.0000  Ry
     scf convergence threshold =      1.0E-06
     mixing beta               =       0.7000
     number of iterations used =            8  plain     mixing
     energy convergence thresh.=      1.0E-06
     force convergence thresh. =      1.0E-03
     press convergence thresh. =      5.0E-01
     Exchange-correlation= SLA  PW   PBX  PBC
                           (   1   4   3   4   0   0   0)
     nstep                     =           50


     celldm(1)=  20.135087  celldm(2)=   0.869801  celldm(3)=   0.977339
     celldm(4)=   0.000000  celldm(5)=  -0.178119  celldm(6)=   0.000000

     crystal axes: (cart. coord. in units of alat)
               a(1) = (   1.000000   0.000000   0.000000 )  
               a(2) = (   0.000000   0.869801   0.000000 )  
               a(3) = (  -0.174083   0.000000   0.961710 )  

     reciprocal axes: (cart. coord. in units 2 pi/alat)
               b(1) = (  1.000000 -0.000000  0.181014 )  
               b(2) = (  0.000000  1.149688 -0.000000 )  
               b(3) = (  0.000000  0.000000  1.039814 )  


     PseudoPot. # 1 for Al read from file:
     ./../../../pseudos/Al.pbe-n-kjpaw_psl.1.0.0.UPF
     MD5 check sum: 502b6b27b9c6270cab5dd1084b96fa6d
     Pseudo is Projector augmented-wave + core cor, Zval =  3.0
     Generated using &quot;atomic&quot; code by A. Dal Corso  v.6.3
     Shape of augmentation charge: PSQ
     Using radial grid of 1135 points,  6 beta functions with: 
                l(1) =   0
                l(2) =   0
                l(3) =   1
                l(4) =   1
                l(5) =   2
                l(6) =   2
     Q(r) pseudized with 0 coefficients 


     PseudoPot. # 2 for Fe read from file:
     ./../../../pseudos/Fe.pbe-spn-kjpaw_psl.1.0.0.UPF
     MD5 check sum: fc81f059e5c5069939230b1155715ae8
     Pseudo is Projector augmented-wave + core cor, Zval = 16.0
     Generated using &quot;atomic&quot; code by A. Dal Corso  v.6.3
     Shape of augmentation charge: PSQ
     Using radial grid of 1191 points,  6 beta functions with: 
                l(1) =   0
                l(2) =   0
                l(3) =   1
                l(4) =   1
                l(5) =   2
                l(6) =   2
     Q(r) pseudized with 0 coefficients 


     PseudoPot. # 3 for Fe read from file:
     ./../../../pseudos/Fe.pbe-spn-kjpaw_psl.1.0.0.UPF
     MD5 check sum: fc81f059e5c5069939230b1155715ae8
     Pseudo is Projector augmented-wave + core cor, Zval = 16.0
     Generated using &quot;atomic&quot; code by A. Dal Corso  v.6.3
     Shape of augmentation charge: PSQ
     Using radial grid of 1191 points,  6 beta functions with: 
                l(1) =   0
                l(2) =   0
                l(3) =   1
                l(4) =   1
                l(5) =   2
                l(6) =   2
     Q(r) pseudized with 0 coefficients 


     PseudoPot. # 4 for H  read from file:
     ./../../../pseudos/H.pbe-kjpaw_psl.1.0.0.UPF
     MD5 check sum: d81a744832360e4a8af0b0b5b123bc2a
     Pseudo is Projector augmented-wave, Zval =  1.0
     Generated using &quot;atomic&quot; code by A. Dal Corso  v.6.3MaX
     Shape of augmentation charge: PSQ
     Using radial grid of  929 points,  2 beta functions with: 
                l(1) =   0
                l(2) =   0
     Q(r) pseudized with 0 coefficients 


     PseudoPot. # 5 for K  read from file:
     ./../../../pseudos/K.pbe-spn-kjpaw_psl.1.0.0.UPF
     MD5 check sum: 34cc42130a09071ebe376fd42eb21491
     Pseudo is Projector augmented-wave + core cor, Zval =  9.0
     Generated using &quot;atomic&quot; code by A. Dal Corso  v.6.2.2
     Shape of augmentation charge: PSQ
     Using radial grid of 1165 points,  6 beta functions with: 
                l(1) =   0
                l(2) =   0
                l(3) =   1
                l(4) =   1
                l(5) =   2
                l(6) =   2
     Q(r) pseudized with 0 coefficients 


     PseudoPot. # 6 for Mg read from file:
     ./../../../pseudos/Mg.pbe-spnl-kjpaw_psl.1.0.0.UPF
     MD5 check sum: fda14e0d92a6a9a5ebed782e5a4b3067
     Pseudo is Projector augmented-wave + core cor, Zval = 10.0
     Generated using &quot;atomic&quot; code by A. Dal Corso  v.6.3
     Shape of augmentation charge: PSQ
     Using radial grid of 1129 points,  4 beta functions with: 
                l(1) =   0
                l(2) =   0
                l(3) =   1
                l(4) =   1
     Q(r) pseudized with 0 coefficients 


     PseudoPot. # 7 for O  read from file:
     ./../../../pseudos/O.pbe-n-kjpaw_psl.1.0.0.UPF
     MD5 check sum: e99d9cef9b487d1ca56f5b95ecd0fd7a
     Pseudo is Projector augmented-wave + core cor, Zval =  6.0
     Generated using &quot;atomic&quot; code by A. Dal Corso  v.6.3
     Shape of augmentation charge: PSQ
     Using radial grid of 1095 points,  4 beta functions with: 
                l(1) =   0
                l(2) =   0
                l(3) =   1
                l(4) =   1
     Q(r) pseudized with 0 coefficients 


     PseudoPot. # 8 for Si read from file:
     ./../../../pseudos/Si.pbe-n-kjpaw_psl.1.0.0.UPF
     MD5 check sum: c39c59da582df4a0d9f10159256ea34e
     Pseudo is Projector augmented-wave + core cor, Zval =  4.0
     Generated using &quot;atomic&quot; code by A. Dal Corso  v.6.3
     Shape of augmentation charge: PSQ
     Using radial grid of 1141 points,  6 beta functions with: 
                l(1) =   0
                l(2) =   0
                l(3) =   1
                l(4) =   1
                l(5) =   2
                l(6) =   2
     Q(r) pseudized with 0 coefficients 


     atomic species   valence    mass     pseudopotential
     Al                3.00    26.98154     Al( 1.00)
     Fe1              16.00    55.84500     Fe( 1.00)
     Fe2              16.00    55.84500     Fe( 1.00)
     H                 1.00     1.00794     H ( 1.00)
     K                 9.00    39.09830     K ( 1.00)
     Mg               10.00    24.30500     Mg( 1.00)
     O                 6.00    15.99940     O ( 1.00)
     Si                4.00    28.08550     Si( 1.00)

      2 Sym. Ops. (no inversion) found


                                    s                        frac. trans.

      isym =  1     identity                                     

 cryst.   s( 1) = (     1          0          0      )
                  (     0          1          0      )
                  (     0          0          1      )

 cart.    s( 1) = (  1.0000000  0.0000000  0.0000000 )
                  (  0.0000000  1.0000000  0.0000000 )
                  (  0.0000000  0.0000000  1.0000000 )


      isym =  2     180 deg rotation - cart. axis [0,1,0]        

 cryst.   s( 2) = (    -1          0          0      )
                  (     0          1          0      )
                  (     0          0         -1      )

 cart.    s( 2) = ( -1.0000000  0.0000000  0.0000000 )
                  (  0.0000000  1.0000000  0.0000000 )
                  (  0.0000000  0.0000000 -1.0000000 )


     point group C_2  (2)   
     there are  2 classes
     the character table:

       E     C2   
A      1.00  1.00
B      1.00 -1.00

     the symmetry operations in each class and the name of the first element:

     E        1
          identity                                               
     C2       2
          180 deg rotation - cart. axis [0,1,0]                  

   Cartesian axes

     site n.     atom                  positions (alat units)
         1        K      tau(   1) = (   0.0000000   0.4296389   0.0000000  )
         2        K      tau(   2) = (   0.5000000   0.4296389   0.0000000  )
         3        K      tau(   3) = (   0.2500001   0.0024501   0.0000000  )
         4        K      tau(   4) = (   0.7500001   0.0024501   0.0000000  )
         5        Mg     tau(   5) = (  -0.0870414   0.0055279   0.4808550  )
         6        Mg     tau(   6) = (   0.4129586   0.0055279   0.4808550  )
         7        Mg     tau(   7) = (  -0.0870414   0.5801280   0.4808550  )
         8        Mg     tau(   8) = (   0.4129586   0.5801280   0.4808550  )
         9        Mg     tau(   9) = (   0.1629587   0.4310949   0.4808550  )
        10        Mg     tau(  10) = (   0.6629587   0.4310949   0.4808550  )
        11        Mg     tau(  11) = (   0.1629587   0.7269300   0.4808550  )
        12        Mg     tau(  12) = (   0.6629587   0.7269300   0.4808550  )
        13        Mg     tau(  13) = (   0.1629587   0.1482588   0.4808550  )
        14        Mg     tau(  14) = (   0.6629587   0.1482588   0.4808550  )
        15        Si     tau(  15) = (   0.0074326   0.1420119   0.2164892  )
        16        Si     tau(  16) = (   0.5074326   0.1420119   0.2164892  )
        17        Si     tau(  17) = (   0.3184849   0.1420119   0.7452208  )
        18        Si     tau(  18) = (   0.8184849   0.1420119   0.7452208  )
        19        Si     tau(  19) = (   0.3331608   0.7257911   0.7377580  )
        20        Si     tau(  20) = (   0.8331608   0.7257911   0.7377580  )
        21        Si     tau(  21) = (  -0.0072433   0.7257911   0.2239520  )
        22        Si     tau(  22) = (   0.4927567   0.7257911   0.2239520  )
        23        Si     tau(  23) = (   0.2427667   0.5796705   0.2225784  )
        24        Si     tau(  24) = (   0.7427667   0.5796705   0.2225784  )
        25        Si     tau(  25) = (   0.0831508   0.5796705   0.7391315  )
        26        Si     tau(  26) = (   0.5831508   0.5796705   0.7391315  )
        27        Al     tau(  27) = (   0.0682443   0.2875617   0.7425041  )
        28        Al     tau(  28) = (   0.5682443   0.2875617   0.7425041  )
        29        Al     tau(  29) = (   0.2576732   0.2875617   0.2192058  )
        30        Al     tau(  30) = (   0.7576731   0.2875617   0.2192058  )
        31        O      tau(  31) = (   0.0017352   0.1371008   0.3693886  )
        32        O      tau(  32) = (   0.5017352   0.1371008   0.3693886  )
        33        O      tau(  33) = (   0.3241823   0.1371008   0.5923214  )
        34        O      tau(  34) = (   0.8241823   0.1371008   0.5923214  )
        35        O      tau(  35) = (   0.3309875   0.7260882   0.5856762  )
        36        O      tau(  36) = (   0.8309875   0.7260882   0.5856762  )
        37        O      tau(  37) = (  -0.0050700   0.7260882   0.3760337  )
        38        O      tau(  38) = (   0.4949300   0.7260882   0.3760337  )
        39        O      tau(  39) = (   0.2456591   0.5824087   0.3753945  )
        40        O      tau(  40) = (   0.7456591   0.5824087   0.3753945  )
        41        O      tau(  41) = (   0.0802583   0.5824087   0.5863155  )
        42        O      tau(  42) = (   0.5802583   0.5824087   0.5863155  )
        43        O      tau(  43) = (   0.0748950   0.2898192   0.5784747  )
        44        O      tau(  44) = (   0.5748950   0.2898192   0.5784747  )
        45        O      tau(  45) = (   0.2510225   0.2898192   0.3832352  )
        46        O      tau(  46) = (   0.7510224   0.2898192   0.3832352  )
        47        O      tau(  47) = (   0.1463863   0.1775489   0.1626707  )
        48        O      tau(  48) = (   0.6463863   0.1775489   0.1626707  )
        49        O      tau(  49) = (   0.1795312   0.1775489   0.7990392  )
        50        O      tau(  50) = (   0.6795312   0.1775489   0.7990392  )
        51        O      tau(  51) = (  -0.0250455   0.8667889   0.1630411  )
        52        O      tau(  52) = (   0.4749545   0.8667889   0.1630411  )
        53        O      tau(  53) = (   0.3509630   0.8667889   0.7986688  )
        54        O      tau(  54) = (   0.8509630   0.8667889   0.7986688  )
        55        O      tau(  55) = (   0.2001651   0.6682872   0.7942782  )
        56        O      tau(  56) = (   0.7001651   0.6682872   0.7942782  )
        57        O      tau(  57) = (   0.1257524   0.6682872   0.1674318  )
        58        O      tau(  58) = (   0.6257524   0.6682872   0.1674318  )
        59        O      tau(  59) = (   0.3751016   0.6421235   0.1665090  )
        60        O      tau(  60) = (   0.8751016   0.6421235   0.1665090  )
        61        O      tau(  61) = (  -0.0491842   0.6421235   0.7952009  )
        62        O      tau(  62) = (   0.4508158   0.6421235   0.7952009  )
        63        O      tau(  63) = (   0.2267361   0.4412388   0.1614261  )
        64        O      tau(  64) = (   0.7267362   0.4412388   0.1614261  )
        65        O      tau(  65) = (   0.0991813   0.4412388   0.8002838  )
        66        O      tau(  66) = (   0.5991813   0.4412388   0.8002838  )
        67        O      tau(  67) = (  -0.0785908   0.2392057   0.8031981  )
        68        O      tau(  68) = (   0.4214092   0.2392057   0.8031981  )
        69        O      tau(  69) = (   0.4045083   0.2392057   0.1585119  )
        70        O      tau(  70) = (   0.9045082   0.2392057   0.1585119  )
        71        O      tau(  71) = (  -0.0000042   0.4450115   0.3781135  )
        72        O      tau(  72) = (   0.4999958   0.4450115   0.3781135  )
        73        O      tau(  73) = (   0.3259217   0.4450115   0.5835965  )
        74        O      tau(  74) = (   0.8259217   0.4450115   0.5835965  )
        75        O      tau(  75) = (   0.2478596   0.8693925   0.3836472  )
        76        O      tau(  76) = (   0.7478596   0.8693925   0.3836472  )
        77        O      tau(  77) = (   0.0780579   0.8693925   0.5780627  )
        78        O      tau(  78) = (   0.5780579   0.8693925   0.5780627  )
        79        H      tau(  79) = (   0.0004471   0.4269259   0.2892434  )
        80        H      tau(  80) = (   0.5004471   0.4269259   0.2892434  )
        81        H      tau(  81) = (   0.3254704   0.4269259   0.6724666  )
        82        H      tau(  82) = (   0.8254704   0.4269259   0.6724666  )
        83        H      tau(  83) = (   0.2447352   0.0128545   0.2939423  )
        84        H      tau(  84) = (   0.7447351   0.0128545   0.2939423  )
        85        H      tau(  85) = (   0.0811823   0.0128545   0.6677677  )
        86        H      tau(  86) = (   0.5811823   0.0128545   0.6677677  )
        87        Fe1    tau(  87) = (  -0.0870414   0.2919251   0.4808550  )
        88        Fe2    tau(  88) = (   0.4129586   0.2919251   0.4808550  )

     --------------------------------------------
     DFT-D3 Dispersion Correction (3-body terms):
     --------------------------------------------
       Reference C6 values for interpolation: 

         atom   Coordination number   C6
         H          0.912             6.05
         H          0.000            15.18
         O          0.000            31.01
         O          0.993            25.63
         O          1.989            20.74
         Mg         0.000          1366.75
         Mg         0.963           902.54
         Mg         1.950           351.12
         Al         0.000          1081.08
         Al         0.965           875.51
         Al         1.931           513.50
         Al         2.915           307.19
         Si         0.000           635.71
         Si         0.951           540.53
         Si         1.944           466.25
         Si         2.941           443.01
         Si         3.868           299.55
         K          0.000          9967.00
         K          0.977           676.04
         Fe1        0.000           982.67
         Fe1        1.648           409.99
         Fe1        9.138           219.01
         Fe2        0.000           982.67
         Fe2        1.648           409.99
         Fe2        9.138           219.01

       Values used:

         atom   Coordination number  R0_AB[au]  C6      C8
         K         11.877            4.007    676.04 129074.98
         K         11.877            4.007    676.04 129074.98
         K         12.270            4.007    676.04 129074.98
         K         12.270            4.007    676.04 129074.98
         Mg        11.314            3.292    351.12  31436.69
         Mg        11.314            3.292    351.12  31436.69
         Mg        11.299            3.292    351.12  31436.69
         Mg        11.299            3.292    351.12  31436.69
         Mg        11.204            3.292    351.12  31436.69
         Mg        11.204            3.292    351.12  31436.69
         Mg        11.573            3.292    351.12  31436.69
         Mg        11.573            3.292    351.12  31436.69
         Mg        11.383            3.292    351.12  31436.69
         Mg        11.383            3.292    351.12  31436.69
         Si         6.519            3.583    299.55  21425.58
         Si         6.519            3.583    299.55  21425.58
         Si         6.519            3.583    299.55  21425.58
         Si         6.519            3.583    299.55  21425.58
         Si         6.299            3.583    299.55  21425.58
         Si         6.299            3.583    299.55  21425.58
         Si         6.299            3.583    299.55  21425.58
         Si         6.299            3.583    299.55  21425.58
         Si         6.332            3.583    299.55  21425.58
         Si         6.332            3.583    299.55  21425.58
         Si         6.332            3.583    299.55  21425.58
         Si         6.332            3.583    299.55  21425.58
         Al         7.195            3.789    307.19  29441.29
         Al         7.195            3.789    307.19  29441.29
         Al         7.195            3.789    307.19  29441.29
         Al         7.195            3.789    307.19  29441.29
         O          3.463            2.345     20.74    418.58
         O          3.463            2.345     20.74    418.58
         O          3.463            2.345     20.74    418.58
         O          3.463            2.345     20.74    418.58
         O          3.908            2.345     20.74    418.58
         O          3.908            2.345     20.74    418.58
         O          3.908            2.345     20.74    418.58
         O          3.908            2.345     20.74    418.58
         O          3.897            2.345     20.74    418.58
         O          3.897            2.345     20.74    418.58
         O          3.897            2.345     20.74    418.58
         O          3.897            2.345     20.74    418.58
         O          3.833            2.345     20.74    418.58
         O          3.833            2.345     20.74    418.58
         O          3.833            2.345     20.74    418.58
         O          3.833            2.345     20.74    418.58
         O          3.114            2.345     20.74    418.58
         O          3.114            2.345     20.74    418.58
         O          3.114            2.345     20.74    418.58
         O          3.114            2.345     20.74    418.58
         O          3.077            2.345     20.74    418.58
         O          3.077            2.345     20.74    418.58
         O          3.077            2.345     20.74    418.58
         O          3.077            2.345     20.74    418.58
         O          2.927            2.345     20.74    418.58
         O          2.927            2.345     20.74    418.58
         O          2.927            2.345     20.74    418.58
         O          2.927            2.345     20.74    418.58
         O          2.924            2.345     20.74    418.58
         O          2.924            2.345     20.74    418.58
         O          2.924            2.345     20.74    418.58
         O          2.924            2.345     20.74    418.58
         O          3.084            2.345     20.74    418.58
         O          3.084            2.345     20.74    418.58
         O          3.084            2.345     20.74    418.58
         O          3.084            2.345     20.74    418.58
         O          3.139            2.345     20.74    418.58
         O          3.139            2.345     20.74    418.58
         O          3.139            2.345     20.74    418.58
         O          3.139            2.345     20.74    418.58
         O          3.632            2.345     20.74    418.58
         O          3.632            2.345     20.74    418.58
         O          3.632            2.345     20.74    418.58
         O          3.632            2.345     20.74    418.58
         O          3.981            2.345     20.74    418.58
         O          3.981            2.345     20.74    418.58
         O          3.981            2.345     20.74    418.58
         O          3.981            2.345     20.74    418.58
         H          1.231            2.062      6.08     73.47
         H          1.231            2.062      6.08     73.47
         H          1.231            2.062      6.08     73.47
         H          1.231            2.062      6.08     73.47
         H          1.237            2.062      6.08     73.45
         H          1.237            2.062      6.08     73.45
         H          1.237            2.062      6.08     73.45
         H          1.237            2.062      6.08     73.45
         Fe1        7.261            3.252    219.01  20487.87
         Fe2        7.261            3.252    219.01  20487.87

         Molecular C6 ( Ry / a.u.^6 ) =    661236.15


   Crystallographic axes

     site n.     atom                  positions (cryst. coord.)
         1        K      tau(   1) = (  0.0000000  0.4939509  0.0000000  )
         2        K      tau(   2) = (  0.5000000  0.4939509  0.0000000  )
         3        K      tau(   3) = (  0.2500001  0.0028168  0.0000000  )
         4        K      tau(   4) = (  0.7500001  0.0028168  0.0000000  )
         5        Mg     tau(   5) = (  0.0000000  0.0063553  0.4999999  )
         6        Mg     tau(   6) = (  0.5000000  0.0063553  0.4999999  )
         7        Mg     tau(   7) = (  0.0000000  0.6669664  0.4999999  )
         8        Mg     tau(   8) = (  0.5000000  0.6669664  0.4999999  )
         9        Mg     tau(   9) = (  0.2500001  0.4956248  0.4999999  )
        10        Mg     tau(  10) = (  0.7500001  0.4956248  0.4999999  )
        11        Mg     tau(  11) = (  0.2500001  0.8357430  0.4999999  )
        12        Mg     tau(  12) = (  0.7500001  0.8357430  0.4999999  )
        13        Mg     tau(  13) = (  0.2500001  0.1704514  0.4999999  )
        14        Mg     tau(  14) = (  0.7500001  0.1704514  0.4999999  )
        15        Si     tau(  15) = (  0.0466201  0.1632694  0.2251086  )
        16        Si     tau(  16) = (  0.5466201  0.1632694  0.2251086  )
        17        Si     tau(  17) = (  0.4533802  0.1632694  0.7748913  )
        18        Si     tau(  18) = (  0.9533802  0.1632694  0.7748913  )
        19        Si     tau(  19) = (  0.4667052  0.8344337  0.7671314  )
        20        Si     tau(  20) = (  0.9667052  0.8344337  0.7671314  )
        21        Si     tau(  21) = (  0.0332951  0.8344337  0.2328685  )
        22        Si     tau(  22) = (  0.5332951  0.8344337  0.2328685  )
        23        Si     tau(  23) = (  0.2830564  0.6664404  0.2314402  )
        24        Si     tau(  24) = (  0.7830564  0.6664404  0.2314402  )
        25        Si     tau(  25) = (  0.2169439  0.6664404  0.7685596  )
        26        Si     tau(  26) = (  0.7169439  0.6664404  0.7685596  )
        27        Al     tau(  27) = (  0.2026479  0.3306063  0.7720665  )
        28        Al     tau(  28) = (  0.7026479  0.3306063  0.7720665  )
        29        Al     tau(  29) = (  0.2973525  0.3306063  0.2279334  )
        30        Al     tau(  30) = (  0.7973524  0.3306063  0.2279334  )
        31        O      tau(  31) = (  0.0685997  0.1576232  0.3840956  )
        32        O      tau(  32) = (  0.5685996  0.1576232  0.3840956  )
        33        O      tau(  33) = (  0.4314007  0.1576232  0.6159044  )
        34        O      tau(  34) = (  0.9314007  0.1576232  0.6159044  )
        35        O      tau(  35) = (  0.4370030  0.8347753  0.6089946  )
        36        O      tau(  36) = (  0.9370030  0.8347753  0.6089946  )
        37        O      tau(  37) = (  0.0629973  0.8347753  0.3910053  )
        38        O      tau(  38) = (  0.5629973  0.8347753  0.3910053  )
        39        O      tau(  39) = (  0.3136107  0.6695885  0.3903406  )
        40        O      tau(  40) = (  0.8136107  0.6695885  0.3903406  )
        41        O      tau(  41) = (  0.1863896  0.6695885  0.6096593  )
        42        O      tau(  42) = (  0.6863896  0.6695885  0.6096593  )
        43        O      tau(  43) = (  0.1796070  0.3332018  0.6015063  )
        44        O      tau(  44) = (  0.6796070  0.3332018  0.6015063  )
        45        O      tau(  45) = (  0.3203934  0.3332018  0.3984935  )
        46        O      tau(  46) = (  0.8203933  0.3332018  0.3984935  )
        47        O      tau(  47) = (  0.1758320  0.2041259  0.1691474  )
        48        O      tau(  48) = (  0.6758320  0.2041259  0.1691474  )
        49        O      tau(  49) = (  0.3241684  0.2041259  0.8308524  )
        50        O      tau(  50) = (  0.8241683  0.2041259  0.8308524  )
        51        O      tau(  51) = (  0.0044672  0.9965371  0.1695325  )
        52        O      tau(  52) = (  0.5044672  0.9965371  0.1695325  )
        53        O      tau(  53) = (  0.4955331  0.9965371  0.8304673  )
        54        O      tau(  54) = (  0.9955331  0.9965371  0.8304673  )
        55        O      tau(  55) = (  0.3439404  0.7683221  0.8259019  )
        56        O      tau(  56) = (  0.8439404  0.7683221  0.8259019  )
        57        O      tau(  57) = (  0.1560599  0.7683221  0.1740980  )
        58        O      tau(  58) = (  0.6560599  0.7683221  0.1740980  )
        59        O      tau(  59) = (  0.4052421  0.7382420  0.1731385  )
        60        O      tau(  60) = (  0.9052421  0.7382420  0.1731385  )
        61        O      tau(  61) = (  0.0947582  0.7382420  0.8268614  )
        62        O      tau(  62) = (  0.5947582  0.7382420  0.8268614  )
        63        O      tau(  63) = (  0.2559565  0.5072872  0.1678532  )
        64        O      tau(  64) = (  0.7559565  0.5072872  0.1678532  )
        65        O      tau(  65) = (  0.2440438  0.5072872  0.8321466  )
        66        O      tau(  66) = (  0.7440438  0.5072872  0.8321466  )
        67        O      tau(  67) = (  0.0667992  0.2750120  0.8351769  )
        68        O      tau(  68) = (  0.5667992  0.2750120  0.8351769  )
        69        O      tau(  69) = (  0.4332011  0.2750120  0.1648230  )
        70        O      tau(  70) = (  0.9332011  0.2750120  0.1648230  )
        71        O      tau(  71) = (  0.0684395  0.5116246  0.3931678  )
        72        O      tau(  72) = (  0.5684395  0.5116246  0.3931678  )
        73        O      tau(  73) = (  0.4315608  0.5116246  0.6068321  )
        74        O      tau(  74) = (  0.9315608  0.5116246  0.6068321  )
        75        O      tau(  75) = (  0.3173051  0.9995306  0.3989219  )
        76        O      tau(  76) = (  0.8173051  0.9995306  0.3989219  )
        77        O      tau(  77) = (  0.1826953  0.9995306  0.6010780  )
        78        O      tau(  78) = (  0.6826953  0.9995306  0.6010780  )
        79        H      tau(  79) = (  0.0528041  0.4908318  0.3007595  )
        80        H      tau(  80) = (  0.5528042  0.4908318  0.3007595  )
        81        H      tau(  81) = (  0.4471962  0.4908318  0.6992404  )
        82        H      tau(  82) = (  0.9471962  0.4908318  0.6992404  )
        83        H      tau(  83) = (  0.2979428  0.0147786  0.3056454  )
        84        H      tau(  84) = (  0.7979428  0.0147786  0.3056454  )
        85        H      tau(  85) = (  0.2020575  0.0147786  0.6943545  )
        86        H      tau(  86) = (  0.7020575  0.0147786  0.6943545  )
        87        Fe1    tau(  87) = (  0.0000000  0.3356230  0.4999999  )
        88        Fe2    tau(  88) = (  0.5000000  0.3356230  0.4999999  )

     number of k points=    10  Gaussian smearing, width (Ry)=  0.0010
                       cart. coord. in units 2pi/alat
        k(    1) = (   0.0000000   0.0000000   0.0000000), wk =   0.0740741
        k(    2) = (   0.0000000   0.0000000   0.3466048), wk =   0.1481481
        k(    3) = (   0.0000000   0.3832295   0.0000000), wk =   0.1481481
        k(    4) = (   0.0000000   0.3832295   0.3466048), wk =   0.2962963
        k(    5) = (   0.3333333   0.0000000   0.0603380), wk =   0.1481481
        k(    6) = (   0.3333333   0.0000000   0.4069428), wk =   0.1481481
        k(    7) = (   0.3333333   0.0000000  -0.2862669), wk =   0.1481481
        k(    8) = (   0.3333333   0.3832295   0.0603380), wk =   0.2962963
        k(    9) = (   0.3333333   0.3832295   0.4069428), wk =   0.2962963
        k(   10) = (   0.3333333   0.3832295  -0.2862669), wk =   0.2962963

                       cryst. coord.
        k(    1) = (   0.0000000   0.0000000   0.0000000), wk =   0.0740741
        k(    2) = (   0.0000000   0.0000000   0.3333333), wk =   0.1481481
        k(    3) = (   0.0000000   0.3333333   0.0000000), wk =   0.1481481
        k(    4) = (   0.0000000   0.3333333   0.3333333), wk =   0.2962963
        k(    5) = (   0.3333333   0.0000000   0.0000000), wk =   0.1481481
        k(    6) = (   0.3333333   0.0000000   0.3333333), wk =   0.1481481
        k(    7) = (   0.3333333   0.0000000  -0.3333333), wk =   0.1481481
        k(    8) = (   0.3333333   0.3333333   0.0000000), wk =   0.2962963
        k(    9) = (   0.3333333   0.3333333   0.3333333), wk =   0.2962963
        k(   10) = (   0.3333333   0.3333333  -0.3333333), wk =   0.2962963

     Dense  grid:  1212455 G-vectors     FFT dimensions: ( 144, 125, 144)

     Smooth grid:   428701 G-vectors     FFT dimensions: ( 100,  90, 100)

     Dynamical RAM for                 wfc:      42.80 MB

     Dynamical RAM for     wfc (w. buffer):     470.75 MB

     Dynamical RAM for           str. fact:      24.67 MB

     Dynamical RAM for           local pot:       0.00 MB

     Dynamical RAM for          nlocal pot:     119.39 MB

     Dynamical RAM for                qrad:      28.13 MB

     Dynamical RAM for          rho,v,vnew:      19.14 MB

     Dynamical RAM for               rhoin:       6.38 MB

     Dynamical RAM for            rho*nmix:      49.33 MB

     Dynamical RAM for           G-vectors:      12.11 MB

     Dynamical RAM for          h,s,v(r/c):       4.51 MB

     Dynamical RAM for          <psi|beta>:       4.20 MB

     Dynamical RAM for                 psi:      85.59 MB

     Dynamical RAM for                hpsi:      85.59 MB

     Dynamical RAM for                spsi:      85.59 MB

     Dynamical RAM for      wfcinit/wfcrot:     102.83 MB

     Dynamical RAM for           addusdens:     721.52 MB

     Dynamical RAM for          addusforce:    1013.10 MB

     Dynamical RAM for         addusstress:     619.77 MB

     Estimated static dynamical RAM per process >     724.79 MB

     Estimated max dynamical RAM per process >       1.75 GB

     Estimated total dynamical RAM >      10.47 GB

     Check: negative core charge=   -0.000004

     Initial potential from superposition of free atoms

     starting charge     523.8985, renormalised to     524.0000
[miserver1:01818] 5 more processes have sent help message help-mpi-btl-openib.txt / no active ports found
[miserver1:01818] Set MCA parameter "orte_base_help_aggregate" to 0 to see all help / error messages
     Starting wfcs are  366 randomized atomic wfcs
     Checking if some PAW data can be deallocated... 
       PAW data deallocated on    5 nodes for type:  1
       PAW data deallocated on    5 nodes for type:  2
       PAW data deallocated on    5 nodes for type:  3
       PAW data deallocated on    5 nodes for type:  4
       PAW data deallocated on    5 nodes for type:  5
       PAW data deallocated on    5 nodes for type:  6
       PAW data deallocated on    2 nodes for type:  7
       PAW data deallocated on    4 nodes for type:  8

     total cpu time spent up to now is      273.2 secs

     Self-consistent Calculation

     iteration #  1     ecut=    60.00 Ry     beta= 0.70
     Davidson diagonalization with overlap

---- Real-time Memory Report at c_bands before calling an iterative solver
           863 MiB given to the printing process from OS
             0 MiB allocation reported by mallinfo(arena+hblkhd)
         10180 MiB available memory on the node where the printing process lives
------------------
     ethr =  1.00E-02,  avg # of iterations =  5.9

     total cpu time spent up to now is     1167.2 secs

     total energy              =   -5247.50792004 Ry
     estimated scf accuracy    <      24.51558346 Ry

     iteration #  2     ecut=    60.00 Ry     beta= 0.70
     Davidson diagonalization with overlap

---- Real-time Memory Report at c_bands before calling an iterative solver
          1431 MiB given to the printing process from OS
             0 MiB allocation reported by mallinfo(arena+hblkhd)
         10162 MiB available memory on the node where the printing process lives
------------------
     ethr =  4.68E-03,  avg # of iterations =  5.1

     total cpu time spent up to now is     2554.4 secs

     total energy              =   -5257.79150091 Ry
     estimated scf accuracy    <      23.46532227 Ry

     iteration #  3     ecut=    60.00 Ry     beta= 0.70
     Davidson diagonalization with overlap

---- Real-time Memory Report at c_bands before calling an iterative solver
          1433 MiB given to the printing process from OS
             0 MiB allocation reported by mallinfo(arena+hblkhd)
         10151 MiB available memory on the node where the printing process lives
------------------
     ethr =  4.48E-03,  avg # of iterations =  2.0

     total cpu time spent up to now is     3270.1 secs

     total energy              =   -5257.09191994 Ry
     estimated scf accuracy    <      58.65948326 Ry

     iteration #  4     ecut=    60.00 Ry     beta= 0.70
     Davidson diagonalization with overlap

---- Real-time Memory Report at c_bands before calling an iterative solver
          1436 MiB given to the printing process from OS
             0 MiB allocation reported by mallinfo(arena+hblkhd)
         10130 MiB available memory on the node where the printing process lives
------------------
     ethr =  4.48E-03,  avg # of iterations =  2.0

     total cpu time spent up to now is     3973.4 secs

     total energy              =   -5261.07245962 Ry
     estimated scf accuracy    <       1.85379379 Ry

     iteration #  5     ecut=    60.00 Ry     beta= 0.70
     Davidson diagonalization with overlap

---- Real-time Memory Report at c_bands before calling an iterative solver
          1438 MiB given to the printing process from OS
             0 MiB allocation reported by mallinfo(arena+hblkhd)
         10120 MiB available memory on the node where the printing process lives
------------------
     c_bands:  1 eigenvalues not converged
     c_bands:  1 eigenvalues not converged
     ethr =  3.54E-04,  avg # of iterations = 15.5

     total cpu time spent up to now is     5416.6 secs

     total energy              =   -5262.31239828 Ry
     estimated scf accuracy    <       0.31783666 Ry

     iteration #  6     ecut=    60.00 Ry     beta= 0.70
     Davidson diagonalization with overlap

---- Real-time Memory Report at c_bands before calling an iterative solver
          1441 MiB given to the printing process from OS
             0 MiB allocation reported by mallinfo(arena+hblkhd)
         10099 MiB available memory on the node where the printing process lives
------------------
     c_bands:  1 eigenvalues not converged
     c_bands:  1 eigenvalues not converged
     c_bands:  1 eigenvalues not converged
     ethr =  6.07E-05,  avg # of iterations = 15.5

     total cpu time spent up to now is     6622.4 secs

     total energy              =   -5262.34655973 Ry
     estimated scf accuracy    <       0.15798322 Ry

     iteration #  7     ecut=    60.00 Ry     beta= 0.70
     Davidson diagonalization with overlap

---- Real-time Memory Report at c_bands before calling an iterative solver
          1443 MiB given to the printing process from OS
             0 MiB allocation reported by mallinfo(arena+hblkhd)
         10056 MiB available memory on the node where the printing process lives
------------------
     ethr =  3.01E-05,  avg # of iterations =  4.9

     total cpu time spent up to now is     7391.2 secs

     total energy              =   -5262.28255360 Ry
     estimated scf accuracy    <       1.44379661 Ry

     iteration #  8     ecut=    60.00 Ry     beta= 0.70
     Davidson diagonalization with overlap

---- Real-time Memory Report at c_bands before calling an iterative solver
          1446 MiB given to the printing process from OS
             0 MiB allocation reported by mallinfo(arena+hblkhd)
         10043 MiB available memory on the node where the printing process lives
------------------
     ethr =  3.01E-05,  avg # of iterations =  2.0

     total cpu time spent up to now is     8098.5 secs

     total energy              =   -5262.35960010 Ry
     estimated scf accuracy    <       0.07291137 Ry

     iteration #  9     ecut=    60.00 Ry     beta= 0.70
     Davidson diagonalization with overlap

---- Real-time Memory Report at c_bands before calling an iterative solver
          1448 MiB given to the printing process from OS
             0 MiB allocation reported by mallinfo(arena+hblkhd)
         10027 MiB available memory on the node where the printing process lives
------------------
     c_bands:  5 eigenvalues not converged
     c_bands:  2 eigenvalues not converged
     c_bands:  3 eigenvalues not converged
     c_bands:  4 eigenvalues not converged
     c_bands:  1 eigenvalues not converged
     c_bands:  2 eigenvalues not converged
     c_bands:  1 eigenvalues not converged
     c_bands:  2 eigenvalues not converged
     ethr =  1.39E-05,  avg # of iterations = 18.7

     total cpu time spent up to now is     8975.7 secs

     total energy              =   -5262.35989350 Ry
     estimated scf accuracy    <       0.04795618 Ry

     iteration # 10     ecut=    60.00 Ry     beta= 0.70
     Davidson diagonalization with overlap

---- Real-time Memory Report at c_bands before calling an iterative solver
          1450 MiB given to the printing process from OS
             0 MiB allocation reported by mallinfo(arena+hblkhd)
         10009 MiB available memory on the node where the printing process lives
------------------
     c_bands:  1 eigenvalues not converged
     c_bands:  1 eigenvalues not converged
     c_bands:  1 eigenvalues not converged
     ethr =  9.15E-06,  avg # of iterations = 12.6

     total cpu time spent up to now is     9725.2 secs

     total energy              =   -5262.35894675 Ry
     estimated scf accuracy    <       0.03099830 Ry

     iteration # 11     ecut=    60.00 Ry     beta= 0.70
     Davidson diagonalization with overlap

---- Real-time Memory Report at c_bands before calling an iterative solver
          1450 MiB given to the printing process from OS
             0 MiB allocation reported by mallinfo(arena+hblkhd)
         10009 MiB available memory on the node where the printing process lives
------------------
     c_bands:  2 eigenvalues not converged
     ethr =  5.92E-06,  avg # of iterations =  6.7

     total cpu time spent up to now is    10461.2 secs

     total energy              =   -5262.35764144 Ry
     estimated scf accuracy    <       0.01774355 Ry

     iteration # 12     ecut=    60.00 Ry     beta= 0.70
     Davidson diagonalization with overlap

---- Real-time Memory Report at c_bands before calling an iterative solver
          1450 MiB given to the printing process from OS
             0 MiB allocation reported by mallinfo(arena+hblkhd)
         10013 MiB available memory on the node where the printing process lives
------------------
     c_bands:  2 eigenvalues not converged
     c_bands:  1 eigenvalues not converged
     c_bands:  1 eigenvalues not converged
     c_bands:  2 eigenvalues not converged
     ethr =  3.39E-06,  avg # of iterations = 15.3

     total cpu time spent up to now is    11312.3 secs

     total energy              =   -5262.35601026 Ry
     estimated scf accuracy    <       0.00752718 Ry

     iteration # 13     ecut=    60.00 Ry     beta= 0.70
     Davidson diagonalization with overlap

---- Real-time Memory Report at c_bands before calling an iterative solver
          1450 MiB given to the printing process from OS
             0 MiB allocation reported by mallinfo(arena+hblkhd)
         10012 MiB available memory on the node where the printing process lives
------------------
     c_bands:  1 eigenvalues not converged
     c_bands:  1 eigenvalues not converged
     c_bands:  1 eigenvalues not converged
     ethr =  1.44E-06,  avg # of iterations = 16.3

     total cpu time spent up to now is    12407.5 secs

     total energy              =   -5262.35799667 Ry
     estimated scf accuracy    <       0.00109580 Ry

     iteration # 14     ecut=    60.00 Ry     beta= 0.70
     Davidson diagonalization with overlap

---- Real-time Memory Report at c_bands before calling an iterative solver
          1450 MiB given to the printing process from OS
             0 MiB allocation reported by mallinfo(arena+hblkhd)
         10011 MiB available memory on the node where the printing process lives
------------------
     ethr =  2.09E-07,  avg # of iterations =  9.4

     total cpu time spent up to now is    13530.9 secs

     total energy              =   -5262.35860832 Ry
     estimated scf accuracy    <       0.00036441 Ry

     iteration # 15     ecut=    60.00 Ry     beta= 0.70
     Davidson diagonalization with overlap

---- Real-time Memory Report at c_bands before calling an iterative solver
          1450 MiB given to the printing process from OS
             0 MiB allocation reported by mallinfo(arena+hblkhd)
          9996 MiB available memory on the node where the printing process lives
------------------
     ethr =  6.95E-08,  avg # of iterations =  2.0

     total cpu time spent up to now is    14266.9 secs

     total energy              =   -5262.35862324 Ry
     estimated scf accuracy    <       0.00027636 Ry

     iteration # 16     ecut=    60.00 Ry     beta= 0.70
     Davidson diagonalization with overlap

---- Real-time Memory Report at c_bands before calling an iterative solver
          1450 MiB given to the printing process from OS
             0 MiB allocation reported by mallinfo(arena+hblkhd)
         10015 MiB available memory on the node where the printing process lives
------------------
     ethr =  5.27E-08,  avg # of iterations =  1.7

     total cpu time spent up to now is    14941.8 secs

     total energy              =   -5262.35849574 Ry
     estimated scf accuracy    <       0.00022899 Ry

     iteration # 17     ecut=    60.00 Ry     beta= 0.70
     Davidson diagonalization with overlap

---- Real-time Memory Report at c_bands before calling an iterative solver
          1450 MiB given to the printing process from OS
             0 MiB allocation reported by mallinfo(arena+hblkhd)
          9733 MiB available memory on the node where the printing process lives
------------------
     ethr =  4.37E-08,  avg # of iterations =  6.8

     total cpu time spent up to now is    15798.5 secs

     total energy              =   -5262.35853532 Ry
     estimated scf accuracy    <       0.00041045 Ry

     iteration # 18     ecut=    60.00 Ry     beta= 0.70
     Davidson diagonalization with overlap

---- Real-time Memory Report at c_bands before calling an iterative solver
          1450 MiB given to the printing process from OS
             0 MiB allocation reported by mallinfo(arena+hblkhd)
          9734 MiB available memory on the node where the printing process lives
------------------
     ethr =  4.37E-08,  avg # of iterations =  5.0

     total cpu time spent up to now is    16545.3 secs

     total energy              =   -5262.35859616 Ry
     estimated scf accuracy    <       0.00000598 Ry

     iteration # 19     ecut=    60.00 Ry     beta= 0.70
     Davidson diagonalization with overlap

---- Real-time Memory Report at c_bands before calling an iterative solver
          1450 MiB given to the printing process from OS
             0 MiB allocation reported by mallinfo(arena+hblkhd)
          9737 MiB available memory on the node where the printing process lives
------------------
     ethr =  1.14E-09,  avg # of iterations = 12.3

     total cpu time spent up to now is    18680.8 secs

     total energy              =   -5262.35860958 Ry
     estimated scf accuracy    <       0.00000115 Ry

     iteration # 20     ecut=    60.00 Ry     beta= 0.70
     Davidson diagonalization with overlap

---- Real-time Memory Report at c_bands before calling an iterative solver
          1450 MiB given to the printing process from OS
             0 MiB allocation reported by mallinfo(arena+hblkhd)
          9734 MiB available memory on the node where the printing process lives
------------------
     ethr =  2.20E-10,  avg # of iterations =  6.3

     total cpu time spent up to now is    19735.0 secs

     End of self-consistent calculation

          k = 0.0000 0.0000 0.0000 ( 53617 PWs)   bands (ev):

   -78.7841 -78.7839 -67.9656 -67.9650 -67.9506 -67.9505 -67.7426 -67.7424
   -67.4437 -67.4437 -67.2628 -67.2628 -44.9863 -44.9861 -44.9321 -44.9317
   -44.7420 -44.7420 -34.7324 -34.7281 -34.7265 -34.7207 -34.7140 -34.7119
   -34.7039 -34.7021 -34.6978 -34.6961 -34.6895 -34.6889 -34.5064 -34.5061
   -34.5003 -34.5000 -34.4763 -34.4760 -34.1987 -34.1986 -34.1945 -34.1944
   -34.1920 -34.1920 -34.0318 -34.0317 -34.0091 -34.0089 -34.0031 -34.0030
   -23.5254 -23.5249 -23.5155 -23.5151 -15.2998 -15.2555 -14.9334 -14.9006
   -14.6650 -14.6356 -14.3815 -14.3438 -14.1173 -14.0923 -13.8512 -13.8359
   -13.6733 -13.5407 -13.4873 -13.4405 -13.4001 -13.3984 -13.3101 -13.2666
   -13.2537 -13.2038 -13.1805 -13.1494 -13.1437 -13.1043 -13.0986 -13.0741
   -13.0238 -13.0021 -12.9358 -12.9178 -12.8536 -12.8037 -12.7563 -12.7063
   -12.6901 -12.6337 -12.5500 -12.5480 -12.5048 -12.4751 -12.4332 -12.4069
   -11.4551 -11.3808 -11.2372 -11.1596  -7.0810  -7.0751  -7.0623  -7.0541
    -7.0002  -6.9962  -6.9956  -6.9916  -6.9883  -6.9852  -6.9846  -6.9803
    -4.5601  -4.5193  -3.5969  -3.5391  -3.0813  -3.0204  -2.6665  -2.5846
    -2.0723  -1.9904  -1.9136  -1.6052  -1.5804  -1.4780  -1.4018  -1.3974
    -1.3286  -1.2640  -1.1821  -1.1785  -0.9830  -0.9388  -0.9195  -0.8946
    -0.8248  -0.6253  -0.5938  -0.5727  -0.5016  -0.4630  -0.4347  -0.3785
    -0.2585  -0.2519  -0.2039  -0.1406  -0.0408   0.1370   0.1553   0.1699
     0.2239   0.2825   0.2970   0.3128   0.3955   0.4186   0.4370   0.6352
     0.6372   0.7378   0.8374   0.8838   0.8860   0.9314   1.0535   1.0617
     1.1657   1.2009   1.2178   1.2357   1.2530   1.2615   1.3247   1.3903
     1.4357   1.4423   1.5340   1.5455   1.5686   1.6278   1.6987   1.8268
     1.8345   1.8518   1.9290   1.9445   1.9660   2.0014   2.0963   2.1138
     2.1435   2.1469   2.2153   2.3137   2.3345   2.3521   2.3740   2.3910
     2.4141   2.4437   2.4814   2.5078   2.5560   2.5803   2.6101   2.6131
     2.6134   2.6755   2.6981   2.7190   2.7325   2.7613   2.7955   2.8137
     2.8330   2.8735   2.9242   2.9803   2.9916   3.0358   3.0468   3.0646
     3.0911   3.1192   3.1352   3.1360   3.1468   3.1921   3.2036   3.2248
     3.2572   3.2605   3.3012   3.3103   3.3672   3.3699   3.3708   3.4611
     3.4712   3.4893   3.5181   3.5764   3.5848   3.5945   3.6468   3.6603
     3.6740   3.6851   3.7801   3.9227   3.9345   4.0727   4.1539   4.1697
     7.2263   7.2350   7.5784   7.5846   7.6208   7.6600   8.3342   8.3385
     8.6514   8.9023   9.0954  10.1847  10.6964  10.7302  10.8221  11.1347
    11.2293  11.3559  11.5129  11.5311  11.5788  11.6276  11.7731  12.0626
    12.1364  12.1608  12.1972  12.3246  12.3750  12.5785  12.5971  12.6857
    12.7212  12.7642  12.8021  12.8851  12.9290  12.9426  13.1086  13.1337
    13.1537  13.2110  13.2531  13.3622  13.3857  13.4046  13.4709  13.4789
    13.5020  13.5232  13.5791  13.5975  13.6424  13.6893  13.7044  13.8431
    13.9165  13.9192

     occupation numbers 
     1.0000   1.0000   1.0000   1.0000   1.0000   1.0000   1.0000   1.0000
     1.0000   1.0000   1.0000   1.0000   1.0000   1.0000   1.0000   1.0000
     1.0000   1.0000   1.0000   1.0000   1.0000   1.0000   1.0000   1.0000
     1.0000   1.0000   1.0000   1.0000   1.0000   1.0000   1.0000   1.0000
     1.0000   1.0000   1.0000   1.0000   1.0000   1.0000   1.0000   1.0000
     1.0000   1.0000   1.0000   1.0000   1.0000   1.0000   1.0000   1.0000
     1.0000   1.0000   1.0000   1.0000   1.0000   1.0000   1.0000   1.0000
     1.0000   1.0000   1.0000   1.0000   1.0000   1.0000   1.0000   1.0000
     1.0000   1.0000   1.0000   1.0000   1.0000   1.0000   1.0000   1.0000
     1.0000   1.0000   1.0000   1.0000   1.0000   1.0000   1.0000   1.0000
     1.0000   1.0000   1.0000   1.0000   1.0000   1.0000   1.0000   1.0000
     1.0000   1.0000   1.0000   1.0000   1.0000   1.0000   1.0000   1.0000
     1.0000   1.0000   1.0000   1.0000   1.0000   1.0000   1.0000   1.0000
     1.0000   1.0000   1.0000   1.0000   1.0000   1.0000   1.0000   1.0000
     1.0000   1.0000   1.0000   1.0000   1.0000   1.0000   1.0000   1.0000
     1.0000   1.0000   1.0000   1.0000   1.0000   1.0000   1.0000   1.0000
     1.0000   1.0000   1.0000   1.0000   1.0000   1.0000   1.0000   1.0000
     1.0000   1.0000   1.0000   1.0000   1.0000   1.0000   1.0000   1.0000
     1.0000   1.0000   1.0000   1.0000   1.0000   1.0000   1.0000   1.0000
     1.0000   1.0000   1.0000   1.0000   1.0000   1.0000   1.0000   1.0000
     1.0000   1.0000   1.0000   1.0000   1.0000   1.0000   1.0000   1.0000
     1.0000   1.0000   1.0000   1.0000   1.0000   1.0000   1.0000   1.0000
     1.0000   1.0000   1.0000   1.0000   1.0000   1.0000   1.0000   1.0000
     1.0000   1.0000   1.0000   1.0000   1.0000   1.0000   1.0000   1.0000
     1.0000   1.0000   1.0000   1.0000   1.0000   1.0000   1.0000   1.0000
     1.0000   1.0000   1.0000   1.0000   1.0000   1.0000   1.0000   1.0000
     1.0000   1.0000   1.0000   1.0000   1.0000   1.0000   1.0000   1.0000
     1.0000   1.0000   1.0000   1.0000   1.0000   1.0000   1.0000   1.0000
     1.0000   1.0000   1.0000   1.0000   1.0000   1.0000   1.0000   1.0000
     1.0000   1.0000   1.0000   1.0000   1.0000   1.0000   1.0000   1.0000
     1.0000   1.0000   1.0000   1.0000   1.0000   1.0000   1.0000   1.0000
     1.0000   1.0000   1.0000   1.0000   1.0000   1.0000   1.0000   1.0000
     1.0000   1.0000   1.0000   1.0000   1.0000   1.0000   0.0000   0.0000
     0.0000   0.0000   0.0000   0.0000   0.0000   0.0000   0.0000   0.0000
     0.0000   0.0000   0.0000   0.0000   0.0000   0.0000   0.0000   0.0000
     0.0000   0.0000   0.0000   0.0000   0.0000   0.0000   0.0000   0.0000
     0.0000   0.0000   0.0000   0.0000   0.0000   0.0000   0.0000   0.0000
     0.0000   0.0000   0.0000   0.0000   0.0000   0.0000   0.0000   0.0000
     0.0000   0.0000   0.0000   0.0000   0.0000   0.0000   0.0000   0.0000
     0.0000   0.0000

          k = 0.0000 0.0000 0.3466 ( 53576 PWs)   bands (ev):

   -78.7841 -78.7838 -67.9656 -67.9650 -67.9506 -67.9505 -67.7426 -67.7424
   -67.4437 -67.4437 -67.2628 -67.2628 -44.9863 -44.9861 -44.9321 -44.9317
   -44.7420 -44.7419 -34.7324 -34.7281 -34.7265 -34.7207 -34.7140 -34.7119
   -34.7039 -34.7021 -34.6978 -34.6961 -34.6894 -34.6889 -34.5064 -34.5061
   -34.5003 -34.5000 -34.4763 -34.4760 -34.1986 -34.1985 -34.1945 -34.1944
   -34.1920 -34.1920 -34.0318 -34.0317 -34.0091 -34.0089 -34.0031 -34.0030
   -23.5254 -23.5249 -23.5155 -23.5151 -15.2901 -15.2658 -14.9264 -14.9080
   -14.6584 -14.6423 -14.3723 -14.3535 -14.1142 -14.0955 -13.8515 -13.8356
   -13.6669 -13.5544 -13.4808 -13.4398 -13.3985 -13.3967 -13.3097 -13.2639
   -13.2544 -13.2048 -13.1870 -13.1489 -13.1399 -13.1084 -13.0915 -13.0802
   -13.0228 -12.9971 -12.9371 -12.9209 -12.8485 -12.8118 -12.7506 -12.6952
   -12.6937 -12.6434 -12.5602 -12.5325 -12.5051 -12.4682 -12.4384 -12.4133
   -11.4549 -11.3801 -11.2379 -11.1601  -7.0811  -7.0751  -7.0624  -7.0541
    -7.0002  -6.9961  -6.9956  -6.9916  -6.9883  -6.9852  -6.9845  -6.9803
    -4.5567  -4.5230  -3.5827  -3.5537  -3.0673  -3.0361  -2.6477  -2.6064
    -2.0481  -1.9794  -1.9254  -1.5962  -1.5748  -1.4806  -1.4206  -1.3760
    -1.3252  -1.2785  -1.1755  -1.1723  -0.9687  -0.9464  -0.9229  -0.8739
    -0.8408  -0.6387  -0.5787  -0.5662  -0.5112  -0.5102  -0.4356  -0.4001
    -0.2956  -0.2807  -0.1861  -0.1141  -0.0798   0.1229   0.1344   0.1894
     0.2173   0.2523   0.2932   0.3024   0.3941   0.4484   0.4637   0.6434
     0.6806   0.7600   0.8352   0.8621   0.9432   0.9857   1.0026   1.0638
     1.1146   1.1821   1.1870   1.2487   1.2693   1.3233   1.3275   1.3957
     1.4316   1.4538   1.5644   1.5864   1.6143   1.6361   1.7997   1.8057
     1.8369   1.8562   1.9121   1.9382   1.9545   2.0167   2.0793   2.0905
     2.1272   2.1593   2.1740   2.2772   2.3045   2.3227   2.3529   2.3645
     2.3874   2.4228   2.4876   2.5144   2.5331   2.5457   2.5620   2.5802
     2.6280   2.7052   2.7430   2.7501   2.7609   2.7789   2.8210   2.8217
     2.8386   2.8496   2.9039   2.9837   3.0160   3.0381   3.0637   3.0743
     3.1047   3.1265   3.1293   3.1354   3.1638   3.1885   3.1920   3.2078
     3.2361   3.2655   3.2880   3.3202   3.3676   3.3996   3.4132   3.4276
     3.4525   3.4715   3.5097   3.5309   3.5610   3.5901   3.6320   3.6607
     3.6615   3.7426   3.7781   3.9437   3.9454   4.0684   4.1524   4.1715
     7.2264   7.2340   7.5794   7.5848   7.6210   7.6583   8.3307   8.3378
     8.8958   8.9126   9.1395   9.7281  10.6208  10.8501  10.9248  11.0952
    11.1642  11.3365  11.3474  11.6407  11.6708  11.7028  11.7098  12.1124
    12.1389  12.1780  12.2550  12.2768  12.4360  12.5731  12.6599  12.6756
    12.7651  12.8122  12.8546  12.8735  12.9614  12.9685  13.0377  13.0729
    13.1131  13.1722  13.2702  13.2787  13.3104  13.4115  13.4280  13.4567
    13.4995  13.5383  13.5624  13.6353  13.6932  13.7269  13.7348  13.7677
    13.8845  13.9166

     occupation numbers 
     1.0000   1.0000   1.0000   1.0000   1.0000   1.0000   1.0000   1.0000
     1.0000   1.0000   1.0000   1.0000   1.0000   1.0000   1.0000   1.0000
     1.0000   1.0000   1.0000   1.0000   1.0000   1.0000   1.0000   1.0000
     1.0000   1.0000   1.0000   1.0000   1.0000   1.0000   1.0000   1.0000
     1.0000   1.0000   1.0000   1.0000   1.0000   1.0000   1.0000   1.0000
     1.0000   1.0000   1.0000   1.0000   1.0000   1.0000   1.0000   1.0000
     1.0000   1.0000   1.0000   1.0000   1.0000   1.0000   1.0000   1.0000
     1.0000   1.0000   1.0000   1.0000   1.0000   1.0000   1.0000   1.0000
     1.0000   1.0000   1.0000   1.0000   1.0000   1.0000   1.0000   1.0000
     1.0000   1.0000   1.0000   1.0000   1.0000   1.0000   1.0000   1.0000
     1.0000   1.0000   1.0000   1.0000   1.0000   1.0000   1.0000   1.0000
     1.0000   1.0000   1.0000   1.0000   1.0000   1.0000   1.0000   1.0000
     1.0000   1.0000   1.0000   1.0000   1.0000   1.0000   1.0000   1.0000
     1.0000   1.0000   1.0000   1.0000   1.0000   1.0000   1.0000   1.0000
     1.0000   1.0000   1.0000   1.0000   1.0000   1.0000   1.0000   1.0000
     1.0000   1.0000   1.0000   1.0000   1.0000   1.0000   1.0000   1.0000
     1.0000   1.0000   1.0000   1.0000   1.0000   1.0000   1.0000   1.0000
     1.0000   1.0000   1.0000   1.0000   1.0000   1.0000   1.0000   1.0000
     1.0000   1.0000   1.0000   1.0000   1.0000   1.0000   1.0000   1.0000
     1.0000   1.0000   1.0000   1.0000   1.0000   1.0000   1.0000   1.0000
     1.0000   1.0000   1.0000   1.0000   1.0000   1.0000   1.0000   1.0000
     1.0000   1.0000   1.0000   1.0000   1.0000   1.0000   1.0000   1.0000
     1.0000   1.0000   1.0000   1.0000   1.0000   1.0000   1.0000   1.0000
     1.0000   1.0000   1.0000   1.0000   1.0000   1.0000   1.0000   1.0000
     1.0000   1.0000   1.0000   1.0000   1.0000   1.0000   1.0000   1.0000
     1.0000   1.0000   1.0000   1.0000   1.0000   1.0000   1.0000   1.0000
     1.0000   1.0000   1.0000   1.0000   1.0000   1.0000   1.0000   1.0000
     1.0000   1.0000   1.0000   1.0000   1.0000   1.0000   1.0000   1.0000
     1.0000   1.0000   1.0000   1.0000   1.0000   1.0000   1.0000   1.0000
     1.0000   1.0000   1.0000   1.0000   1.0000   1.0000   1.0000   1.0000
     1.0000   1.0000   1.0000   1.0000   1.0000   1.0000   1.0000   1.0000
     1.0000   1.0000   1.0000   1.0000   1.0000   1.0000   1.0000   1.0000
     1.0000   1.0000   1.0000   1.0000   1.0000   1.0000   0.0000   0.0000
     0.0000   0.0000   0.0000   0.0000   0.0000   0.0000   0.0000   0.0000
     0.0000   0.0000   0.0000   0.0000   0.0000   0.0000   0.0000   0.0000
     0.0000   0.0000   0.0000   0.0000   0.0000   0.0000   0.0000   0.0000
     0.0000   0.0000   0.0000   0.0000   0.0000   0.0000   0.0000   0.0000
     0.0000   0.0000   0.0000   0.0000   0.0000   0.0000   0.0000   0.0000
     0.0000   0.0000   0.0000   0.0000   0.0000   0.0000   0.0000   0.0000
     0.0000   0.0000

          k = 0.0000 0.3832 0.0000 ( 53603 PWs)   bands (ev):

   -78.7841 -78.7839 -67.9656 -67.9650 -67.9506 -67.9505 -67.7426 -67.7424
   -67.4437 -67.4437 -67.2628 -67.2628 -44.9863 -44.9861 -44.9321 -44.9317
   -44.7421 -44.7420 -34.7324 -34.7281 -34.7265 -34.7207 -34.7140 -34.7119
   -34.7039 -34.7021 -34.6978 -34.6961 -34.6895 -34.6889 -34.5064 -34.5061
   -34.5003 -34.5000 -34.4763 -34.4760 -34.1987 -34.1986 -34.1945 -34.1945
   -34.1920 -34.1919 -34.0318 -34.0318 -34.0091 -34.0089 -34.0031 -34.0030
   -23.5253 -23.5249 -23.5156 -23.5151 -15.2949 -15.2508 -14.9325 -14.8993
   -14.6647 -14.6353 -14.4141 -14.3726 -14.1219 -14.0973 -13.8512 -13.8360
   -13.6014 -13.4815 -13.4420 -13.4327 -13.3907 -13.3813 -13.3369 -13.2625
   -13.2543 -13.1911 -13.1867 -13.1710 -13.1673 -13.1606 -13.1482 -13.0912
   -13.0167 -13.0075 -12.9306 -12.9128 -12.8539 -12.7975 -12.7490 -12.7113
   -12.6868 -12.6402 -12.5497 -12.5453 -12.4999 -12.4741 -12.4289 -12.4073
   -11.4538 -11.3806 -11.2374 -11.1591  -7.0817  -7.0728  -7.0626  -7.0566
    -6.9992  -6.9958  -6.9944  -6.9910  -6.9894  -6.9861  -6.9848  -6.9806
    -4.5205  -4.4785  -3.6081  -3.5479  -3.0950  -3.0329  -2.8167  -2.7310
    -2.0181  -1.9670  -1.8916  -1.6648  -1.5760  -1.4628  -1.3208  -1.3169
    -1.2200  -1.2017  -1.1921  -1.1831  -0.9572  -0.9319  -0.9157  -0.8933
    -0.8659  -0.5752  -0.5578  -0.5389  -0.4990  -0.4700  -0.4088  -0.3881
    -0.3089  -0.2671  -0.2670  -0.0964  -0.0535   0.1054   0.1444   0.1790
     0.2568   0.2583   0.2686   0.2842   0.3357   0.3944   0.4442   0.6159
     0.6727   0.6950   0.6965   0.8832   0.9258   1.0196   1.0337   1.0503
     1.1508   1.1629   1.2013   1.2608   1.2756   1.3018   1.3471   1.3977
     1.4308   1.4566   1.4873   1.5559   1.5725   1.6480   1.7273   1.8353
     1.8493   1.8700   1.9023   1.9304   2.0642   2.0981   2.1047   2.1287
     2.1421   2.1804   2.1980   2.2714   2.2977   2.3166   2.3440   2.3668
     2.3989   2.4366   2.5293   2.5396   2.5416   2.5667   2.6023   2.6356
     2.6630   2.6942   2.7201   2.7303   2.7515   2.7574   2.7672   2.7874
     2.8844   2.8883   2.9181   2.9288   2.9689   3.0253   3.0497   3.0543
     3.0598   3.1457   3.1541   3.1551   3.1905   3.2070   3.2089   3.2278
     3.2291   3.2715   3.3173   3.3227   3.3365   3.3442   3.3808   3.4348
     3.4454   3.5006   3.5443   3.5555   3.6079   3.6238   3.6396   3.6406
     3.6853   3.6945   3.7375   3.9097   3.9119   3.9722   4.0171   4.1660
     7.2330   7.2411   7.5768   7.5851   7.6208   7.6593   8.3106   8.3221
     8.9189   8.9734   9.1749  10.0150  10.4359  10.7842  10.8640  11.0109
    11.3055  11.3306  11.3947  11.4066  11.4907  11.8009  11.9500  11.9858
    12.0879  12.1459  12.2226  12.2538  12.3434  12.4804  12.6731  12.6874
    12.7100  12.7963  12.8878  12.9441  12.9595  12.9996  13.0399  13.1076
    13.1126  13.1906  13.2729  13.3076  13.3203  13.3749  13.4009  13.4888
    13.4980  13.6318  13.6703  13.7311  13.8200  13.8693  13.8779  13.9168
    13.9474  13.9830

     occupation numbers 
     1.0000   1.0000   1.0000   1.0000   1.0000   1.0000   1.0000   1.0000
     1.0000   1.0000   1.0000   1.0000   1.0000   1.0000   1.0000   1.0000
     1.0000   1.0000   1.0000   1.0000   1.0000   1.0000   1.0000   1.0000
     1.0000   1.0000   1.0000   1.0000   1.0000   1.0000   1.0000   1.0000
     1.0000   1.0000   1.0000   1.0000   1.0000   1.0000   1.0000   1.0000
     1.0000   1.0000   1.0000   1.0000   1.0000   1.0000   1.0000   1.0000
     1.0000   1.0000   1.0000   1.0000   1.0000   1.0000   1.0000   1.0000
     1.0000   1.0000   1.0000   1.0000   1.0000   1.0000   1.0000   1.0000
     1.0000   1.0000   1.0000   1.0000   1.0000   1.0000   1.0000   1.0000
     1.0000   1.0000   1.0000   1.0000   1.0000   1.0000   1.0000   1.0000
     1.0000   1.0000   1.0000   1.0000   1.0000   1.0000   1.0000   1.0000
     1.0000   1.0000   1.0000   1.0000   1.0000   1.0000   1.0000   1.0000
     1.0000   1.0000   1.0000   1.0000   1.0000   1.0000   1.0000   1.0000
     1.0000   1.0000   1.0000   1.0000   1.0000   1.0000   1.0000   1.0000
     1.0000   1.0000   1.0000   1.0000   1.0000   1.0000   1.0000   1.0000
     1.0000   1.0000   1.0000   1.0000   1.0000   1.0000   1.0000   1.0000
     1.0000   1.0000   1.0000   1.0000   1.0000   1.0000   1.0000   1.0000
     1.0000   1.0000   1.0000   1.0000   1.0000   1.0000   1.0000   1.0000
     1.0000   1.0000   1.0000   1.0000   1.0000   1.0000   1.0000   1.0000
     1.0000   1.0000   1.0000   1.0000   1.0000   1.0000   1.0000   1.0000
     1.0000   1.0000   1.0000   1.0000   1.0000   1.0000   1.0000   1.0000
     1.0000   1.0000   1.0000   1.0000   1.0000   1.0000   1.0000   1.0000
     1.0000   1.0000   1.0000   1.0000   1.0000   1.0000   1.0000   1.0000
     1.0000   1.0000   1.0000   1.0000   1.0000   1.0000   1.0000   1.0000
     1.0000   1.0000   1.0000   1.0000   1.0000   1.0000   1.0000   1.0000
     1.0000   1.0000   1.0000   1.0000   1.0000   1.0000   1.0000   1.0000
     1.0000   1.0000   1.0000   1.0000   1.0000   1.0000   1.0000   1.0000
     1.0000   1.0000   1.0000   1.0000   1.0000   1.0000   1.0000   1.0000
     1.0000   1.0000   1.0000   1.0000   1.0000   1.0000   1.0000   1.0000
     1.0000   1.0000   1.0000   1.0000   1.0000   1.0000   1.0000   1.0000
     1.0000   1.0000   1.0000   1.0000   1.0000   1.0000   1.0000   1.0000
     1.0000   1.0000   1.0000   1.0000   1.0000   1.0000   1.0000   1.0000
     1.0000   1.0000   1.0000   1.0000   1.0000   1.0000   0.0000   0.0000
     0.0000   0.0000   0.0000   0.0000   0.0000   0.0000   0.0000   0.0000
     0.0000   0.0000   0.0000   0.0000   0.0000   0.0000   0.0000   0.0000
     0.0000   0.0000   0.0000   0.0000   0.0000   0.0000   0.0000   0.0000
     0.0000   0.0000   0.0000   0.0000   0.0000   0.0000   0.0000   0.0000
     0.0000   0.0000   0.0000   0.0000   0.0000   0.0000   0.0000   0.0000
     0.0000   0.0000   0.0000   0.0000   0.0000   0.0000   0.0000   0.0000
     0.0000   0.0000

          k = 0.0000 0.3832 0.3466 ( 53607 PWs)   bands (ev):

   -78.7841 -78.7839 -67.9656 -67.9650 -67.9506 -67.9505 -67.7426 -67.7424
   -67.4437 -67.4437 -67.2628 -67.2628 -44.9863 -44.9861 -44.9321 -44.9317
   -44.7420 -44.7419 -34.7324 -34.7281 -34.7265 -34.7207 -34.7140 -34.7119
   -34.7039 -34.7021 -34.6978 -34.6961 -34.6894 -34.6889 -34.5064 -34.5061
   -34.5003 -34.5000 -34.4763 -34.4760 -34.1986 -34.1986 -34.1945 -34.1944
   -34.1920 -34.1919 -34.0318 -34.0317 -34.0091 -34.0089 -34.0032 -34.0030
   -23.5253 -23.5249 -23.5156 -23.5151 -15.2850 -15.2612 -14.9256 -14.9066
   -14.6582 -14.6419 -14.4045 -14.3829 -14.1177 -14.1016 -13.8516 -13.8357
   -13.5976 -13.4771 -13.4551 -13.4318 -13.3820 -13.3818 -13.3367 -13.2647
   -13.2522 -13.1932 -13.1871 -13.1778 -13.1713 -13.1491 -13.1475 -13.0922
   -13.0143 -13.0073 -12.9315 -12.9160 -12.8469 -12.8080 -12.7438 -12.6983
   -12.6917 -12.6495 -12.5588 -12.5319 -12.4989 -12.4673 -12.4340 -12.4135
   -11.4536 -11.3800 -11.2380 -11.1595  -7.0817  -7.0729  -7.0626  -7.0566
    -6.9992  -6.9957  -6.9943  -6.9910  -6.9894  -6.9860  -6.9848  -6.9806
    -4.5147  -4.4846  -3.5935  -3.5630  -3.0806  -3.0491  -2.7964  -2.7532
    -1.9970  -1.9573  -1.9016  -1.6567  -1.5720  -1.4651  -1.3200  -1.3160
    -1.2242  -1.1953  -1.1915  -1.1719  -0.9615  -0.9250  -0.9143  -0.9024
    -0.8608  -0.6130  -0.5492  -0.5152  -0.4986  -0.4684  -0.4454  -0.4110
    -0.3138  -0.2888  -0.2735  -0.1148  -0.0845   0.1142   0.1525   0.1556
     0.2397   0.2475   0.2592   0.2834   0.3410   0.4055   0.4782   0.6142
     0.6851   0.7154   0.7241   0.8569   0.9160   1.0087   1.0701   1.0953
     1.1144   1.2214   1.2222   1.2603   1.2877   1.3099   1.3578   1.4078
     1.4388   1.4547   1.5381   1.5983   1.6030   1.6273   1.7602   1.8120
     1.8123   1.8539   1.9030   1.9655   2.0207   2.0916   2.1069   2.1311
     2.1367   2.1582   2.1825   2.2612   2.2783   2.2849   2.3419   2.3489
     2.3718   2.4387   2.4999   2.5119   2.5401   2.5542   2.5612   2.6626
     2.6694   2.6937   2.7061   2.7231   2.7598   2.7842   2.8010   2.8314
     2.8481   2.8711   2.9160   2.9506   2.9917   3.0209   3.0345   3.0585
     3.0859   3.1232   3.1353   3.1785   3.1963   3.2055   3.2176   3.2372
     3.2373   3.2643   3.2974   3.3225   3.3326   3.3567   3.4155   3.4294
     3.4539   3.4806   3.5351   3.5506   3.5673   3.6169   3.6290   3.6348
     3.6689   3.7103   3.7471   3.9221   3.9400   3.9887   4.0068   4.1682
     7.2330   7.2402   7.5777   7.5854   7.6208   7.6571   8.3015   8.3197
     8.9278   9.0260   9.3850  10.0154  10.2000  10.7084  10.7668  10.9513
    11.2193  11.3834  11.3862  11.4144  11.4442  11.8009  11.8672  11.9195
    12.1388  12.2013  12.3126  12.3298  12.5042  12.6666  12.6858  12.6997
    12.7417  12.8095  12.8907  12.9496  13.0112  13.0604  13.0612  13.1553
    13.2013  13.2130  13.2374  13.2724  13.3752  13.4053  13.4323  13.4496
    13.5089  13.5425  13.6258  13.7058  13.7093  13.7221  13.7869  13.8678
    13.8807  13.9344

     occupation numbers 
     1.0000   1.0000   1.0000   1.0000   1.0000   1.0000   1.0000   1.0000
     1.0000   1.0000   1.0000   1.0000   1.0000   1.0000   1.0000   1.0000
     1.0000   1.0000   1.0000   1.0000   1.0000   1.0000   1.0000   1.0000
     1.0000   1.0000   1.0000   1.0000   1.0000   1.0000   1.0000   1.0000
     1.0000   1.0000   1.0000   1.0000   1.0000   1.0000   1.0000   1.0000
     1.0000   1.0000   1.0000   1.0000   1.0000   1.0000   1.0000   1.0000
     1.0000   1.0000   1.0000   1.0000   1.0000   1.0000   1.0000   1.0000
     1.0000   1.0000   1.0000   1.0000   1.0000   1.0000   1.0000   1.0000
     1.0000   1.0000   1.0000   1.0000   1.0000   1.0000   1.0000   1.0000
     1.0000   1.0000   1.0000   1.0000   1.0000   1.0000   1.0000   1.0000
     1.0000   1.0000   1.0000   1.0000   1.0000   1.0000   1.0000   1.0000
     1.0000   1.0000   1.0000   1.0000   1.0000   1.0000   1.0000   1.0000
     1.0000   1.0000   1.0000   1.0000   1.0000   1.0000   1.0000   1.0000
     1.0000   1.0000   1.0000   1.0000   1.0000   1.0000   1.0000   1.0000
     1.0000   1.0000   1.0000   1.0000   1.0000   1.0000   1.0000   1.0000
     1.0000   1.0000   1.0000   1.0000   1.0000   1.0000   1.0000   1.0000
     1.0000   1.0000   1.0000   1.0000   1.0000   1.0000   1.0000   1.0000
     1.0000   1.0000   1.0000   1.0000   1.0000   1.0000   1.0000   1.0000
     1.0000   1.0000   1.0000   1.0000   1.0000   1.0000   1.0000   1.0000
     1.0000   1.0000   1.0000   1.0000   1.0000   1.0000   1.0000   1.0000
     1.0000   1.0000   1.0000   1.0000   1.0000   1.0000   1.0000   1.0000
     1.0000   1.0000   1.0000   1.0000   1.0000   1.0000   1.0000   1.0000
     1.0000   1.0000   1.0000   1.0000   1.0000   1.0000   1.0000   1.0000
     1.0000   1.0000   1.0000   1.0000   1.0000   1.0000   1.0000   1.0000
     1.0000   1.0000   1.0000   1.0000   1.0000   1.0000   1.0000   1.0000
     1.0000   1.0000   1.0000   1.0000   1.0000   1.0000   1.0000   1.0000
     1.0000   1.0000   1.0000   1.0000   1.0000   1.0000   1.0000   1.0000
     1.0000   1.0000   1.0000   1.0000   1.0000   1.0000   1.0000   1.0000
     1.0000   1.0000   1.0000   1.0000   1.0000   1.0000   1.0000   1.0000
     1.0000   1.0000   1.0000   1.0000   1.0000   1.0000   1.0000   1.0000
     1.0000   1.0000   1.0000   1.0000   1.0000   1.0000   1.0000   1.0000
     1.0000   1.0000   1.0000   1.0000   1.0000   1.0000   1.0000   1.0000
     1.0000   1.0000   1.0000   1.0000   1.0000   1.0000   0.0000   0.0000
     0.0000   0.0000   0.0000   0.0000   0.0000   0.0000   0.0000   0.0000
     0.0000   0.0000   0.0000   0.0000   0.0000   0.0000   0.0000   0.0000
     0.0000   0.0000   0.0000   0.0000   0.0000   0.0000   0.0000   0.0000
     0.0000   0.0000   0.0000   0.0000   0.0000   0.0000   0.0000   0.0000
     0.0000   0.0000   0.0000   0.0000   0.0000   0.0000   0.0000   0.0000
     0.0000   0.0000   0.0000   0.0000   0.0000   0.0000   0.0000   0.0000
     0.0000   0.0000

          k = 0.3333 0.0000 0.0603 ( 53607 PWs)   bands (ev):

   -78.7841 -78.7839 -67.9656 -67.9650 -67.9506 -67.9505 -67.7426 -67.7424
   -67.4437 -67.4437 -67.2628 -67.2628 -44.9863 -44.9861 -44.9321 -44.9317
   -44.7420 -44.7420 -34.7318 -34.7299 -34.7243 -34.7218 -34.7134 -34.7124
   -34.7036 -34.7025 -34.6973 -34.6965 -34.6893 -34.6890 -34.5064 -34.5061
   -34.5003 -34.5000 -34.4763 -34.4760 -34.1986 -34.1986 -34.1945 -34.1944
   -34.1920 -34.1920 -34.0318 -34.0318 -34.0090 -34.0090 -34.0031 -34.0030
   -23.5252 -23.5250 -23.5154 -23.5152 -15.2421 -15.1989 -15.0837 -15.0442
   -14.5128 -14.4845 -14.3982 -14.3640 -14.0921 -14.0667 -13.9673 -13.9451
   -13.6140 -13.5222 -13.4719 -13.4352 -13.3890 -13.3813 -13.3344 -13.3259
   -13.2697 -13.2617 -13.1614 -13.1151 -13.1100 -13.0929 -13.0921 -13.0832
   -13.0021 -12.9932 -12.9302 -12.9239 -12.8253 -12.7727 -12.7669 -12.7076
   -12.6872 -12.6225 -12.6183 -12.5773 -12.4912 -12.4787 -12.4169 -12.4075
   -11.4400 -11.4044 -11.2122 -11.1749  -7.0792  -7.0762  -7.0604  -7.0563
    -6.9989  -6.9967  -6.9952  -6.9929  -6.9869  -6.9854  -6.9842  -6.9820
    -4.4013  -4.3556  -3.9846  -3.9253  -2.7769  -2.6756  -2.6336  -2.5494
    -2.0754  -2.0677  -1.9261  -1.6992  -1.6619  -1.6383  -1.5753  -1.5083
    -1.1307  -1.1282  -1.0933  -1.0653  -0.9989  -0.9776  -0.9365  -0.9124
    -0.7935  -0.6574  -0.5877  -0.5679  -0.5371  -0.4743  -0.4247  -0.3839
    -0.3023  -0.2027  -0.1403  -0.1192  -0.0547   0.0018   0.1443   0.1470
     0.2340   0.2560   0.3414   0.3473   0.3970   0.3980   0.4632   0.5078
     0.7721   0.8033   0.8264   0.9017   0.9299   1.0117   1.0528   1.0575
     1.1194   1.1694   1.2094   1.2361   1.2859   1.3011   1.3110   1.3591
     1.3811   1.4184   1.4599   1.5464   1.6485   1.6825   1.7152   1.7476
     1.7874   1.8284   1.9979   2.0232   2.0484   2.0675   2.1040   2.1070
     2.1176   2.1885   2.2090   2.2980   2.3419   2.3591   2.3681   2.3923
     2.4035   2.4147   2.4159   2.4593   2.5201   2.5382   2.5955   2.6246
     2.6279   2.6494   2.6760   2.6977   2.7814   2.8103   2.8371   2.8468
     2.8711   2.9100   2.9251   2.9399   2.9433   3.0042   3.0066   3.0222
     3.0427   3.1087   3.1428   3.1558   3.1584   3.1856   3.2216   3.2443
     3.2557   3.2585   3.3215   3.3306   3.3492   3.4106   3.4259   3.4422
     3.4749   3.4927   3.5057   3.5396   3.5570   3.6148   3.6204   3.6530
     3.6712   3.7496   3.7948   3.9096   3.9268   4.0311   4.0978   4.1384
     7.2288   7.2331   7.5940   7.5984   7.6125   7.6398   8.3349   8.3372
     8.8452   8.9074   9.1898   9.8524  10.3675  10.7897  10.9084  11.0661
    11.2822  11.5240  11.5504  11.6011  11.6690  11.7641  11.8664  11.9582
    12.1507  12.3109  12.3113  12.3235  12.3602  12.5350  12.5936  12.6255
    12.7268  12.7534  12.8049  12.8351  12.9103  12.9177  13.1428  13.1485
    13.1654  13.1665  13.2092  13.2578  13.2927  13.3036  13.3133  13.3582
    13.4586  13.5573  13.6433  13.6950  13.7207  13.7898  13.8056  13.8850
    13.9736  13.9984

     occupation numbers 
     1.0000   1.0000   1.0000   1.0000   1.0000   1.0000   1.0000   1.0000
     1.0000   1.0000   1.0000   1.0000   1.0000   1.0000   1.0000   1.0000
     1.0000   1.0000   1.0000   1.0000   1.0000   1.0000   1.0000   1.0000
     1.0000   1.0000   1.0000   1.0000   1.0000   1.0000   1.0000   1.0000
     1.0000   1.0000   1.0000   1.0000   1.0000   1.0000   1.0000   1.0000
     1.0000   1.0000   1.0000   1.0000   1.0000   1.0000   1.0000   1.0000
     1.0000   1.0000   1.0000   1.0000   1.0000   1.0000   1.0000   1.0000
     1.0000   1.0000   1.0000   1.0000   1.0000   1.0000   1.0000   1.0000
     1.0000   1.0000   1.0000   1.0000   1.0000   1.0000   1.0000   1.0000
     1.0000   1.0000   1.0000   1.0000   1.0000   1.0000   1.0000   1.0000
     1.0000   1.0000   1.0000   1.0000   1.0000   1.0000   1.0000   1.0000
     1.0000   1.0000   1.0000   1.0000   1.0000   1.0000   1.0000   1.0000
     1.0000   1.0000   1.0000   1.0000   1.0000   1.0000   1.0000   1.0000
     1.0000   1.0000   1.0000   1.0000   1.0000   1.0000   1.0000   1.0000
     1.0000   1.0000   1.0000   1.0000   1.0000   1.0000   1.0000   1.0000
     1.0000   1.0000   1.0000   1.0000   1.0000   1.0000   1.0000   1.0000
     1.0000   1.0000   1.0000   1.0000   1.0000   1.0000   1.0000   1.0000
     1.0000   1.0000   1.0000   1.0000   1.0000   1.0000   1.0000   1.0000
     1.0000   1.0000   1.0000   1.0000   1.0000   1.0000   1.0000   1.0000
     1.0000   1.0000   1.0000   1.0000   1.0000   1.0000   1.0000   1.0000
     1.0000   1.0000   1.0000   1.0000   1.0000   1.0000   1.0000   1.0000
     1.0000   1.0000   1.0000   1.0000   1.0000   1.0000   1.0000   1.0000
     1.0000   1.0000   1.0000   1.0000   1.0000   1.0000   1.0000   1.0000
     1.0000   1.0000   1.0000   1.0000   1.0000   1.0000   1.0000   1.0000
     1.0000   1.0000   1.0000   1.0000   1.0000   1.0000   1.0000   1.0000
     1.0000   1.0000   1.0000   1.0000   1.0000   1.0000   1.0000   1.0000
     1.0000   1.0000   1.0000   1.0000   1.0000   1.0000   1.0000   1.0000
     1.0000   1.0000   1.0000   1.0000   1.0000   1.0000   1.0000   1.0000
     1.0000   1.0000   1.0000   1.0000   1.0000   1.0000   1.0000   1.0000
     1.0000   1.0000   1.0000   1.0000   1.0000   1.0000   1.0000   1.0000
     1.0000   1.0000   1.0000   1.0000   1.0000   1.0000   1.0000   1.0000
     1.0000   1.0000   1.0000   1.0000   1.0000   1.0000   1.0000   1.0000
     1.0000   1.0000   1.0000   1.0000   1.0000   1.0000   0.0000   0.0000
     0.0000   0.0000   0.0000   0.0000   0.0000   0.0000   0.0000   0.0000
     0.0000   0.0000   0.0000   0.0000   0.0000   0.0000   0.0000   0.0000
     0.0000   0.0000   0.0000   0.0000   0.0000   0.0000   0.0000   0.0000
     0.0000   0.0000   0.0000   0.0000   0.0000   0.0000   0.0000   0.0000
     0.0000   0.0000   0.0000   0.0000   0.0000   0.0000   0.0000   0.0000
     0.0000   0.0000   0.0000   0.0000   0.0000   0.0000   0.0000   0.0000
     0.0000   0.0000

          k = 0.3333 0.0000 0.4069 ( 53609 PWs)   bands (ev):

   -78.7841 -78.7839 -67.9656 -67.9650 -67.9506 -67.9505 -67.7426 -67.7424
   -67.4437 -67.4437 -67.2628 -67.2628 -44.9863 -44.9861 -44.9321 -44.9317
   -44.7420 -44.7419 -34.7318 -34.7299 -34.7243 -34.7218 -34.7135 -34.7124
   -34.7036 -34.7026 -34.6973 -34.6965 -34.6893 -34.6890 -34.5064 -34.5061
   -34.5003 -34.5000 -34.4763 -34.4760 -34.1986 -34.1986 -34.1945 -34.1945
   -34.1920 -34.1920 -34.0318 -34.0318 -34.0090 -34.0090 -34.0031 -34.0030
   -23.5252 -23.5250 -23.5154 -23.5152 -15.2298 -15.2119 -15.0794 -15.0486
   -14.5053 -14.4922 -14.3893 -14.3733 -14.0884 -14.0705 -13.9638 -13.9487
   -13.6084 -13.5208 -13.4852 -13.4295 -13.3913 -13.3762 -13.3389 -13.3148
   -13.2766 -13.2625 -13.1600 -13.1144 -13.1066 -13.0948 -13.0944 -13.0848
   -13.0023 -12.9893 -12.9324 -12.9268 -12.8173 -12.7768 -12.7674 -12.7131
   -12.6737 -12.6333 -12.6139 -12.5812 -12.4841 -12.4721 -12.4237 -12.4132
   -11.4396 -11.4039 -11.2127 -11.1755  -7.0793  -7.0763  -7.0605  -7.0563
    -6.9989  -6.9967  -6.9952  -6.9929  -6.9869  -6.9853  -6.9841  -6.9820
    -4.4029  -4.3542  -3.9591  -3.9515  -2.7687  -2.6853  -2.6165  -2.5699
    -2.0575  -2.0492  -1.9380  -1.7285  -1.6566  -1.6182  -1.5617  -1.5063
    -1.1283  -1.1186  -1.0921  -1.0716  -0.9995  -0.9646  -0.9359  -0.9270
    -0.7709  -0.6611  -0.5929  -0.5621  -0.5187  -0.5115  -0.4985  -0.4239
    -0.2998  -0.1744  -0.1660  -0.0980  -0.0833   0.0347   0.0939   0.1009
     0.2484   0.2563   0.3270   0.3500   0.3781   0.4272   0.4712   0.5576
[...]
     atom    5 type  6   force =    -0.00000001    0.00067773    0.00000000
     atom    6 type  6   force =    -0.00000000    0.00067782    0.00000000
     atom    7 type  6   force =    -0.00000001   -0.00157084   -0.00000000
     atom    8 type  6   force =    -0.00000001   -0.00156932   -0.00000000
     atom    9 type  6   force =    -0.00000054   -0.00081515   -0.00000065
     atom   10 type  6   force =     0.00000055   -0.00081515    0.00000065
     atom   11 type  6   force =    -0.00000007    0.00117403    0.00000027
     atom   12 type  6   force =     0.00000008    0.00117403   -0.00000027
     atom   13 type  6   force =     0.00000005   -0.00003747    0.00000010
     atom   14 type  6   force =    -0.00000004   -0.00003747   -0.00000010
     atom   15 type  8   force =    -0.00000564   -0.00004207   -0.00007877
     atom   16 type  8   force =    -0.00000561   -0.00004221   -0.00007882
     atom   17 type  8   force =     0.00000561   -0.00004221    0.00007883
     atom   18 type  8   force =     0.00000565   -0.00004207    0.00007877
     atom   19 type  8   force =     0.00003494   -0.00004243    0.00014395
     atom   20 type  8   force =     0.00003497   -0.00004245    0.00014394
     atom   21 type  8   force =    -0.00003496   -0.00004245   -0.00014394
     atom   22 type  8   force =    -0.00003493   -0.00004243   -0.00014395
     atom   23 type  8   force =    -0.00013793    0.00012953   -0.00017320
     atom   24 type  8   force =    -0.00013790    0.00012956   -0.00017323
     atom   25 type  8   force =     0.00013790    0.00012956    0.00017323
     atom   26 type  8   force =     0.00013794    0.00012953    0.00017320
     atom   27 type  1   force =     0.00004232    0.00007265   -0.00099088
     atom   28 type  1   force =     0.00004238    0.00007252   -0.00099074
     atom   29 type  1   force =    -0.00004238    0.00007252    0.00099074
     atom   30 type  1   force =    -0.00004232    0.00007265    0.00099088
     atom   31 type  7   force =    -0.00000229   -0.00001117    0.00048030
     atom   32 type  7   force =    -0.00000228   -0.00001123    0.00048039
     atom   33 type  7   force =     0.00000228   -0.00001123   -0.00048039
     atom   34 type  7   force =     0.00000229   -0.00001116   -0.00048031
     atom   35 type  7   force =    -0.00001322    0.00001860   -0.00037051
     atom   36 type  7   force =    -0.00001316    0.00001854   -0.00037040
     atom   37 type  7   force =     0.00001316    0.00001854    0.00037040
     atom   38 type  7   force =     0.00001322    0.00001860    0.00037051
     atom   39 type  7   force =    -0.00000196   -0.00005493    0.00041175
     atom   40 type  7   force =    -0.00000210   -0.00005473    0.00041143
     atom   41 type  7   force =     0.00000210   -0.00005473   -0.00041143
     atom   42 type  7   force =     0.00000196   -0.00005493   -0.00041175
     atom   43 type  7   force =     0.00003515   -0.00003507    0.00008579
     atom   44 type  7   force =     0.00003504   -0.00003486    0.00008554
     atom   45 type  7   force =    -0.00003504   -0.00003486   -0.00008554
     atom   46 type  7   force =    -0.00003515   -0.00003507   -0.00008579
     atom   47 type  7   force =    -0.00019260    0.00105678    0.00020976
     atom   48 type  7   force =    -0.00019265    0.00105690    0.00020973
     atom   49 type  7   force =     0.00019266    0.00105690   -0.00020973
     atom   50 type  7   force =     0.00019260    0.00105678   -0.00020976
     atom   51 type  7   force =     0.00080815    0.00008806    0.00019316
     atom   52 type  7   force =     0.00080816    0.00008805    0.00019314
     atom   53 type  7   force =    -0.00080816    0.00008805   -0.00019314
     atom   54 type  7   force =    -0.00080816    0.00008806   -0.00019315
     atom   55 type  7   force =     0.00038042   -0.00057026   -0.00011572
     atom   56 type  7   force =     0.00038045   -0.00057031   -0.00011573
     atom   57 type  7   force =    -0.00038045   -0.00057031    0.00011573
     atom   58 type  7   force =    -0.00038043   -0.00057026    0.00011572
     atom   59 type  7   force =    -0.00025144    0.00038756    0.00012472
     atom   60 type  7   force =    -0.00025141    0.00038749    0.00012472
     atom   61 type  7   force =     0.00025141    0.00038748   -0.00012472
     atom   62 type  7   force =     0.00025144    0.00038755   -0.00012472
     atom   63 type  7   force =     0.00088172   -0.00045572    0.00045016
     atom   64 type  7   force =     0.00088174   -0.00045572    0.00045018
     atom   65 type  7   force =    -0.00088174   -0.00045572   -0.00045018
     atom   66 type  7   force =    -0.00088172   -0.00045572   -0.00045016
     atom   67 type  7   force =     0.00071815   -0.00069908   -0.00031082
     atom   68 type  7   force =     0.00071803   -0.00069881   -0.00031105
     atom   69 type  7   force =    -0.00071802   -0.00069881    0.00031105
     atom   70 type  7   force =    -0.00071815   -0.00069908    0.00031082
     atom   71 type  7   force =     0.00007533    0.00013542   -0.00052290
     atom   72 type  7   force =     0.00007528    0.00013555   -0.00052188
     atom   73 type  7   force =    -0.00007528    0.00013555    0.00052188
     atom   74 type  7   force =    -0.00007533    0.00013542    0.00052290
     atom   75 type  7   force =     0.00002173    0.00004614   -0.00048613
     atom   76 type  7   force =     0.00002164    0.00004616   -0.00048627
     atom   77 type  7   force =    -0.00002165    0.00004616    0.00048627
     atom   78 type  7   force =    -0.00002173    0.00004614    0.00048613
     atom   79 type  4   force =     0.00020806    0.00045493   -0.00012445
     atom   80 type  4   force =     0.00020780    0.00045412   -0.00012582
     atom   81 type  4   force =    -0.00020780    0.00045412    0.00012582
     atom   82 type  4   force =    -0.00020806    0.00045493    0.00012445
     atom   83 type  4   force =     0.00007189   -0.00051742   -0.00023800
     atom   84 type  4   force =     0.00007195   -0.00051763   -0.00023754
     atom   85 type  4   force =    -0.00007196   -0.00051763    0.00023753
     atom   86 type  4   force =    -0.00007189   -0.00051742    0.00023799
     atom   87 type  2   force =    -0.00000001    0.00035646   -0.00000000
     atom   88 type  3   force =    -0.00000001    0.00035604   -0.00000000

     Total force =     0.005669     Total SCF correction =     0.000206

     DFT-D3 dispersion Force =     0.006503


     Computing stress (Cartesian axis) and pressure

          total   stress  (Ry/bohr**3)                   (kbar)     P=       -0.27
  -0.00000076   0.00000000  -0.00000039           -0.11        0.00       -0.06
   0.00000000  -0.00000157   0.00000000            0.00       -0.23        0.00
  -0.00000039   0.00000000  -0.00000321           -0.06        0.00       -0.47

     kinetic stress (kbar)  20406.89      0.00     -3.34
                                0.00  20394.95      0.00
                               -3.34      0.00  20114.42

     local   stress (kbar) -42288.72      0.00      7.95
                                0.00 -41742.68     -0.00
                                7.95     -0.00  20739.14

     nonloc. stress (kbar)   3840.02      0.00     -4.51
                                0.00   3840.37      0.00
                               -4.51      0.00   3824.73

     hartree stress (kbar)  23776.14     -0.00     -2.01
                               -0.00  23502.37      0.00
                               -2.01      0.00  -7049.00

     exc-cor stress (kbar)  -2855.60      0.00      0.12
                                0.00  -2855.47      0.00
                                0.12      0.00  -2852.46

     corecor stress (kbar)  -1882.91     -0.00      0.26
                               -0.00  -1882.97     -0.00
                                0.26     -0.00  -1884.56

     ewald   stress (kbar)   -980.80     -0.00      1.44
                               -0.00  -1241.59      0.00
                                1.44      0.00 -32881.58

     hubbard stress (kbar)      0.00      0.00      0.00
                                0.00      0.00      0.00
                                0.00      0.00      0.00

     DFT-D   stress (kbar)    -15.14      0.00      0.04
                                0.00    -15.21      0.00
                                0.04      0.00    -11.16

     XDM     stress (kbar)      0.00      0.00      0.00
                                0.00      0.00      0.00
                                0.00      0.00      0.00

     dft-nl  stress (kbar)      0.00      0.00      0.00
                                0.00      0.00      0.00
                                0.00      0.00      0.00

     TS-vdW  stress (kbar)      0.00      0.00      0.00
                                0.00      0.00      0.00
                                0.00      0.00      0.00

     MDB     stress (kbar)      0.00      0.00      0.00
                                0.00      0.00      0.00
                                0.00      0.00      0.00

     3D-RISM stress (kbar)      0.00      0.00      0.00
                                0.00      0.00      0.00
                                0.00      0.00      0.00

     Energy error            =      3.8E-05 Ry
     Gradient error          =      1.5E-03 Ry/Bohr
     Cell gradient error     =      4.7E-01 kbar

     number of scf cycles    =  21
     number of bfgs steps    =  20

     enthalpy           old  =   -5262.4118825011 Ry
     enthalpy           new  =   -5262.4119207769 Ry

     CASE: enthalpy          _new < enthalpy          _old

     new trust radius        =       0.0040919763 bohr
ibrav =    -12
 celldm(1) =     20.05649222
 celldm(2) =      0.86517508
 celldm(3) =      0.98100234
 celldm(5) =     -0.17298399
Input lattice vectors:
     0.99609661     0.00000000    -0.00002088
     0.00000000     0.86179797     0.00000000
    -0.16901512     0.00000000     0.96244542
New lattice vectors in INITIAL alat:
     0.99609661     0.00000000     0.00000000
     0.00000000     0.86179797     0.00000000
    -0.16903530     0.00000000     0.96244187
New lattice vectors in NEW alat (for information only):
     1.00000000     0.00000000     0.00000000
     0.00000000     0.86517508     0.00000000
    -0.16969770     0.00000000     0.96621337
Discrepancy in bohr =     0.000021    0.000000    0.000020
     new conv_thr            =       0.0000000152 Ry

     new unit-cell volume =   6744.37927 a.u.^3 (   999.41390 Ang^3 )
     density =      2.87794 g/cm^3

CELL_PARAMETERS (alat= 20.13508722)
   0.996096615   0.000000000   0.000000000
   0.000000000   0.861797969   0.000000000
  -0.169035300   0.000000000   0.962441872

ATOMIC_POSITIONS (crystal)
K                0.0000000000        0.4972810628        0.0000000000
K                0.5000000000        0.4972822078        0.0000000000
K                0.2499995034        0.0048869438        0.0000003201
K                0.7500006166        0.0048869438       -0.0000003201
Mg               0.0000000000        0.0088820742        0.4999999400
Mg               0.5000000000        0.0088836226        0.4999999400
Mg               0.0000000000        0.6615764446        0.4999999400
Mg               0.5000000000        0.6615740690        0.4999999400
Mg               0.2500016450        0.4902412713        0.5000001141
Mg               0.7499986230        0.4902412713        0.4999997659
Mg               0.2500004129        0.8349854360        0.5000000937
Mg               0.7499998551        0.8349854360        0.4999997863
Mg               0.2500006801        0.1745087601        0.4999999727
Mg               0.7499995879        0.1745087601        0.4999999073
Si               0.0453560995        0.1682054320        0.2274185530
Si               0.5453566385        0.1682053242        0.2274185092
Si               0.4546436595        0.1682053242        0.7725814018
Si               0.9546442015        0.1682054320        0.7725813580
Si               0.4665901929        0.8356090200        0.7659183539
Si               0.9665900906        0.8356086514        0.7659185381
Si               0.0334102004        0.8356086514        0.2340813429
Si               0.5334101351        0.8356090200        0.2340815271
Si               0.2825846334        0.6670791222        0.2309527524
Si               0.7825849428        0.6670782783        0.2309524462
Si               0.2174153552        0.6670782783        0.7690474348
Si               0.7174156646        0.6670791222        0.7690471286
Al               0.2031568213        0.3322772640        0.7718037586
Al               0.7031567614        0.3322770057        0.7718035214
Al               0.2968435666        0.3322770057        0.2281963446
Al               0.7968434917        0.3322772640        0.2281961074
O                0.0646460064        0.1682045563        0.3870462021
O                0.5646466763        0.1682048203        0.3870472509
O                0.4353536217        0.1682048203        0.6129526901
O                0.9353543146        0.1682045563        0.6129537389
O                0.4372118925        0.8322927451        0.6080309591
O                0.9372111683        0.8322914581        0.6080312137
O                0.0627891887        0.8322914581        0.3919686963
O                0.5627884355        0.8322927451        0.3919689509
O                0.3122290863        0.6674583145        0.3898312435
O                0.8122299830        0.6674570556        0.3898314728
O                0.1877702700        0.6674570556        0.6101684372
O                0.6877711817        0.6674583145        0.6101686665
O                0.1791187716        0.3330982214        0.6027122975
O                0.6791197181        0.3330977801        0.6027109769
O                0.3208806099        0.3330977801        0.3972888441
O                0.8208815114        0.3330982214        0.3972875235
O                0.1763785270        0.2024738104        0.1712002513
O                0.6763785718        0.2024749454        0.1711997426
O                0.3236217562        0.2024749454        0.8288000784
O                0.8236217560        0.2024738104        0.8287995697
O                0.0007708454        0.9998498589        0.1747293516
O                0.5007709033        0.9998501058        0.1747280043
O                0.4992294247        0.9998501058        0.8252718757
O                0.9992295086        0.9998498589        0.8252705284
O                0.3417690693        0.7745336456        0.8255975769
O                0.8417690362        0.7745340712        0.8255979117
O                0.1582312918        0.7745340712        0.1744019843
O                0.6582312287        0.7745336456        0.1744023191
O                0.4074495806        0.7357692825        0.1733616453
O                0.9074493549        0.7357700806        0.1733616284
O                0.0925509501        0.7357700806        0.8266382526
O                0.5925507174        0.7357692825        0.8266382357
O                0.2512414825        0.5084175295        0.1656177689
O                0.7512417978        0.5084174325        0.1656168456
O                0.2487585152        0.5084174325        0.8343830204
O                0.7487587855        0.5084175295        0.8343820971
O                0.0660080018        0.2813515978        0.8365527863
O                0.5660075275        0.2813514921        0.8365527974
O                0.4339927995        0.2813514921        0.1634470986
O                0.9339922962        0.2813515978        0.1634471097
O                0.0638588256        0.4960373903        0.3979334950
O                0.5638595956        0.4960386424        0.3979369919
O                0.4361407024        0.4960386424        0.6020629191
O                0.9361414724        0.4960373903        0.6020664160
O                0.3168797513        1.0001450567        0.3997399605
O                0.8168796154        1.0001455243        0.3997366306
O                0.1831207566        1.0001455243        0.6002632504
O                0.6831205767        1.0001450567        0.6002599205
H                0.0440162348        0.4769880750        0.3050831920
H                0.5440133917        0.4769875948        0.3050811451
H                0.4559869663        0.4769875948        0.6949187659
H                0.9559840972        0.4769880750        0.6949167190
H                0.2994783564        0.0174004097        0.3067349878
H                0.7994793328        0.0173995005        0.3067375621
H                0.2005209512        0.0173995005        0.6932623189
H                0.7005219706        0.0174004097        0.6932648932
Fe1              0.0000000000        0.3332504718        0.4999999400
Fe2              0.5000000000        0.3332487360        0.4999999400



     Writing config-only to output data dir ./temp/phl-fe1-fe2x2.save/ :
     XML data file
     NEW-OLD atomic charge density approx. for the potential

     Check: negative core charge=   -0.000004

     total cpu time spent up to now is   246205.6 secs

     Self-consistent Calculation

     iteration #  1     ecut=    60.00 Ry     beta= 0.70
     Davidson diagonalization with overlap

---- Real-time Memory Report at c_bands before calling an iterative solver
          1510 MiB given to the printing process from OS
             0 MiB allocation reported by mallinfo(arena+hblkhd)
          9756 MiB available memory on the node where the printing process lives
------------------
     ethr =  1.00E-06,  avg # of iterations =  3.0

     Threshold (ethr) on eigenvalues was too large:
     Diagonalizing with lowered threshold

     Davidson diagonalization with overlap

---- Real-time Memory Report at c_bands before calling an iterative solver
          1510 MiB given to the printing process from OS
             0 MiB allocation reported by mallinfo(arena+hblkhd)
          9626 MiB available memory on the node where the printing process lives
------------------
     ethr =  4.58E-09,  avg # of iterations = 16.9

     total cpu time spent up to now is   249736.6 secs

     total energy              =   -5262.41194806 Ry
     estimated scf accuracy    <       0.00002233 Ry

     iteration #  2     ecut=    60.00 Ry     beta= 0.70
     Davidson diagonalization with overlap

---- Real-time Memory Report at c_bands before calling an iterative solver
          1510 MiB given to the printing process from OS
             0 MiB allocation reported by mallinfo(arena+hblkhd)
          9768 MiB available memory on the node where the printing process lives
------------------
     ethr =  4.26E-09,  avg # of iterations =  2.0

     total cpu time spent up to now is   250578.6 secs

     total energy              =   -5262.41195184 Ry
     estimated scf accuracy    <       0.00000336 Ry

     iteration #  3     ecut=    60.00 Ry     beta= 0.70
     Davidson diagonalization with overlap

---- Real-time Memory Report at c_bands before calling an iterative solver
          1510 MiB given to the printing process from OS
             0 MiB allocation reported by mallinfo(arena+hblkhd)
          9754 MiB available memory on the node where the printing process lives
------------------
     ethr =  6.41E-10,  avg # of iterations =  5.9

     total cpu time spent up to now is   251490.7 secs

     total energy              =   -5262.41195245 Ry
     estimated scf accuracy    <       0.00000437 Ry

     iteration #  4     ecut=    60.00 Ry     beta= 0.70
     Davidson diagonalization with overlap

---- Real-time Memory Report at c_bands before calling an iterative solver
          1510 MiB given to the printing process from OS
             0 MiB allocation reported by mallinfo(arena+hblkhd)
          9739 MiB available memory on the node where the printing process lives
------------------
