--------------------------------------------------------------------------
WARNING: There is at least non-excluded one OpenFabrics device found,
but there are no active ports detected (or Open MPI was unable to use
them).  This is most certainly not what you wanted.  Check your
cables, subnet manager configuration, etc.  The openib BTL will be
ignored for this job.

  Local host: miserver1
--------------------------------------------------------------------------

     Program PWSCF v.7.3.1 starts on 26Feb2025 at  5:58:40 

     This program is part of the open-source Quantum ESPRESSO suite
     for quantum simulation of materials; please cite
         "P. Giannozzi et al., J. Phys.:Condens. Matter 21 395502 (2009);
         "P. Giannozzi et al., J. Phys.:Condens. Matter 29 465901 (2017);
         "P. Giannozzi et al., J. Chem. Phys. 152 154105 (2020);
          URL http://www.quantum-espresso.org", 
     in publications or presentations arising from this work. More details at
     http://www.quantum-espresso.org/quote

     Parallel version (MPI), running on     6 processors

     MPI processes distributed on     1 nodes
     14839 MiB available memory on the printing compute node when the environment starts

     Reading input from vc_relax.in

     Current dimensions of program PWSCF are:
     Max number of different atomic species (ntypx) = 10
     Max number of k-points (npk) =  40000
     Max angular momentum in pseudopotentials (lmaxx) =  4
     file Al.pbe-n-kjpaw_psl.1.0.0.UPF: wavefunction(s)  3S 3P renormalized
     file Fe.pbe-spn-kjpaw_psl.1.0.0.UPF: wavefunction(s)  3P 3D renormalized
     file Fe.pbe-spn-kjpaw_psl.1.0.0.UPF: wavefunction(s)  3P 3D renormalized
     file H.pbe-kjpaw_psl.1.0.0.UPF: wavefunction(s)  1S renormalized
     file K.pbe-spn-kjpaw_psl.1.0.0.UPF: wavefunction(s)  3S renormalized
     file Mg.pbe-spnl-kjpaw_psl.1.0.0.UPF: wavefunction(s)  2P renormalized
     file O.pbe-n-kjpaw_psl.1.0.0.UPF: wavefunction(s)  2S 2P renormalized
     file Si.pbe-n-kjpaw_psl.1.0.0.UPF: wavefunction(s)  3S 3P renormalized

     R & G space division:  proc/nbgrp/npool/nimage =       6
     Subspace diagonalization in iterative solution of the eigenvalue problem:
     one sub-group per band group will be used
     custom distributed-memory algorithm (size of sub-group:  2*  2 procs)


     Parallelization info
     --------------------
     sticks:   dense  smooth     PW     G-vecs:    dense   smooth      PW
     Min        2245    1122    295               202075    71450    9650
     Max        2246    1123    296               202076    71451    9652
     Sum       13475    6737   1775              1212455   428701   57909

     Using Slab Decomposition



     bravais-lattice index     =          -12
     lattice parameter (alat)  =      20.1351  a.u.
     unit-cell volume          =    6828.4878 (a.u.)^3
     number of atoms/cell      =           88
     number of atomic types    =            8
     number of electrons       =       524.00
     number of Kohn-Sham states=          314
     kinetic-energy cutoff     =      60.0000  Ry
     charge density cutoff     =     480.0000  Ry
     scf convergence threshold =      1.0E-06
     mixing beta               =       0.7000
     number of iterations used =            8  plain     mixing
     energy convergence thresh.=      1.0E-06
     force convergence thresh. =      1.0E-03
     press convergence thresh. =      5.0E-01
     Exchange-correlation= SLA  PW   PBX  PBC
                           (   1   4   3   4   0   0   0)
     nstep                     =           50


     celldm(1)=  20.135087  celldm(2)=   0.869801  celldm(3)=   0.977339
     celldm(4)=   0.000000  celldm(5)=  -0.178119  celldm(6)=   0.000000

     crystal axes: (cart. coord. in units of alat)
               a(1) = (   1.000000   0.000000   0.000000 )  
               a(2) = (   0.000000   0.869801   0.000000 )  
               a(3) = (  -0.174083   0.000000   0.961710 )  

     reciprocal axes: (cart. coord. in units 2 pi/alat)
               b(1) = (  1.000000 -0.000000  0.181014 )  
               b(2) = (  0.000000  1.149688 -0.000000 )  
               b(3) = (  0.000000  0.000000  1.039814 )  


     PseudoPot. # 1 for Al read from file:
     ./../../../pseudos/Al.pbe-n-kjpaw_psl.1.0.0.UPF
     MD5 check sum: 502b6b27b9c6270cab5dd1084b96fa6d
     Pseudo is Projector augmented-wave + core cor, Zval =  3.0
     Generated using &quot;atomic&quot; code by A. Dal Corso  v.6.3
     Shape of augmentation charge: PSQ
     Using radial grid of 1135 points,  6 beta functions with: 
                l(1) =   0
                l(2) =   0
                l(3) =   1
                l(4) =   1
                l(5) =   2
                l(6) =   2
     Q(r) pseudized with 0 coefficients 


     PseudoPot. # 2 for Fe read from file:
     ./../../../pseudos/Fe.pbe-spn-kjpaw_psl.1.0.0.UPF
     MD5 check sum: fc81f059e5c5069939230b1155715ae8
     Pseudo is Projector augmented-wave + core cor, Zval = 16.0
     Generated using &quot;atomic&quot; code by A. Dal Corso  v.6.3
     Shape of augmentation charge: PSQ
     Using radial grid of 1191 points,  6 beta functions with: 
                l(1) =   0
                l(2) =   0
                l(3) =   1
                l(4) =   1
                l(5) =   2
                l(6) =   2
     Q(r) pseudized with 0 coefficients 


     PseudoPot. # 3 for Fe read from file:
     ./../../../pseudos/Fe.pbe-spn-kjpaw_psl.1.0.0.UPF
     MD5 check sum: fc81f059e5c5069939230b1155715ae8
     Pseudo is Projector augmented-wave + core cor, Zval = 16.0
     Generated using &quot;atomic&quot; code by A. Dal Corso  v.6.3
     Shape of augmentation charge: PSQ
     Using radial grid of 1191 points,  6 beta functions with: 
                l(1) =   0
                l(2) =   0
                l(3) =   1
                l(4) =   1
                l(5) =   2
                l(6) =   2
     Q(r) pseudized with 0 coefficients 


     PseudoPot. # 4 for H  read from file:
     ./../../../pseudos/H.pbe-kjpaw_psl.1.0.0.UPF
     MD5 check sum: d81a744832360e4a8af0b0b5b123bc2a
     Pseudo is Projector augmented-wave, Zval =  1.0
     Generated using &quot;atomic&quot; code by A. Dal Corso  v.6.3MaX
     Shape of augmentation charge: PSQ
     Using radial grid of  929 points,  2 beta functions with: 
                l(1) =   0
                l(2) =   0
     Q(r) pseudized with 0 coefficients 


     PseudoPot. # 5 for K  read from file:
     ./../../../pseudos/K.pbe-spn-kjpaw_psl.1.0.0.UPF
     MD5 check sum: 34cc42130a09071ebe376fd42eb21491
     Pseudo is Projector augmented-wave + core cor, Zval =  9.0
     Generated using &quot;atomic&quot; code by A. Dal Corso  v.6.2.2
     Shape of augmentation charge: PSQ
     Using radial grid of 1165 points,  6 beta functions with: 
                l(1) =   0
                l(2) =   0
                l(3) =   1
                l(4) =   1
                l(5) =   2
                l(6) =   2
     Q(r) pseudized with 0 coefficients 


     PseudoPot. # 6 for Mg read from file:
     ./../../../pseudos/Mg.pbe-spnl-kjpaw_psl.1.0.0.UPF
     MD5 check sum: fda14e0d92a6a9a5ebed782e5a4b3067
     Pseudo is Projector augmented-wave + core cor, Zval = 10.0
     Generated using &quot;atomic&quot; code by A. Dal Corso  v.6.3
     Shape of augmentation charge: PSQ
     Using radial grid of 1129 points,  4 beta functions with: 
                l(1) =   0
                l(2) =   0
                l(3) =   1
                l(4) =   1
     Q(r) pseudized with 0 coefficients 


     PseudoPot. # 7 for O  read from file:
     ./../../../pseudos/O.pbe-n-kjpaw_psl.1.0.0.UPF
     MD5 check sum: e99d9cef9b487d1ca56f5b95ecd0fd7a
     Pseudo is Projector augmented-wave + core cor, Zval =  6.0
     Generated using &quot;atomic&quot; code by A. Dal Corso  v.6.3
     Shape of augmentation charge: PSQ
     Using radial grid of 1095 points,  4 beta functions with: 
                l(1) =   0
                l(2) =   0
                l(3) =   1
                l(4) =   1
     Q(r) pseudized with 0 coefficients 


     PseudoPot. # 8 for Si read from file:
     ./../../../pseudos/Si.pbe-n-kjpaw_psl.1.0.0.UPF
     MD5 check sum: c39c59da582df4a0d9f10159256ea34e
     Pseudo is Projector augmented-wave + core cor, Zval =  4.0
     Generated using &quot;atomic&quot; code by A. Dal Corso  v.6.3
     Shape of augmentation charge: PSQ
     Using radial grid of 1141 points,  6 beta functions with: 
                l(1) =   0
                l(2) =   0
                l(3) =   1
                l(4) =   1
                l(5) =   2
                l(6) =   2
     Q(r) pseudized with 0 coefficients 


     atomic species   valence    mass     pseudopotential
     Al                3.00    26.98154     Al( 1.00)
     Fe1              16.00    55.84500     Fe( 1.00)
     Fe2              16.00    55.84500     Fe( 1.00)
     H                 1.00     1.00794     H ( 1.00)
     K                 9.00    39.09830     K ( 1.00)
     Mg               10.00    24.30500     Mg( 1.00)
     O                 6.00    15.99940     O ( 1.00)
     Si                4.00    28.08550     Si( 1.00)

      2 Sym. Ops. (no inversion) found


                                    s                        frac. trans.

      isym =  1     identity                                     

 cryst.   s( 1) = (     1          0          0      )
                  (     0          1          0      )
                  (     0          0          1      )

 cart.    s( 1) = (  1.0000000  0.0000000  0.0000000 )
                  (  0.0000000  1.0000000  0.0000000 )
                  (  0.0000000  0.0000000  1.0000000 )


      isym =  2     180 deg rotation - cart. axis [0,1,0]        

 cryst.   s( 2) = (    -1          0          0      )
                  (     0          1          0      )
                  (     0          0         -1      )

 cart.    s( 2) = ( -1.0000000  0.0000000  0.0000000 )
                  (  0.0000000  1.0000000  0.0000000 )
                  (  0.0000000  0.0000000 -1.0000000 )


     point group C_2  (2)   
     there are  2 classes
     the character table:

       E     C2   
A      1.00  1.00
B      1.00 -1.00

     the symmetry operations in each class and the name of the first element:

     E        1
          identity                                               
     C2       2
          180 deg rotation - cart. axis [0,1,0]                  

   Cartesian axes

     site n.     atom                  positions (alat units)
         1        K      tau(   1) = (   0.0000000   0.4296389   0.0000000  )
         2        K      tau(   2) = (   0.5000000   0.4296389   0.0000000  )
         3        K      tau(   3) = (   0.2500001   0.0024501   0.0000000  )
         4        K      tau(   4) = (   0.7500001   0.0024501   0.0000000  )
         5        Mg     tau(   5) = (  -0.0870414   0.0055279   0.4808550  )
         6        Mg     tau(   6) = (   0.4129586   0.0055279   0.4808550  )
         7        Mg     tau(   7) = (  -0.0870414   0.5801280   0.4808550  )
         8        Mg     tau(   8) = (   0.4129586   0.5801280   0.4808550  )
         9        Mg     tau(   9) = (   0.1629587   0.4310949   0.4808550  )
        10        Mg     tau(  10) = (   0.6629587   0.4310949   0.4808550  )
        11        Mg     tau(  11) = (   0.1629587   0.7269300   0.4808550  )
        12        Mg     tau(  12) = (   0.6629587   0.7269300   0.4808550  )
        13        Mg     tau(  13) = (   0.1629587   0.1482588   0.4808550  )
        14        Mg     tau(  14) = (   0.6629587   0.1482588   0.4808550  )
        15        Si     tau(  15) = (   0.0074326   0.1420119   0.2164892  )
        16        Si     tau(  16) = (   0.5074326   0.1420119   0.2164892  )
        17        Si     tau(  17) = (   0.3184849   0.1420119   0.7452208  )
        18        Si     tau(  18) = (   0.8184849   0.1420119   0.7452208  )
        19        Si     tau(  19) = (   0.3331608   0.7257911   0.7377580  )
        20        Si     tau(  20) = (   0.8331608   0.7257911   0.7377580  )
        21        Si     tau(  21) = (  -0.0072433   0.7257911   0.2239520  )
        22        Si     tau(  22) = (   0.4927567   0.7257911   0.2239520  )
        23        Si     tau(  23) = (   0.2427667   0.5796705   0.2225784  )
        24        Si     tau(  24) = (   0.7427667   0.5796705   0.2225784  )
        25        Si     tau(  25) = (   0.0831508   0.5796705   0.7391315  )
        26        Si     tau(  26) = (   0.5831508   0.5796705   0.7391315  )
        27        Al     tau(  27) = (   0.0682443   0.2875617   0.7425041  )
        28        Al     tau(  28) = (   0.5682443   0.2875617   0.7425041  )
        29        Al     tau(  29) = (   0.2576732   0.2875617   0.2192058  )
        30        Al     tau(  30) = (   0.7576731   0.2875617   0.2192058  )
        31        O      tau(  31) = (   0.0017352   0.1371008   0.3693886  )
        32        O      tau(  32) = (   0.5017352   0.1371008   0.3693886  )
        33        O      tau(  33) = (   0.3241823   0.1371008   0.5923214  )
        34        O      tau(  34) = (   0.8241823   0.1371008   0.5923214  )
        35        O      tau(  35) = (   0.3309875   0.7260882   0.5856762  )
        36        O      tau(  36) = (   0.8309875   0.7260882   0.5856762  )
        37        O      tau(  37) = (  -0.0050700   0.7260882   0.3760337  )
        38        O      tau(  38) = (   0.4949300   0.7260882   0.3760337  )
        39        O      tau(  39) = (   0.2456591   0.5824087   0.3753945  )
        40        O      tau(  40) = (   0.7456591   0.5824087   0.3753945  )
        41        O      tau(  41) = (   0.0802583   0.5824087   0.5863155  )
        42        O      tau(  42) = (   0.5802583   0.5824087   0.5863155  )
        43        O      tau(  43) = (   0.0748950   0.2898192   0.5784747  )
        44        O      tau(  44) = (   0.5748950   0.2898192   0.5784747  )
        45        O      tau(  45) = (   0.2510225   0.2898192   0.3832352  )
        46        O      tau(  46) = (   0.7510224   0.2898192   0.3832352  )
        47        O      tau(  47) = (   0.1463863   0.1775489   0.1626707  )
        48        O      tau(  48) = (   0.6463863   0.1775489   0.1626707  )
        49        O      tau(  49) = (   0.1795312   0.1775489   0.7990392  )
        50        O      tau(  50) = (   0.6795312   0.1775489   0.7990392  )
        51        O      tau(  51) = (  -0.0250455   0.8667889   0.1630411  )
        52        O      tau(  52) = (   0.4749545   0.8667889   0.1630411  )
        53        O      tau(  53) = (   0.3509630   0.8667889   0.7986688  )
        54        O      tau(  54) = (   0.8509630   0.8667889   0.7986688  )
        55        O      tau(  55) = (   0.2001651   0.6682872   0.7942782  )
        56        O      tau(  56) = (   0.7001651   0.6682872   0.7942782  )
        57        O      tau(  57) = (   0.1257524   0.6682872   0.1674318  )
        58        O      tau(  58) = (   0.6257524   0.6682872   0.1674318  )
        59        O      tau(  59) = (   0.3751016   0.6421235   0.1665090  )
        60        O      tau(  60) = (   0.8751016   0.6421235   0.1665090  )
        61        O      tau(  61) = (  -0.0491842   0.6421235   0.7952009  )
        62        O      tau(  62) = (   0.4508158   0.6421235   0.7952009  )
        63        O      tau(  63) = (   0.2267361   0.4412388   0.1614261  )
        64        O      tau(  64) = (   0.7267362   0.4412388   0.1614261  )
        65        O      tau(  65) = (   0.0991813   0.4412388   0.8002838  )
        66        O      tau(  66) = (   0.5991813   0.4412388   0.8002838  )
        67        O      tau(  67) = (  -0.0785908   0.2392057   0.8031981  )
        68        O      tau(  68) = (   0.4214092   0.2392057   0.8031981  )
        69        O      tau(  69) = (   0.4045083   0.2392057   0.1585119  )
        70        O      tau(  70) = (   0.9045082   0.2392057   0.1585119  )
        71        O      tau(  71) = (  -0.0000042   0.4450115   0.3781135  )
        72        O      tau(  72) = (   0.4999958   0.4450115   0.3781135  )
        73        O      tau(  73) = (   0.3259217   0.4450115   0.5835965  )
        74        O      tau(  74) = (   0.8259217   0.4450115   0.5835965  )
        75        O      tau(  75) = (   0.2478596   0.8693925   0.3836472  )
        76        O      tau(  76) = (   0.7478596   0.8693925   0.3836472  )
        77        O      tau(  77) = (   0.0780579   0.8693925   0.5780627  )
        78        O      tau(  78) = (   0.5780579   0.8693925   0.5780627  )
        79        H      tau(  79) = (   0.0004471   0.4269259   0.2892434  )
        80        H      tau(  80) = (   0.5004471   0.4269259   0.2892434  )
        81        H      tau(  81) = (   0.3254704   0.4269259   0.6724666  )
        82        H      tau(  82) = (   0.8254704   0.4269259   0.6724666  )
        83        H      tau(  83) = (   0.2447352   0.0128545   0.2939423  )
        84        H      tau(  84) = (   0.7447351   0.0128545   0.2939423  )
        85        H      tau(  85) = (   0.0811823   0.0128545   0.6677677  )
        86        H      tau(  86) = (   0.5811823   0.0128545   0.6677677  )
        87        Fe1    tau(  87) = (  -0.0870414   0.2919251   0.4808550  )
        88        Fe2    tau(  88) = (   0.4129586   0.2919251   0.4808550  )

     --------------------------------------------
     DFT-D3 Dispersion Correction (3-body terms):
     --------------------------------------------
       Reference C6 values for interpolation: 

         atom   Coordination number   C6
         H          0.912             6.05
         H          0.000            15.18
         O          0.000            31.01
         O          0.993            25.63
         O          1.989            20.74
         Mg         0.000          1366.75
         Mg         0.963           902.54
         Mg         1.950           351.12
         Al         0.000          1081.08
         Al         0.965           875.51
         Al         1.931           513.50
         Al         2.915           307.19
         Si         0.000           635.71
         Si         0.951           540.53
         Si         1.944           466.25
         Si         2.941           443.01
         Si         3.868           299.55
         K          0.000          9967.00
         K          0.977           676.04
         Fe1        0.000           982.67
         Fe1        1.648           409.99
         Fe1        9.138           219.01
         Fe2        0.000           982.67
         Fe2        1.648           409.99
         Fe2        9.138           219.01

       Values used:

         atom   Coordination number  R0_AB[au]  C6      C8
         K         11.877            4.007    676.04 129074.98
         K         11.877            4.007    676.04 129074.98
         K         12.270            4.007    676.04 129074.98
         K         12.270            4.007    676.04 129074.98
         Mg        11.314            3.292    351.12  31436.69
         Mg        11.314            3.292    351.12  31436.69
         Mg        11.299            3.292    351.12  31436.69
         Mg        11.299            3.292    351.12  31436.69
         Mg        11.204            3.292    351.12  31436.69
         Mg        11.204            3.292    351.12  31436.69
         Mg        11.573            3.292    351.12  31436.69
         Mg        11.573            3.292    351.12  31436.69
         Mg        11.383            3.292    351.12  31436.69
         Mg        11.383            3.292    351.12  31436.69
         Si         6.519            3.583    299.55  21425.58
         Si         6.519            3.583    299.55  21425.58
         Si         6.519            3.583    299.55  21425.58
         Si         6.519            3.583    299.55  21425.58
         Si         6.299            3.583    299.55  21425.58
         Si         6.299            3.583    299.55  21425.58
         Si         6.299            3.583    299.55  21425.58
         Si         6.299            3.583    299.55  21425.58
         Si         6.332            3.583    299.55  21425.58
         Si         6.332            3.583    299.55  21425.58
         Si         6.332            3.583    299.55  21425.58
         Si         6.332            3.583    299.55  21425.58
         Al         7.195            3.789    307.19  29441.29
         Al         7.195            3.789    307.19  29441.29
         Al         7.195            3.789    307.19  29441.29
         Al         7.195            3.789    307.19  29441.29
         O          3.463            2.345     20.74    418.58
         O          3.463            2.345     20.74    418.58
         O          3.463            2.345     20.74    418.58
         O          3.463            2.345     20.74    418.58
         O          3.908            2.345     20.74    418.58
         O          3.908            2.345     20.74    418.58
         O          3.908            2.345     20.74    418.58
         O          3.908            2.345     20.74    418.58
         O          3.897            2.345     20.74    418.58
         O          3.897            2.345     20.74    418.58
         O          3.897            2.345     20.74    418.58
         O          3.897            2.345     20.74    418.58
         O          3.833            2.345     20.74    418.58
         O          3.833            2.345     20.74    418.58
         O          3.833            2.345     20.74    418.58
         O          3.833            2.345     20.74    418.58
         O          3.114            2.345     20.74    418.58
         O          3.114            2.345     20.74    418.58
         O          3.114            2.345     20.74    418.58
         O          3.114            2.345     20.74    418.58
         O          3.077            2.345     20.74    418.58
         O          3.077            2.345     20.74    418.58
         O          3.077            2.345     20.74    418.58
         O          3.077            2.345     20.74    418.58
         O          2.927            2.345     20.74    418.58
         O          2.927            2.345     20.74    418.58
         O          2.927            2.345     20.74    418.58
         O          2.927            2.345     20.74    418.58
         O          2.924            2.345     20.74    418.58
         O          2.924            2.345     20.74    418.58
         O          2.924            2.345     20.74    418.58
         O          2.924            2.345     20.74    418.58
         O          3.084            2.345     20.74    418.58
         O          3.084            2.345     20.74    418.58
         O          3.084            2.345     20.74    418.58
         O          3.084            2.345     20.74    418.58
         O          3.139            2.345     20.74    418.58
         O          3.139            2.345     20.74    418.58
         O          3.139            2.345     20.74    418.58
         O          3.139            2.345     20.74    418.58
         O          3.632            2.345     20.74    418.58
         O          3.632            2.345     20.74    418.58
         O          3.632            2.345     20.74    418.58
         O          3.632            2.345     20.74    418.58
         O          3.981            2.345     20.74    418.58
         O          3.981            2.345     20.74    418.58
         O          3.981            2.345     20.74    418.58
         O          3.981            2.345     20.74    418.58
         H          1.231            2.062      6.08     73.47
         H          1.231            2.062      6.08     73.47
         H          1.231            2.062      6.08     73.47
         H          1.231            2.062      6.08     73.47
         H          1.237            2.062      6.08     73.45
         H          1.237            2.062      6.08     73.45
         H          1.237            2.062      6.08     73.45
         H          1.237            2.062      6.08     73.45
         Fe1        7.261            3.252    219.01  20487.87
         Fe2        7.261            3.252    219.01  20487.87

         Molecular C6 ( Ry / a.u.^6 ) =    661236.15


   Crystallographic axes

     site n.     atom                  positions (cryst. coord.)
         1        K      tau(   1) = (  0.0000000  0.4939509  0.0000000  )
         2        K      tau(   2) = (  0.5000000  0.4939509  0.0000000  )
         3        K      tau(   3) = (  0.2500001  0.0028168  0.0000000  )
         4        K      tau(   4) = (  0.7500001  0.0028168  0.0000000  )
         5        Mg     tau(   5) = (  0.0000000  0.0063553  0.4999999  )
         6        Mg     tau(   6) = (  0.5000000  0.0063553  0.4999999  )
         7        Mg     tau(   7) = (  0.0000000  0.6669664  0.4999999  )
         8        Mg     tau(   8) = (  0.5000000  0.6669664  0.4999999  )
         9        Mg     tau(   9) = (  0.2500001  0.4956248  0.4999999  )
        10        Mg     tau(  10) = (  0.7500001  0.4956248  0.4999999  )
        11        Mg     tau(  11) = (  0.2500001  0.8357430  0.4999999  )
        12        Mg     tau(  12) = (  0.7500001  0.8357430  0.4999999  )
        13        Mg     tau(  13) = (  0.2500001  0.1704514  0.4999999  )
        14        Mg     tau(  14) = (  0.7500001  0.1704514  0.4999999  )
        15        Si     tau(  15) = (  0.0466201  0.1632694  0.2251086  )
        16        Si     tau(  16) = (  0.5466201  0.1632694  0.2251086  )
        17        Si     tau(  17) = (  0.4533802  0.1632694  0.7748913  )
        18        Si     tau(  18) = (  0.9533802  0.1632694  0.7748913  )
        19        Si     tau(  19) = (  0.4667052  0.8344337  0.7671314  )
        20        Si     tau(  20) = (  0.9667052  0.8344337  0.7671314  )
        21        Si     tau(  21) = (  0.0332951  0.8344337  0.2328685  )
        22        Si     tau(  22) = (  0.5332951  0.8344337  0.2328685  )
        23        Si     tau(  23) = (  0.2830564  0.6664404  0.2314402  )
        24        Si     tau(  24) = (  0.7830564  0.6664404  0.2314402  )
        25        Si     tau(  25) = (  0.2169439  0.6664404  0.7685596  )
        26        Si     tau(  26) = (  0.7169439  0.6664404  0.7685596  )
        27        Al     tau(  27) = (  0.2026479  0.3306063  0.7720665  )
        28        Al     tau(  28) = (  0.7026479  0.3306063  0.7720665  )
        29        Al     tau(  29) = (  0.2973525  0.3306063  0.2279334  )
        30        Al     tau(  30) = (  0.7973524  0.3306063  0.2279334  )
        31        O      tau(  31) = (  0.0685997  0.1576232  0.3840956  )
        32        O      tau(  32) = (  0.5685996  0.1576232  0.3840956  )
        33        O      tau(  33) = (  0.4314007  0.1576232  0.6159044  )
        34        O      tau(  34) = (  0.9314007  0.1576232  0.6159044  )
        35        O      tau(  35) = (  0.4370030  0.8347753  0.6089946  )
        36        O      tau(  36) = (  0.9370030  0.8347753  0.6089946  )
        37        O      tau(  37) = (  0.0629973  0.8347753  0.3910053  )
        38        O      tau(  38) = (  0.5629973  0.8347753  0.3910053  )
        39        O      tau(  39) = (  0.3136107  0.6695885  0.3903406  )
        40        O      tau(  40) = (  0.8136107  0.6695885  0.3903406  )
        41        O      tau(  41) = (  0.1863896  0.6695885  0.6096593  )
        42        O      tau(  42) = (  0.6863896  0.6695885  0.6096593  )
        43        O      tau(  43) = (  0.1796070  0.3332018  0.6015063  )
        44        O      tau(  44) = (  0.6796070  0.3332018  0.6015063  )
        45        O      tau(  45) = (  0.3203934  0.3332018  0.3984935  )
        46        O      tau(  46) = (  0.8203933  0.3332018  0.3984935  )
        47        O      tau(  47) = (  0.1758320  0.2041259  0.1691474  )
        48        O      tau(  48) = (  0.6758320  0.2041259  0.1691474  )
        49        O      tau(  49) = (  0.3241684  0.2041259  0.8308524  )
        50        O      tau(  50) = (  0.8241683  0.2041259  0.8308524  )
        51        O      tau(  51) = (  0.0044672  0.9965371  0.1695325  )
        52        O      tau(  52) = (  0.5044672  0.9965371  0.1695325  )
        53        O      tau(  53) = (  0.4955331  0.9965371  0.8304673  )
        54        O      tau(  54) = (  0.9955331  0.9965371  0.8304673  )
        55        O      tau(  55) = (  0.3439404  0.7683221  0.8259019  )
        56        O      tau(  56) = (  0.8439404  0.7683221  0.8259019  )
        57        O      tau(  57) = (  0.1560599  0.7683221  0.1740980  )
        58        O      tau(  58) = (  0.6560599  0.7683221  0.1740980  )
        59        O      tau(  59) = (  0.4052421  0.7382420  0.1731385  )
        60        O      tau(  60) = (  0.9052421  0.7382420  0.1731385  )
        61        O      tau(  61) = (  0.0947582  0.7382420  0.8268614  )
        62        O      tau(  62) = (  0.5947582  0.7382420  0.8268614  )
        63        O      tau(  63) = (  0.2559565  0.5072872  0.1678532  )
        64        O      tau(  64) = (  0.7559565  0.5072872  0.1678532  )
        65        O      tau(  65) = (  0.2440438  0.5072872  0.8321466  )
        66        O      tau(  66) = (  0.7440438  0.5072872  0.8321466  )
        67        O      tau(  67) = (  0.0667992  0.2750120  0.8351769  )
        68        O      tau(  68) = (  0.5667992  0.2750120  0.8351769  )
        69        O      tau(  69) = (  0.4332011  0.2750120  0.1648230  )
        70        O      tau(  70) = (  0.9332011  0.2750120  0.1648230  )
        71        O      tau(  71) = (  0.0684395  0.5116246  0.3931678  )
        72        O      tau(  72) = (  0.5684395  0.5116246  0.3931678  )
        73        O      tau(  73) = (  0.4315608  0.5116246  0.6068321  )
        74        O      tau(  74) = (  0.9315608  0.5116246  0.6068321  )
        75        O      tau(  75) = (  0.3173051  0.9995306  0.3989219  )
        76        O      tau(  76) = (  0.8173051  0.9995306  0.3989219  )
        77        O      tau(  77) = (  0.1826953  0.9995306  0.6010780  )
        78        O      tau(  78) = (  0.6826953  0.9995306  0.6010780  )
        79        H      tau(  79) = (  0.0528041  0.4908318  0.3007595  )
        80        H      tau(  80) = (  0.5528042  0.4908318  0.3007595  )
        81        H      tau(  81) = (  0.4471962  0.4908318  0.6992404  )
        82        H      tau(  82) = (  0.9471962  0.4908318  0.6992404  )
        83        H      tau(  83) = (  0.2979428  0.0147786  0.3056454  )
        84        H      tau(  84) = (  0.7979428  0.0147786  0.3056454  )
        85        H      tau(  85) = (  0.2020575  0.0147786  0.6943545  )
        86        H      tau(  86) = (  0.7020575  0.0147786  0.6943545  )
        87        Fe1    tau(  87) = (  0.0000000  0.3356230  0.4999999  )
        88        Fe2    tau(  88) = (  0.5000000  0.3356230  0.4999999  )

     number of k points=    10  Gaussian smearing, width (Ry)=  0.0010
                       cart. coord. in units 2pi/alat
        k(    1) = (   0.0000000   0.0000000   0.0000000), wk =   0.0740741
        k(    2) = (   0.0000000   0.0000000   0.3466048), wk =   0.1481481
        k(    3) = (   0.0000000   0.3832295   0.0000000), wk =   0.1481481
        k(    4) = (   0.0000000   0.3832295   0.3466048), wk =   0.2962963
        k(    5) = (   0.3333333   0.0000000   0.0603380), wk =   0.1481481
        k(    6) = (   0.3333333   0.0000000   0.4069428), wk =   0.1481481
        k(    7) = (   0.3333333   0.0000000  -0.2862669), wk =   0.1481481
        k(    8) = (   0.3333333   0.3832295   0.0603380), wk =   0.2962963
        k(    9) = (   0.3333333   0.3832295   0.4069428), wk =   0.2962963
        k(   10) = (   0.3333333   0.3832295  -0.2862669), wk =   0.2962963

                       cryst. coord.
        k(    1) = (   0.0000000   0.0000000   0.0000000), wk =   0.0740741
        k(    2) = (   0.0000000   0.0000000   0.3333333), wk =   0.1481481
        k(    3) = (   0.0000000   0.3333333   0.0000000), wk =   0.1481481
        k(    4) = (   0.0000000   0.3333333   0.3333333), wk =   0.2962963
        k(    5) = (   0.3333333   0.0000000   0.0000000), wk =   0.1481481
        k(    6) = (   0.3333333   0.0000000   0.3333333), wk =   0.1481481
        k(    7) = (   0.3333333   0.0000000  -0.3333333), wk =   0.1481481
        k(    8) = (   0.3333333   0.3333333   0.0000000), wk =   0.2962963
        k(    9) = (   0.3333333   0.3333333   0.3333333), wk =   0.2962963
        k(   10) = (   0.3333333   0.3333333  -0.3333333), wk =   0.2962963

     Dense  grid:  1212455 G-vectors     FFT dimensions: ( 144, 125, 144)

     Smooth grid:   428701 G-vectors     FFT dimensions: ( 100,  90, 100)

     Dynamical RAM for                 wfc:      42.80 MB

     Dynamical RAM for     wfc (w. buffer):     470.75 MB

     Dynamical RAM for           str. fact:      24.67 MB

     Dynamical RAM for           local pot:       0.00 MB

     Dynamical RAM for          nlocal pot:     119.39 MB

     Dynamical RAM for                qrad:      28.13 MB

     Dynamical RAM for          rho,v,vnew:      19.14 MB

     Dynamical RAM for               rhoin:       6.38 MB

     Dynamical RAM for            rho*nmix:      49.33 MB

     Dynamical RAM for           G-vectors:      12.11 MB

     Dynamical RAM for          h,s,v(r/c):       4.51 MB

     Dynamical RAM for          <psi|beta>:       4.20 MB

     Dynamical RAM for                 psi:      85.59 MB

     Dynamical RAM for                hpsi:      85.59 MB

     Dynamical RAM for                spsi:      85.59 MB

     Dynamical RAM for      wfcinit/wfcrot:      87.85 MB

     Dynamical RAM for           addusdens:     721.52 MB

     Dynamical RAM for          addusforce:    1013.10 MB

     Dynamical RAM for         addusstress:     619.77 MB

     Estimated static dynamical RAM per process >     724.79 MB

     Estimated max dynamical RAM per process >       1.75 GB

     Estimated total dynamical RAM >      10.47 GB

     Atomic positions and unit cell read from directory:
     ./temp/phl-fe1-fe2x2.save/
     Atomic positions from file used, from input discarded


     Check: negative core charge=   -0.000004

     The initial density is read from file :
     ./temp/phl-fe1-fe2x2.save/charge-density


     starting charge     524.0156, renormalised to     524.0000
[miserver1:01619] 5 more processes have sent help message help-mpi-btl-openib.txt / no active ports found
[miserver1:01619] Set MCA parameter "orte_base_help_aggregate" to 0 to see all help / error messages
     Cannot read wfcs: file not found
     Starting wfcs are  366 randomized atomic wfcs
     Checking if some PAW data can be deallocated... 
       PAW data deallocated on    5 nodes for type:  1
       PAW data deallocated on    5 nodes for type:  2
       PAW data deallocated on    5 nodes for type:  3
       PAW data deallocated on    5 nodes for type:  4
       PAW data deallocated on    5 nodes for type:  5
       PAW data deallocated on    5 nodes for type:  6
       PAW data deallocated on    2 nodes for type:  7
       PAW data deallocated on    4 nodes for type:  8

     total cpu time spent up to now is      273.4 secs

     Self-consistent Calculation

     iteration #  1     ecut=    60.00 Ry     beta= 0.70
     Davidson diagonalization with overlap

---- Real-time Memory Report at c_bands before calling an iterative solver
           850 MiB given to the printing process from OS
             0 MiB allocation reported by mallinfo(arena+hblkhd)
         10174 MiB available memory on the node where the printing process lives
------------------
     c_bands:  5 eigenvalues not converged
     c_bands:  4 eigenvalues not converged
     c_bands:  4 eigenvalues not converged
     c_bands:  3 eigenvalues not converged
     c_bands:  1 eigenvalues not converged
     c_bands:  4 eigenvalues not converged
     c_bands:  3 eigenvalues not converged
     c_bands:  3 eigenvalues not converged
     c_bands:  1 eigenvalues not converged
     ethr =  1.00E-05,  avg # of iterations = 40.2

     Threshold (ethr) on eigenvalues was too large:
     Diagonalizing with lowered threshold

     Davidson diagonalization with overlap

---- Real-time Memory Report at c_bands before calling an iterative solver
          1420 MiB given to the printing process from OS
             0 MiB allocation reported by mallinfo(arena+hblkhd)
         10012 MiB available memory on the node where the printing process lives
------------------
     c_bands:  1 eigenvalues not converged
     c_bands:  2 eigenvalues not converged
     c_bands:  1 eigenvalues not converged
     ethr =  1.49E-07,  avg # of iterations = 12.3

     total cpu time spent up to now is     8926.0 secs

     total energy              =   -5262.41205751 Ry
     estimated scf accuracy    <       0.00078192 Ry

     iteration #  2     ecut=    60.00 Ry     beta= 0.70
     Davidson diagonalization with overlap

---- Real-time Memory Report at c_bands before calling an iterative solver
          1431 MiB given to the printing process from OS
             0 MiB allocation reported by mallinfo(arena+hblkhd)
         10141 MiB available memory on the node where the printing process lives
------------------
     c_bands:  2 eigenvalues not converged
     c_bands:  1 eigenvalues not converged
     ethr =  1.49E-07,  avg # of iterations =  7.3

     total cpu time spent up to now is     9816.1 secs

     total energy              =   -5262.41219517 Ry
     estimated scf accuracy    <       0.00009920 Ry

     iteration #  3     ecut=    60.00 Ry     beta= 0.70
     Davidson diagonalization with overlap

---- Real-time Memory Report at c_bands before calling an iterative solver
          1434 MiB given to the printing process from OS
             0 MiB allocation reported by mallinfo(arena+hblkhd)
         10125 MiB available memory on the node where the printing process lives
------------------
     c_bands:  2 eigenvalues not converged
     ethr =  1.89E-08,  avg # of iterations =  7.6

     total cpu time spent up to now is    11061.4 secs

     total energy              =   -5262.41224234 Ry
     estimated scf accuracy    <       0.00010331 Ry

     iteration #  4     ecut=    60.00 Ry     beta= 0.70
     Davidson diagonalization with overlap

---- Real-time Memory Report at c_bands before calling an iterative solver
          1436 MiB given to the printing process from OS
             0 MiB allocation reported by mallinfo(arena+hblkhd)
         10114 MiB available memory on the node where the printing process lives
------------------
     ethr =  1.89E-08,  avg # of iterations =  5.1

     total cpu time spent up to now is    11800.1 secs

     total energy              =   -5262.41226553 Ry
     estimated scf accuracy    <       0.00003522 Ry

     iteration #  5     ecut=    60.00 Ry     beta= 0.70
     Davidson diagonalization with overlap

---- Real-time Memory Report at c_bands before calling an iterative solver
          1439 MiB given to the printing process from OS
             0 MiB allocation reported by mallinfo(arena+hblkhd)
         10096 MiB available memory on the node where the printing process lives
------------------
     ethr =  6.72E-09,  avg # of iterations =  5.3

     total cpu time spent up to now is    12634.5 secs

     total energy              =   -5262.41227433 Ry
     estimated scf accuracy    <       0.00000106 Ry

     iteration #  6     ecut=    60.00 Ry     beta= 0.70
     Davidson diagonalization with overlap

---- Real-time Memory Report at c_bands before calling an iterative solver
          1441 MiB given to the printing process from OS
             0 MiB allocation reported by mallinfo(arena+hblkhd)
         10075 MiB available memory on the node where the printing process lives
------------------
     c_bands:  3 eigenvalues not converged
     ethr =  2.02E-10,  avg # of iterations = 17.2

     total cpu time spent up to now is    16321.9 secs

     End of self-consistent calculation

          k = 0.0000 0.0000 0.0000 ( 53617 PWs)   bands (ev):

   -78.1439 -78.1436 -67.8737 -67.8736 -67.7726 -67.7726 -67.6659 -67.6659
   -67.2997 -67.2997 -67.1252 -67.1251 -44.3215 -44.3212 -44.2886 -44.2884
   -44.1696 -44.1694 -34.6397 -34.6390 -34.6195 -34.6187 -34.6183 -34.6181
   -34.5412 -34.5411 -34.5205 -34.5204 -34.5125 -34.5124 -34.4310 -34.4308
   -34.4231 -34.4229 -34.3987 -34.3986 -34.0549 -34.0548 -34.0536 -34.0536
   -34.0481 -34.0480 -33.8985 -33.8984 -33.8686 -33.8685 -33.8664 -33.8662
   -23.3675 -23.3670 -23.2561 -23.2556 -15.2244 -15.1823 -14.8596 -14.8286
   -14.5829 -14.5540 -14.3096 -14.2756 -14.0452 -14.0205 -13.7690 -13.7549
   -13.6143 -13.4762 -13.3925 -13.3886 -13.2902 -13.2872 -13.1797 -13.1795
   -13.1449 -13.1149 -13.0939 -13.0524 -13.0408 -13.0323 -12.9978 -12.9652
   -12.9240 -12.9102 -12.8484 -12.8200 -12.7594 -12.7251 -12.6562 -12.6229
   -12.5850 -12.5395 -12.4962 -12.4824 -12.4486 -12.4062 -12.3380 -12.3181
   -11.3638 -11.3108 -11.1620 -11.0965  -6.9063  -6.9048  -6.8546  -6.8542
    -6.8505  -6.8477  -6.8102  -6.7998  -6.7415  -6.7400  -6.7275  -6.7187
    -4.4394  -4.3992  -3.5080  -3.4536  -2.9582  -2.8988  -2.5825  -2.4996
    -1.9668  -1.9080  -1.8142  -1.5295  -1.5128  -1.3794  -1.3283  -1.2980
    -1.2303  -1.1632  -1.0522  -1.0369  -0.8578  -0.8485  -0.8060  -0.8056
    -0.6727  -0.5261  -0.5081  -0.4617  -0.4541  -0.4227  -0.3371  -0.3123
    -0.1745  -0.1651  -0.1310  -0.0641   0.0430   0.2165   0.2417   0.2509
     0.3355   0.3649   0.3931   0.4036   0.5052   0.5090   0.5224   0.7416
     0.7529   0.7976   0.9208   0.9463   0.9749   0.9916   1.0619   1.1257
     1.2133   1.2576   1.2797   1.3111   1.3242   1.3358   1.3662   1.4778
     1.4954   1.5357   1.6247   1.6537   1.6768   1.7050   1.7496   1.8992
     1.9299   1.9418   2.0097   2.0338   2.0810   2.0989   2.1420   2.1929
     2.1937   2.2479   2.3037   2.4033   2.4471   2.4555   2.4709   2.4854
     2.4862   2.5229   2.5727   2.6012   2.6440   2.6638   2.6879   2.7162
     2.7176   2.7335   2.7948   2.8071   2.8331   2.8677   2.8740   2.8964
     2.9317   2.9590   2.9737   3.0673   3.0889   3.0894   3.1204   3.1636
     3.1638   3.1943   3.1975   3.2211   3.2300   3.2857   3.2885   3.3101
     3.3305   3.3680   3.3976   3.3996   3.4440   3.4596   3.4602   3.5050
     3.5628   3.5777   3.5959   3.6182   3.6524   3.6752   3.7005   3.7210
     3.7381   3.7974   3.8445   4.0869   4.1589   4.2029   4.2719   4.3686
     7.9348   7.9524   8.1364   8.1687   8.1959   8.2338   8.8697   9.4289
     9.4394   9.6378   9.7939  10.3557  10.9051  10.9468  11.0804  11.2926
    11.3846  11.5925  11.6680  11.7336  11.7402  11.8133  11.9172  12.1886
    12.2404  12.2686  12.4194  12.4494  12.5461  12.7387  12.7872  12.8095
    12.8314  12.8728  12.8922  13.0223  13.0800  13.1167  13.2254  13.2362
    13.2466  13.3862  13.4102  13.4444  13.5474  13.5719  13.6006  13.6036
    13.6413  13.6706  13.6806  13.7774  13.8013  13.8430  13.8879  13.9911
    13.9984  14.0210

     occupation numbers 
     1.0000   1.0000   1.0000   1.0000   1.0000   1.0000   1.0000   1.0000
     1.0000   1.0000   1.0000   1.0000   1.0000   1.0000   1.0000   1.0000
     1.0000   1.0000   1.0000   1.0000   1.0000   1.0000   1.0000   1.0000
     1.0000   1.0000   1.0000   1.0000   1.0000   1.0000   1.0000   1.0000
     1.0000   1.0000   1.0000   1.0000   1.0000   1.0000   1.0000   1.0000
     1.0000   1.0000   1.0000   1.0000   1.0000   1.0000   1.0000   1.0000
     1.0000   1.0000   1.0000   1.0000   1.0000   1.0000   1.0000   1.0000
     1.0000   1.0000   1.0000   1.0000   1.0000   1.0000   1.0000   1.0000
     1.0000   1.0000   1.0000   1.0000   1.0000   1.0000   1.0000   1.0000
     1.0000   1.0000   1.0000   1.0000   1.0000   1.0000   1.0000   1.0000
     1.0000   1.0000   1.0000   1.0000   1.0000   1.0000   1.0000   1.0000
     1.0000   1.0000   1.0000   1.0000   1.0000   1.0000   1.0000   1.0000
     1.0000   1.0000   1.0000   1.0000   1.0000   1.0000   1.0000   1.0000
     1.0000   1.0000   1.0000   1.0000   1.0000   1.0000   1.0000   1.0000
     1.0000   1.0000   1.0000   1.0000   1.0000   1.0000   1.0000   1.0000
     1.0000   1.0000   1.0000   1.0000   1.0000   1.0000   1.0000   1.0000
     1.0000   1.0000   1.0000   1.0000   1.0000   1.0000   1.0000   1.0000
     1.0000   1.0000   1.0000   1.0000   1.0000   1.0000   1.0000   1.0000
     1.0000   1.0000   1.0000   1.0000   1.0000   1.0000   1.0000   1.0000
     1.0000   1.0000   1.0000   1.0000   1.0000   1.0000   1.0000   1.0000
     1.0000   1.0000   1.0000   1.0000   1.0000   1.0000   1.0000   1.0000
     1.0000   1.0000   1.0000   1.0000   1.0000   1.0000   1.0000   1.0000
     1.0000   1.0000   1.0000   1.0000   1.0000   1.0000   1.0000   1.0000
     1.0000   1.0000   1.0000   1.0000   1.0000   1.0000   1.0000   1.0000
     1.0000   1.0000   1.0000   1.0000   1.0000   1.0000   1.0000   1.0000
     1.0000   1.0000   1.0000   1.0000   1.0000   1.0000   1.0000   1.0000
     1.0000   1.0000   1.0000   1.0000   1.0000   1.0000   1.0000   1.0000
     1.0000   1.0000   1.0000   1.0000   1.0000   1.0000   1.0000   1.0000
     1.0000   1.0000   1.0000   1.0000   1.0000   1.0000   1.0000   1.0000
     1.0000   1.0000   1.0000   1.0000   1.0000   1.0000   1.0000   1.0000
     1.0000   1.0000   1.0000   1.0000   1.0000   1.0000   1.0000   1.0000
     1.0000   1.0000   1.0000   1.0000   1.0000   1.0000   1.0000   1.0000
     1.0000   1.0000   1.0000   1.0000   1.0000   1.0000   0.0000   0.0000
     0.0000   0.0000   0.0000   0.0000   0.0000   0.0000   0.0000   0.0000
     0.0000   0.0000   0.0000   0.0000   0.0000   0.0000   0.0000   0.0000
     0.0000   0.0000   0.0000   0.0000   0.0000   0.0000   0.0000   0.0000
     0.0000   0.0000   0.0000   0.0000   0.0000   0.0000   0.0000   0.0000
     0.0000   0.0000   0.0000   0.0000   0.0000   0.0000   0.0000   0.0000
     0.0000   0.0000   0.0000   0.0000   0.0000   0.0000   0.0000   0.0000
     0.0000   0.0000

          k = 0.0000 0.0000 0.3460 ( 53576 PWs)   bands (ev):

   -78.1439 -78.1436 -67.8737 -67.8736 -67.7726 -67.7726 -67.6659 -67.6659
   -67.2997 -67.2997 -67.1252 -67.1251 -44.3215 -44.3212 -44.2886 -44.2883
   -44.1696 -44.1694 -34.6397 -34.6390 -34.6195 -34.6187 -34.6183 -34.6181
   -34.5412 -34.5411 -34.5205 -34.5204 -34.5125 -34.5124 -34.4310 -34.4308
   -34.4231 -34.4229 -34.3987 -34.3986 -34.0549 -34.0548 -34.0536 -34.0536
   -34.0481 -34.0480 -33.8985 -33.8984 -33.8686 -33.8685 -33.8663 -33.8662
   -23.3675 -23.3670 -23.2561 -23.2556 -15.2156 -15.1915 -14.8523 -14.8362
   -14.5763 -14.5607 -14.3014 -14.2840 -14.0408 -14.0251 -13.7694 -13.7545
   -13.6086 -13.4883 -13.3878 -13.3871 -13.2884 -13.2876 -13.1792 -13.1755
   -13.1414 -13.1156 -13.1064 -13.0470 -13.0414 -13.0263 -13.0055 -12.9663
   -12.9233 -12.9055 -12.8478 -12.8226 -12.7561 -12.7323 -12.6512 -12.6107
   -12.5894 -12.5486 -12.5003 -12.4769 -12.4456 -12.4002 -12.3425 -12.3238
   -11.3636 -11.3101 -11.1626 -11.0970  -6.9064  -6.9049  -6.8545  -6.8542
    -6.8504  -6.8477  -6.8102  -6.7998  -6.7414  -6.7399  -6.7275  -6.7187
    -4.4349  -4.4041  -3.4947  -3.4671  -2.9448  -2.9142  -2.5645  -2.5204
    -1.9429  -1.8985  -1.8265  -1.5236  -1.5060  -1.3799  -1.3245  -1.2976
    -1.2254  -1.1797  -1.0470  -1.0276  -0.8501  -0.8289  -0.8114  -0.8030
    -0.6958  -0.5371  -0.4844  -0.4729  -0.4397  -0.4129  -0.3993  -0.3334
    -0.2178  -0.1902  -0.1050  -0.0502   0.0050   0.2111   0.2247   0.2567
     0.3266   0.3483   0.3866   0.3911   0.5000   0.5380   0.5429   0.7543
     0.7873   0.8069   0.9170   0.9282   1.0130   1.0494   1.0624   1.0920
     1.1923   1.2469   1.2622   1.3145   1.3228   1.3716   1.3920   1.4863
     1.4940   1.5047   1.6549   1.6917   1.7164   1.7241   1.8823   1.9154
     1.9213   1.9335   1.9974   2.0140   2.0514   2.1160   2.1293   2.1848
     2.1850   2.2510   2.2628   2.3888   2.3993   2.4085   2.4555   2.4670
     2.4702   2.5252   2.5753   2.5969   2.6155   2.6374   2.6442   2.6813
     2.7112   2.7530   2.8350   2.8538   2.8618   2.8625   2.8793   2.8940
     2.9240   2.9284   3.0055   3.0698   3.0964   3.1125   3.1640   3.1658
     3.1741   3.1955   3.2271   3.2394   3.2595   3.2704   3.2792   3.2851
     3.2987   3.3657   3.3853   3.4052   3.4394   3.4646   3.4777   3.5028
     3.5307   3.5504   3.6025   3.6105   3.6186   3.6556   3.6869   3.7039
     3.7358   3.8513   3.8631   4.0907   4.1628   4.2010   4.2701   4.3707
     7.9362   7.9522   8.1374   8.1693   8.1959   8.2316   9.1628   9.4238
     9.4373   9.6536   9.7725   9.9134  10.8202  11.0462  11.1858  11.2790
    11.3259  11.5373  11.5768  11.8012  11.8494  11.8659  11.9233  12.2494
    12.2729  12.3099  12.3643  12.4041  12.6019  12.7236  12.7558  12.8285
    12.8442  12.9502  12.9726  13.0072  13.0587  13.1191  13.1448  13.1965
    13.2755  13.2912  13.3935  13.4552  13.4907  13.5123  13.5289  13.6278
    13.6425  13.7021  13.7233  13.8249  13.8575  13.8608  13.8953  13.9326
    13.9701  14.0741

     occupation numbers 
     1.0000   1.0000   1.0000   1.0000   1.0000   1.0000   1.0000   1.0000
     1.0000   1.0000   1.0000   1.0000   1.0000   1.0000   1.0000   1.0000
     1.0000   1.0000   1.0000   1.0000   1.0000   1.0000   1.0000   1.0000
     1.0000   1.0000   1.0000   1.0000   1.0000   1.0000   1.0000   1.0000
     1.0000   1.0000   1.0000   1.0000   1.0000   1.0000   1.0000   1.0000
     1.0000   1.0000   1.0000   1.0000   1.0000   1.0000   1.0000   1.0000
     1.0000   1.0000   1.0000   1.0000   1.0000   1.0000   1.0000   1.0000
     1.0000   1.0000   1.0000   1.0000   1.0000   1.0000   1.0000   1.0000
     1.0000   1.0000   1.0000   1.0000   1.0000   1.0000   1.0000   1.0000
     1.0000   1.0000   1.0000   1.0000   1.0000   1.0000   1.0000   1.0000
     1.0000   1.0000   1.0000   1.0000   1.0000   1.0000   1.0000   1.0000
     1.0000   1.0000   1.0000   1.0000   1.0000   1.0000   1.0000   1.0000
     1.0000   1.0000   1.0000   1.0000   1.0000   1.0000   1.0000   1.0000
     1.0000   1.0000   1.0000   1.0000   1.0000   1.0000   1.0000   1.0000
     1.0000   1.0000   1.0000   1.0000   1.0000   1.0000   1.0000   1.0000
     1.0000   1.0000   1.0000   1.0000   1.0000   1.0000   1.0000   1.0000
     1.0000   1.0000   1.0000   1.0000   1.0000   1.0000   1.0000   1.0000
     1.0000   1.0000   1.0000   1.0000   1.0000   1.0000   1.0000   1.0000
     1.0000   1.0000   1.0000   1.0000   1.0000   1.0000   1.0000   1.0000
     1.0000   1.0000   1.0000   1.0000   1.0000   1.0000   1.0000   1.0000
     1.0000   1.0000   1.0000   1.0000   1.0000   1.0000   1.0000   1.0000
     1.0000   1.0000   1.0000   1.0000   1.0000   1.0000   1.0000   1.0000
     1.0000   1.0000   1.0000   1.0000   1.0000   1.0000   1.0000   1.0000
     1.0000   1.0000   1.0000   1.0000   1.0000   1.0000   1.0000   1.0000
     1.0000   1.0000   1.0000   1.0000   1.0000   1.0000   1.0000   1.0000
     1.0000   1.0000   1.0000   1.0000   1.0000   1.0000   1.0000   1.0000
     1.0000   1.0000   1.0000   1.0000   1.0000   1.0000   1.0000   1.0000
     1.0000   1.0000   1.0000   1.0000   1.0000   1.0000   1.0000   1.0000
     1.0000   1.0000   1.0000   1.0000   1.0000   1.0000   1.0000   1.0000
     1.0000   1.0000   1.0000   1.0000   1.0000   1.0000   1.0000   1.0000
     1.0000   1.0000   1.0000   1.0000   1.0000   1.0000   1.0000   1.0000
     1.0000   1.0000   1.0000   1.0000   1.0000   1.0000   1.0000   1.0000
     1.0000   1.0000   1.0000   1.0000   1.0000   1.0000   0.0000   0.0000
     0.0000   0.0000   0.0000   0.0000   0.0000   0.0000   0.0000   0.0000
     0.0000   0.0000   0.0000   0.0000   0.0000   0.0000   0.0000   0.0000
     0.0000   0.0000   0.0000   0.0000   0.0000   0.0000   0.0000   0.0000
     0.0000   0.0000   0.0000   0.0000   0.0000   0.0000   0.0000   0.0000
     0.0000   0.0000   0.0000   0.0000   0.0000   0.0000   0.0000   0.0000
     0.0000   0.0000   0.0000   0.0000   0.0000   0.0000   0.0000   0.0000
     0.0000   0.0000

          k = 0.0000 0.3869 0.0000 ( 53603 PWs)   bands (ev):

   -78.1439 -78.1436 -67.8737 -67.8736 -67.7726 -67.7726 -67.6659 -67.6659
   -67.2997 -67.2997 -67.1252 -67.1251 -44.3215 -44.3212 -44.2886 -44.2884
   -44.1696 -44.1694 -34.6397 -34.6390 -34.6195 -34.6187 -34.6183 -34.6181
   -34.5412 -34.5411 -34.5205 -34.5204 -34.5125 -34.5124 -34.4310 -34.4308
   -34.4232 -34.4228 -34.3987 -34.3986 -34.0549 -34.0547 -34.0536 -34.0536
   -34.0481 -34.0480 -33.8985 -33.8984 -33.8686 -33.8685 -33.8663 -33.8662
   -23.3675 -23.3670 -23.2561 -23.2556 -15.2187 -15.1770 -14.8582 -14.8271
   -14.5825 -14.5536 -14.3464 -14.3068 -14.0515 -14.0262 -13.7691 -13.7552
   -13.5301 -13.3857 -13.3790 -13.3759 -13.2955 -13.2729 -13.2101 -13.1625
   -13.1343 -13.1312 -13.0993 -13.0834 -13.0785 -13.0679 -13.0471 -12.9644
   -12.9321 -12.9036 -12.8347 -12.8148 -12.7658 -12.7197 -12.6465 -12.6287
   -12.5816 -12.5439 -12.4957 -12.4815 -12.4428 -12.4060 -12.3342 -12.3183
   -11.3624 -11.3105 -11.1621 -11.0960  -6.9065  -6.9044  -6.8547  -6.8542
    -6.8504  -6.8479  -6.8107  -6.8004  -6.7412  -6.7394  -6.7278  -6.7187
    -4.4007  -4.3588  -3.5203  -3.4636  -2.9729  -2.9125  -2.7251  -2.6399
    -1.8966  -1.8808  -1.7870  -1.6001  -1.5265  -1.3656  -1.2315  -1.2160
    -1.1437  -1.1040  -1.0645  -1.0600  -0.9053  -0.8008  -0.7894  -0.7493
    -0.7480  -0.4617  -0.4584  -0.4583  -0.4508  -0.4235  -0.3203  -0.3115
    -0.2244  -0.1808  -0.1725  -0.0185   0.0273   0.1704   0.2386   0.2548
     0.3465   0.3558   0.3782   0.3790   0.4337   0.4928   0.5288   0.7081
     0.7655   0.7762   0.7838   0.9269   1.0117   1.0839   1.0932   1.1103
     1.2173   1.2302   1.2706   1.3226   1.3787   1.3787   1.4139   1.4742
     1.4944   1.5320   1.5777   1.6502   1.6556   1.7378   1.7892   1.8951
     1.9088   1.9607   1.9673   2.0172   2.1478   2.1807   2.1841   2.2199
     2.2252   2.2576   2.2924   2.3626   2.3714   2.4028   2.4338   2.4922
     2.5052   2.5424   2.6274   2.6367   2.6479   2.6613   2.6699   2.7107
     2.7668   2.7759   2.7815   2.8080   2.8366   2.8409   2.8577   2.8799
     2.9638   2.9757   2.9789   2.9847   3.0341   3.0921   3.1191   3.1573
     3.1688   3.2481   3.2595   3.2628   3.2717   3.2816   3.2855   3.2936
     3.3027   3.3866   3.4077   3.4090   3.4200   3.4292   3.4509   3.4963
     3.5509   3.5569   3.5692   3.6251   3.6759   3.6818   3.6867   3.7182
     3.7873   3.8129   3.8131   4.0624   4.0881   4.1352   4.1360   4.3646
     7.9428   7.9592   8.1345   8.1697   8.1964   8.2327   9.2748   9.3857
     9.4128   9.6606   9.7963  10.2188  10.6271  11.0045  11.0902  11.2116
    11.4685  11.5123  11.5503  11.5929  11.7118  11.9998  12.1011  12.1558
    12.2703  12.2890  12.3103  12.3821  12.5595  12.6712  12.8139  12.8253
    12.8390  12.8751  13.0070  13.0130  13.0372  13.1136  13.1879  13.1971
    13.2051  13.2413  13.3950  13.4012  13.4830  13.5269  13.5412  13.5583
    13.5974  13.8177  13.8550  13.9024  13.9631  14.0023  14.0759  14.0775
    14.0788  14.1903

     occupation numbers 
     1.0000   1.0000   1.0000   1.0000   1.0000   1.0000   1.0000   1.0000
     1.0000   1.0000   1.0000   1.0000   1.0000   1.0000   1.0000   1.0000
     1.0000   1.0000   1.0000   1.0000   1.0000   1.0000   1.0000   1.0000
     1.0000   1.0000   1.0000   1.0000   1.0000   1.0000   1.0000   1.0000
     1.0000   1.0000   1.0000   1.0000   1.0000   1.0000   1.0000   1.0000
     1.0000   1.0000   1.0000   1.0000   1.0000   1.0000   1.0000   1.0000
     1.0000   1.0000   1.0000   1.0000   1.0000   1.0000   1.0000   1.0000
     1.0000   1.0000   1.0000   1.0000   1.0000   1.0000   1.0000   1.0000
     1.0000   1.0000   1.0000   1.0000   1.0000   1.0000   1.0000   1.0000
     1.0000   1.0000   1.0000   1.0000   1.0000   1.0000   1.0000   1.0000
     1.0000   1.0000   1.0000   1.0000   1.0000   1.0000   1.0000   1.0000
     1.0000   1.0000   1.0000   1.0000   1.0000   1.0000   1.0000   1.0000
     1.0000   1.0000   1.0000   1.0000   1.0000   1.0000   1.0000   1.0000
     1.0000   1.0000   1.0000   1.0000   1.0000   1.0000   1.0000   1.0000
     1.0000   1.0000   1.0000   1.0000   1.0000   1.0000   1.0000   1.0000
     1.0000   1.0000   1.0000   1.0000   1.0000   1.0000   1.0000   1.0000
     1.0000   1.0000   1.0000   1.0000   1.0000   1.0000   1.0000   1.0000
     1.0000   1.0000   1.0000   1.0000   1.0000   1.0000   1.0000   1.0000
     1.0000   1.0000   1.0000   1.0000   1.0000   1.0000   1.0000   1.0000
     1.0000   1.0000   1.0000   1.0000   1.0000   1.0000   1.0000   1.0000
     1.0000   1.0000   1.0000   1.0000   1.0000   1.0000   1.0000   1.0000
     1.0000   1.0000   1.0000   1.0000   1.0000   1.0000   1.0000   1.0000
     1.0000   1.0000   1.0000   1.0000   1.0000   1.0000   1.0000   1.0000
     1.0000   1.0000   1.0000   1.0000   1.0000   1.0000   1.0000   1.0000
     1.0000   1.0000   1.0000   1.0000   1.0000   1.0000   1.0000   1.0000
     1.0000   1.0000   1.0000   1.0000   1.0000   1.0000   1.0000   1.0000
     1.0000   1.0000   1.0000   1.0000   1.0000   1.0000   1.0000   1.0000
     1.0000   1.0000   1.0000   1.0000   1.0000   1.0000   1.0000   1.0000
     1.0000   1.0000   1.0000   1.0000   1.0000   1.0000   1.0000   1.0000
     1.0000   1.0000   1.0000   1.0000   1.0000   1.0000   1.0000   1.0000
     1.0000   1.0000   1.0000   1.0000   1.0000   1.0000   1.0000   1.0000
     1.0000   1.0000   1.0000   1.0000   1.0000   1.0000   1.0000   1.0000
     1.0000   1.0000   1.0000   1.0000   1.0000   1.0000   0.0000   0.0000
     0.0000   0.0000   0.0000   0.0000   0.0000   0.0000   0.0000   0.0000
     0.0000   0.0000   0.0000   0.0000   0.0000   0.0000   0.0000   0.0000
     0.0000   0.0000   0.0000   0.0000   0.0000   0.0000   0.0000   0.0000
     0.0000   0.0000   0.0000   0.0000   0.0000   0.0000   0.0000   0.0000
     0.0000   0.0000   0.0000   0.0000   0.0000   0.0000   0.0000   0.0000
     0.0000   0.0000   0.0000   0.0000   0.0000   0.0000   0.0000   0.0000
     0.0000   0.0000

          k = 0.0000 0.3869 0.3460 ( 53607 PWs)   bands (ev):

   -78.1439 -78.1436 -67.8737 -67.8736 -67.7726 -67.7726 -67.6659 -67.6659
   -67.2997 -67.2997 -67.1252 -67.1251 -44.3215 -44.3212 -44.2886 -44.2884
   -44.1696 -44.1694 -34.6397 -34.6390 -34.6195 -34.6187 -34.6183 -34.6181
   -34.5412 -34.5411 -34.5205 -34.5204 -34.5125 -34.5124 -34.4310 -34.4308
   -34.4232 -34.4229 -34.3987 -34.3986 -34.0549 -34.0548 -34.0536 -34.0536
   -34.0481 -34.0480 -33.8985 -33.8984 -33.8686 -33.8685 -33.8663 -33.8662
   -23.3675 -23.3670 -23.2561 -23.2556 -15.2097 -15.1865 -14.8512 -14.8346
   -14.5759 -14.5603 -14.3382 -14.3155 -14.0457 -14.0322 -13.7697 -13.7546
   -13.5261 -13.3895 -13.3803 -13.3778 -13.2884 -13.2748 -13.2102 -13.1591
   -13.1382 -13.1257 -13.1079 -13.0785 -13.0766 -13.0700 -13.0484 -12.9650
   -12.9301 -12.9037 -12.8342 -12.8174 -12.7597 -12.7296 -12.6419 -12.6164
   -12.5859 -12.5528 -12.4998 -12.4765 -12.4392 -12.4001 -12.3387 -12.3238
   -11.3622 -11.3098 -11.1627 -11.0964  -6.9066  -6.9044  -6.8546  -6.8542
    -6.8503  -6.8479  -6.8107  -6.8004  -6.7412  -6.7394  -6.7277  -6.7187
    -4.3936  -4.3662  -3.5064  -3.4780  -2.9590  -2.9282  -2.7046  -2.6621
    -1.8762  -1.8726  -1.7972  -1.5928  -1.5222  -1.3657  -1.2242  -1.2177
    -1.1386  -1.1151  -1.0577  -1.0485  -0.8855  -0.8203  -0.7938  -0.7591
    -0.7383  -0.5003  -0.4614  -0.4360  -0.4259  -0.4016  -0.3706  -0.3411
    -0.2277  -0.1963  -0.1898  -0.0319  -0.0127   0.1893   0.2307   0.2344
     0.3421   0.3499   0.3516   0.3881   0.4368   0.5032   0.5534   0.7063
     0.7630   0.7980   0.8133   0.9320   0.9637   1.0796   1.1337   1.1533
     1.1805   1.2796   1.2986   1.3260   1.3588   1.3928   1.4516   1.4891
     1.4962   1.5266   1.6226   1.6808   1.6870   1.7193   1.8310   1.8737
     1.9276   1.9494   1.9827   2.0087   2.0924   2.1749   2.1879   2.1986
     2.2282   2.2414   2.2664   2.3621   2.3624   2.3775   2.4267   2.4677
     2.5066   2.5405   2.5958   2.6005   2.6195   2.6517   2.6575   2.7233
     2.7554   2.7575   2.7874   2.8158   2.8493   2.8574   2.8875   2.9004
     2.9267   2.9588   3.0037   3.0100   3.0606   3.1028   3.1316   3.1511
     3.1928   3.2181   3.2421   3.2598   3.2762   3.2833   3.3006   3.3216
     3.3272   3.3568   3.3908   3.3956   3.4146   3.4440   3.4922   3.4991
     3.5340   3.5352   3.5761   3.6033   3.6391   3.6500   3.7059   3.7148
     3.7727   3.7950   3.8733   4.0706   4.1015   4.1270   4.1421   4.3673
     7.9444   7.9591   8.1353   8.1705   8.1962   8.2298   9.3221   9.4064
     9.5810   9.6734   9.8004  10.2043  10.4109  10.9096  10.9882  11.1703
    11.3921  11.5372  11.6117  11.6162  11.6490  12.0219  12.0270  12.0802
    12.2968  12.3182  12.4070  12.4585  12.6661  12.7470  12.7884  12.8209
    12.8929  12.9299  13.0154  13.0559  13.1052  13.1255  13.2154  13.2508
    13.3159  13.3537  13.3727  13.3764  13.4779  13.4828  13.5647  13.5656
    13.6471  13.7054  13.8221  13.8825  13.8924  13.9472  13.9557  13.9842
    14.0346  14.1047

     occupation numbers 
     1.0000   1.0000   1.0000   1.0000   1.0000   1.0000   1.0000   1.0000
     1.0000   1.0000   1.0000   1.0000   1.0000   1.0000   1.0000   1.0000
     1.0000   1.0000   1.0000   1.0000   1.0000   1.0000   1.0000   1.0000
     1.0000   1.0000   1.0000   1.0000   1.0000   1.0000   1.0000   1.0000
     1.0000   1.0000   1.0000   1.0000   1.0000   1.0000   1.0000   1.0000
     1.0000   1.0000   1.0000   1.0000   1.0000   1.0000   1.0000   1.0000
     1.0000   1.0000   1.0000   1.0000   1.0000   1.0000   1.0000   1.0000
     1.0000   1.0000   1.0000   1.0000   1.0000   1.0000   1.0000   1.0000
     1.0000   1.0000   1.0000   1.0000   1.0000   1.0000   1.0000   1.0000
     1.0000   1.0000   1.0000   1.0000   1.0000   1.0000   1.0000   1.0000
     1.0000   1.0000   1.0000   1.0000   1.0000   1.0000   1.0000   1.0000
     1.0000   1.0000   1.0000   1.0000   1.0000   1.0000   1.0000   1.0000
     1.0000   1.0000   1.0000   1.0000   1.0000   1.0000   1.0000   1.0000
     1.0000   1.0000   1.0000   1.0000   1.0000   1.0000   1.0000   1.0000
     1.0000   1.0000   1.0000   1.0000   1.0000   1.0000   1.0000   1.0000
     1.0000   1.0000   1.0000   1.0000   1.0000   1.0000   1.0000   1.0000
     1.0000   1.0000   1.0000   1.0000   1.0000   1.0000   1.0000   1.0000
     1.0000   1.0000   1.0000   1.0000   1.0000   1.0000   1.0000   1.0000
     1.0000   1.0000   1.0000   1.0000   1.0000   1.0000   1.0000   1.0000
     1.0000   1.0000   1.0000   1.0000   1.0000   1.0000   1.0000   1.0000
     1.0000   1.0000   1.0000   1.0000   1.0000   1.0000   1.0000   1.0000
     1.0000   1.0000   1.0000   1.0000   1.0000   1.0000   1.0000   1.0000
     1.0000   1.0000   1.0000   1.0000   1.0000   1.0000   1.0000   1.0000
     1.0000   1.0000   1.0000   1.0000   1.0000   1.0000   1.0000   1.0000
     1.0000   1.0000   1.0000   1.0000   1.0000   1.0000   1.0000   1.0000
     1.0000   1.0000   1.0000   1.0000   1.0000   1.0000   1.0000   1.0000
     1.0000   1.0000   1.0000   1.0000   1.0000   1.0000   1.0000   1.0000
     1.0000   1.0000   1.0000   1.0000   1.0000   1.0000   1.0000   1.0000
     1.0000   1.0000   1.0000   1.0000   1.0000   1.0000   1.0000   1.0000
     1.0000   1.0000   1.0000   1.0000   1.0000   1.0000   1.0000   1.0000
     1.0000   1.0000   1.0000   1.0000   1.0000   1.0000   1.0000   1.0000
     1.0000   1.0000   1.0000   1.0000   1.0000   1.0000   1.0000   1.0000
     1.0000   1.0000   1.0000   1.0000   1.0000   1.0000   0.0000   0.0000
     0.0000   0.0000   0.0000   0.0000   0.0000   0.0000   0.0000   0.0000
     0.0000   0.0000   0.0000   0.0000   0.0000   0.0000   0.0000   0.0000
     0.0000   0.0000   0.0000   0.0000   0.0000   0.0000   0.0000   0.0000
     0.0000   0.0000   0.0000   0.0000   0.0000   0.0000   0.0000   0.0000
     0.0000   0.0000   0.0000   0.0000   0.0000   0.0000   0.0000   0.0000
     0.0000   0.0000   0.0000   0.0000   0.0000   0.0000   0.0000   0.0000
     0.0000   0.0000

          k = 0.3347 0.0000 0.0614 ( 53607 PWs)   bands (ev):

   -78.1439 -78.1436 -67.8737 -67.8736 -67.7726 -67.7726 -67.6659 -67.6659
   -67.2997 -67.2997 -67.1252 -67.1251 -44.3215 -44.3213 -44.2886 -44.2884
   -44.1696 -44.1694 -34.6395 -34.6391 -34.6193 -34.6189 -34.6183 -34.6182
   -34.5412 -34.5411 -34.5205 -34.5204 -34.5125 -34.5124 -34.4310 -34.4309
   -34.4231 -34.4229 -34.3987 -34.3986 -34.0549 -34.0548 -34.0536 -34.0536
   -34.0481 -34.0480 -33.8985 -33.8984 -33.8686 -33.8685 -33.8663 -33.8662
   -23.3674 -23.3671 -23.2560 -23.2557 -15.1666 -15.1255 -15.0081 -14.9706
   -14.4336 -14.4069 -14.3241 -14.2930 -14.0195 -13.9939 -13.8907 -13.8676
   -13.5482 -13.4555 -13.4030 -13.3447 -13.3042 -13.2750 -13.2391 -13.2368
   -13.1519 -13.1274 -13.0647 -13.0311 -13.0171 -12.9961 -12.9953 -12.9800
   -12.9063 -12.9003 -12.8359 -12.8259 -12.7360 -12.6874 -12.6756 -12.6123
   -12.6095 -12.5551 -12.5330 -12.5078 -12.4277 -12.4115 -12.3263 -12.3185
   -11.3525 -11.3268 -11.1422 -11.1103  -6.9058  -6.9050  -6.8547  -6.8545
    -6.8497  -6.8483  -6.8075  -6.8023  -6.7411  -6.7403  -6.7254  -6.7209
    -4.2832  -4.2380  -3.8759  -3.8175  -2.6845  -2.5855  -2.5548  -2.4696
    -1.9615  -1.9612  -1.8165  -1.5931  -1.5836  -1.5616  -1.4752  -1.4186
    -1.0436  -1.0012  -0.9768  -0.9563  -0.8810  -0.8645  -0.8359  -0.7844
    -0.7045  -0.5826  -0.5089  -0.4728  -0.4652  -0.4033  -0.3307  -0.2928
    -0.2389  -0.1203  -0.0581  -0.0565   0.0317   0.0798   0.2274   0.2309
     0.3252   0.3434   0.4326   0.4463   0.4810   0.5048   0.5654   0.6238
     0.8454   0.9026   0.9061   0.9918   0.9931   1.0583   1.0816   1.1053
     1.1887   1.2243   1.2744   1.3005   1.3639   1.3766   1.3911   1.4381
     1.4658   1.5085   1.5355   1.6378   1.7062   1.7708   1.7872   1.8346
     1.9020   1.9121   2.0864   2.1094   2.1205   2.1353   2.1795   2.1901
     2.2224   2.2529   2.3179   2.3618   2.4352   2.4442   2.4532   2.4656
     2.5000   2.5192   2.5292   2.5602   2.5717   2.6004   2.6919   2.6995
     2.7291   2.7425   2.7756   2.7943   2.8725   2.9049   2.9172   2.9393
     2.9417   2.9783   3.0041   3.0179   3.0415   3.0690   3.0888   3.0944
     3.1147   3.1720   3.2297   3.2582   3.2636   3.2765   3.3064   3.3245
     3.3460   3.3551   3.3864   3.4299   3.4485   3.4833   3.4882   3.5174
     3.5288   3.5865   3.5883   3.6024   3.6487   3.6731   3.6815   3.7164
     3.7501   3.8066   3.9140   4.0845   4.1329   4.2006   4.2371   4.2758
     7.9398   7.9485   8.1600   8.1752   8.1906   8.2106   9.1731   9.4306
     9.4357   9.6052   9.7761  10.0837  10.5549  10.9802  11.1619  11.3146
    11.4144  11.6562  11.7744  11.8089  11.8591  11.9157  11.9875  12.0908
    12.2461  12.4099  12.4608  12.4922  12.5171  12.6663  12.7067  12.7832
    12.9130  12.9156  12.9282  13.0104  13.0252  13.1587  13.2301  13.2627
    13.2644  13.3159  13.3172  13.3430  13.4128  13.4304  13.4941  13.5372
    13.5414  13.6576  13.8090  13.8397  13.8760  13.9156  13.9366  14.0129
    14.0406  14.2006

     occupation numbers 
     1.0000   1.0000   1.0000   1.0000   1.0000   1.0000   1.0000   1.0000
     1.0000   1.0000   1.0000   1.0000   1.0000   1.0000   1.0000   1.0000
     1.0000   1.0000   1.0000   1.0000   1.0000   1.0000   1.0000   1.0000
     1.0000   1.0000   1.0000   1.0000   1.0000   1.0000   1.0000   1.0000
     1.0000   1.0000   1.0000   1.0000   1.0000   1.0000   1.0000   1.0000
     1.0000   1.0000   1.0000   1.0000   1.0000   1.0000   1.0000   1.0000
     1.0000   1.0000   1.0000   1.0000   1.0000   1.0000   1.0000   1.0000
     1.0000   1.0000   1.0000   1.0000   1.0000   1.0000   1.0000   1.0000
     1.0000   1.0000   1.0000   1.0000   1.0000   1.0000   1.0000   1.0000
     1.0000   1.0000   1.0000   1.0000   1.0000   1.0000   1.0000   1.0000
     1.0000   1.0000   1.0000   1.0000   1.0000   1.0000   1.0000   1.0000
     1.0000   1.0000   1.0000   1.0000   1.0000   1.0000   1.0000   1.0000
     1.0000   1.0000   1.0000   1.0000   1.0000   1.0000   1.0000   1.0000
     1.0000   1.0000   1.0000   1.0000   1.0000   1.0000   1.0000   1.0000
     1.0000   1.0000   1.0000   1.0000   1.0000   1.0000   1.0000   1.0000
     1.0000   1.0000   1.0000   1.0000   1.0000   1.0000   1.0000   1.0000
     1.0000   1.0000   1.0000   1.0000   1.0000   1.0000   1.0000   1.0000
     1.0000   1.0000   1.0000   1.0000   1.0000   1.0000   1.0000   1.0000
     1.0000   1.0000   1.0000   1.0000   1.0000   1.0000   1.0000   1.0000
     1.0000   1.0000   1.0000   1.0000   1.0000   1.0000   1.0000   1.0000
     1.0000   1.0000   1.0000   1.0000   1.0000   1.0000   1.0000   1.0000
     1.0000   1.0000   1.0000   1.0000   1.0000   1.0000   1.0000   1.0000
     1.0000   1.0000   1.0000   1.0000   1.0000   1.0000   1.0000   1.0000
     1.0000   1.0000   1.0000   1.0000   1.0000   1.0000   1.0000   1.0000
     1.0000   1.0000   1.0000   1.0000   1.0000   1.0000   1.0000   1.0000
     1.0000   1.0000   1.0000   1.0000   1.0000   1.0000   1.0000   1.0000
     1.0000   1.0000   1.0000   1.0000   1.0000   1.0000   1.0000   1.0000
     1.0000   1.0000   1.0000   1.0000   1.0000   1.0000   1.0000   1.0000
     1.0000   1.0000   1.0000   1.0000   1.0000   1.0000   1.0000   1.0000
     1.0000   1.0000   1.0000   1.0000   1.0000   1.0000   1.0000   1.0000
     1.0000   1.0000   1.0000   1.0000   1.0000   1.0000   1.0000   1.0000
     1.0000   1.0000   1.0000   1.0000   1.0000   1.0000   1.0000   1.0000
     1.0000   1.0000   1.0000   1.0000   1.0000   1.0000   0.0000   0.0000
     0.0000   0.0000   0.0000   0.0000   0.0000   0.0000   0.0000   0.0000
     0.0000   0.0000   0.0000   0.0000   0.0000   0.0000   0.0000   0.0000
     0.0000   0.0000   0.0000   0.0000   0.0000   0.0000   0.0000   0.0000
     0.0000   0.0000   0.0000   0.0000   0.0000   0.0000   0.0000   0.0000
     0.0000   0.0000   0.0000   0.0000   0.0000   0.0000   0.0000   0.0000
     0.0000   0.0000   0.0000   0.0000   0.0000   0.0000   0.0000   0.0000
     0.0000   0.0000

          k = 0.3347 0.0000 0.4074 ( 53609 PWs)   bands (ev):

   -78.1439 -78.1436 -67.8737 -67.8736 -67.7726 -67.7726 -67.6659 -67.6659
   -67.2997 -67.2997 -67.1252 -67.1251 -44.3215 -44.3212 -44.2886 -44.2884
   -44.1696 -44.1694 -34.6395 -34.6391 -34.6193 -34.6189 -34.6183 -34.6181
   -34.5412 -34.5411 -34.5205 -34.5204 -34.5125 -34.5124 -34.4310 -34.4309
   -34.4231 -34.4229 -34.3987 -34.3986 -34.0549 -34.0548 -34.0536 -34.0536
   -34.0481 -34.0481 -33.8985 -33.8985 -33.8686 -33.8685 -33.8663 -33.8663
   -23.3674 -23.3671 -23.2560 -23.2557 -15.1556 -15.1370 -15.0039 -14.9751
   -14.4257 -14.4150 -14.3163 -14.3011 -14.0148 -13.9988 -13.8860 -13.8725
   -13.5431 -13.4541 -13.4158 -13.3383 -13.3078 -13.2715 -13.2439 -13.2278
   -13.1535 -13.1281 -13.0660 -13.0234 -13.0083 -13.0059 -13.0038 -12.9794
   -12.9062 -12.8964 -12.8369 -12.8285 -12.7288 -12.6973 -12.6707 -12.6186
   -12.5963 -12.5481 -12.5429 -12.5140 -12.4210 -12.4058 -12.3322 -12.3235
   -11.3522 -11.3262 -11.1428 -11.1108  -6.9059  -6.9050  -6.8546  -6.8545
    -6.8496  -6.8483  -6.8076  -6.8023  -6.7410  -6.7403  -6.7254  -6.7209
    -4.2836  -4.2378  -3.8524  -3.8417  -2.6764  -2.5952  -2.5403  -2.4874
    -1.9506  -1.9354  -1.8303  -1.6121  -1.5869  -1.5459  -1.4610  -1.4155
    -1.0396  -0.9889  -0.9819  -0.9555  -0.8739  -0.8614  -0.8263  -0.7931
    -0.7016  -0.5874  -0.5028  -0.4635  -0.4624  -0.4227  -0.4113  -0.3310
    -0.2301  -0.0919  -0.0849  -0.0313  -0.0071   0.1048   0.1855   0.1876
     0.3318   0.3435   0.4292   0.4474   0.4588   0.5260   0.5748   0.6654
     0.8537   0.8893   0.9468   1.0013   1.0077   1.0462   1.0706   1.1552
     1.1623   1.2038   1.3003   1.3146   1.3703   1.3879   1.4107   1.4438
     1.4657   1.4960   1.5678   1.6486   1.7323   1.8060   1.8112   1.8297
     1.8891   1.9841   2.0648   2.1020   2.1170   2.1399   2.1718   2.1880
     2.1967   2.2526   2.2814   2.3395   2.3509   2.4209   2.4382   2.4643
     2.4874   2.5210   2.5446   2.5788   2.5796   2.6300   2.6630   2.6855
     2.6986   2.7184   2.7832   2.7861   2.8884   2.8996   2.9060   2.9218
     2.9666   2.9801   2.9989   3.0259   3.0682   3.0928   3.1069   3.1238
     3.1281   3.1684   3.2421   3.2498   3.2626   3.2649   3.2941   3.3303
     3.3404   3.3468   3.4049   3.4082   3.4369   3.4762   3.5043   3.5184
     3.5264   3.5523   3.5962   3.6050   3.6134   3.6247   3.6695   3.7235
     3.7948   3.8238   3.9229   4.0816   4.1326   4.2142   4.2400   4.2777
     7.9402   7.9490   8.1609   8.1753   8.1904   8.2092   9.4071   9.4316
     9.4662   9.6685   9.8755   9.9982  10.0251  10.9225  11.2552  11.4427
    11.4448  11.6346  11.6364  11.7749  11.9478  11.9582  12.0154  12.0837
    12.2095  12.3004  12.4042  12.5696  12.6018  12.6623  12.7760  12.8527
    12.9154  12.9620  13.0146  13.0394  13.0508  13.1000  13.1854  13.2090
    13.2620  13.2914  13.3178  13.3655  13.3754  13.4473  13.4490  13.5601
    13.5973  13.6576  13.7288  13.7331  13.8380  13.8827  13.9465  14.0348
    14.0374  14.2172

     occupation numbers 
     1.0000   1.0000   1.0000   1.0000   1.0000   1.0000   1.0000   1.0000
     1.0000   1.0000   1.0000   1.0000   1.0000   1.0000   1.0000   1.0000
     1.0000   1.0000   1.0000   1.0000   1.0000   1.0000   1.0000   1.0000
     1.0000   1.0000   1.0000   1.0000   1.0000   1.0000   1.0000   1.0000
     1.0000   1.0000   1.0000   1.0000   1.0000   1.0000   1.0000   1.0000
     1.0000   1.0000   1.0000   1.0000   1.0000   1.0000   1.0000   1.0000
     1.0000   1.0000   1.0000   1.0000   1.0000   1.0000   1.0000   1.0000
     1.0000   1.0000   1.0000   1.0000   1.0000   1.0000   1.0000   1.0000
     1.0000   1.0000   1.0000   1.0000   1.0000   1.0000   1.0000   1.0000
     1.0000   1.0000   1.0000   1.0000   1.0000   1.0000   1.0000   1.0000
     1.0000   1.0000   1.0000   1.0000   1.0000   1.0000   1.0000   1.0000
     1.0000   1.0000   1.0000   1.0000   1.0000   1.0000   1.0000   1.0000
     1.0000   1.0000   1.0000   1.0000   1.0000   1.0000   1.0000   1.0000
     1.0000   1.0000   1.0000   1.0000   1.0000   1.0000   1.0000   1.0000
     1.0000   1.0000   1.0000   1.0000   1.0000   1.0000   1.0000   1.0000
     1.0000   1.0000   1.0000   1.0000   1.0000   1.0000   1.0000   1.0000
     1.0000   1.0000   1.0000   1.0000   1.0000   1.0000   1.0000   1.0000
     1.0000   1.0000   1.0000   1.0000   1.0000   1.0000   1.0000   1.0000
     1.0000   1.0000   1.0000   1.0000   1.0000   1.0000   1.0000   1.0000
     1.0000   1.0000   1.0000   1.0000   1.0000   1.0000   1.0000   1.0000
     1.0000   1.0000   1.0000   1.0000   1.0000   1.0000   1.0000   1.0000
     1.0000   1.0000   1.0000   1.0000   1.0000   1.0000   1.0000   1.0000
     1.0000   1.0000   1.0000   1.0000   1.0000   1.0000   1.0000   1.0000
     1.0000   1.0000   1.0000   1.0000   1.0000   1.0000   1.0000   1.0000
     1.0000   1.0000   1.0000   1.0000   1.0000   1.0000   1.0000   1.0000
     1.0000   1.0000   1.0000   1.0000   1.0000   1.0000   1.0000   1.0000
     1.0000   1.0000   1.0000   1.0000   1.0000   1.0000   1.0000   1.0000
     1.0000   1.0000   1.0000   1.0000   1.0000   1.0000   1.0000   1.0000
     1.0000   1.0000   1.0000   1.0000   1.0000   1.0000   1.0000   1.0000
     1.0000   1.0000   1.0000   1.0000   1.0000   1.0000   1.0000   1.0000
     1.0000   1.0000   1.0000   1.0000   1.0000   1.0000   1.0000   1.0000
     1.0000   1.0000   1.0000   1.0000   1.0000   1.0000   1.0000   1.0000
     1.0000   1.0000   1.0000   1.0000   1.0000   1.0000   0.0000   0.0000
     0.0000   0.0000   0.0000   0.0000   0.0000   0.0000   0.0000   0.0000
     0.0000   0.0000   0.0000   0.0000   0.0000   0.0000   0.0000   0.0000
     0.0000   0.0000   0.0000   0.0000   0.0000   0.0000   0.0000   0.0000
     0.0000   0.0000   0.0000   0.0000   0.0000   0.0000   0.0000   0.0000
     0.0000   0.0000   0.0000   0.0000   0.0000   0.0000   0.0000   0.0000
     0.0000   0.0000   0.0000   0.0000   0.0000   0.0000   0.0000   0.0000
     0.0000   0.0000

          k = 0.3347 0.0000-0.2846 ( 53589 PWs)   bands (ev):

   -78.1439 -78.1436 -67.8737 -67.8736 -67.7726 -67.7726 -67.6659 -67.6659
   -67.2997 -67.2997 -67.1252 -67.1251 -44.3215 -44.3212 -44.2886 -44.2883
   -44.1696 -44.1694 -34.6395 -34.6391 -34.6193 -34.6189 -34.6183 -34.6181
   -34.5412 -34.5411 -34.5205 -34.5204 -34.5125 -34.5124 -34.4310 -34.4309
   -34.4231 -34.4229 -34.3987 -34.3986 -34.0549 -34.0548 -34.0536 -34.0536
   -34.0481 -34.0480 -33.8985 -33.8985 -33.8686 -33.8685 -33.8663 -33.8662
   -23.3674 -23.3671 -23.2560 -23.2557 -15.1600 -15.1325 -14.9951 -14.9842
   -14.4316 -14.4090 -14.3168 -14.3006 -14.0130 -14.0006 -13.8856 -13.8728
   -13.5447 -13.4520 -13.4108 -13.3428 -13.3120 -13.2713 -13.2424 -13.2278
   -13.1531 -13.1278 -13.0580 -13.0265 -13.0195 -13.0016 -13.0007 -12.9792
   -12.9059 -12.8986 -12.8368 -12.8284 -12.7309 -12.6936 -12.6682 -12.6208
   -12.6000 -12.5415 -12.5405 -12.5206 -12.4214 -12.4049 -12.3311 -12.3247
   -11.3521 -11.3262 -11.1429 -11.1107  -6.9058  -6.9051  -6.8546  -6.8545
    -6.8496  -6.8483  -6.8076  -6.8024  -6.7410  -6.7403  -6.7254  -6.7209
    -4.2667  -4.2549  -3.8764  -3.8172  -2.6678  -2.6043  -2.5384  -2.4880
    -1.9462  -1.9410  -1.8433  -1.6085  -1.5769  -1.5448  -1.4641  -1.4096
    -1.0314  -0.9980  -0.9909  -0.9600  -0.8715  -0.8693  -0.8213  -0.7727
    -0.7198  -0.5614  -0.4999  -0.4824  -0.4445  -0.4275  -0.3927  -0.3758
    -0.2030  -0.1139  -0.0849  -0.0347   0.0063   0.0809   0.1853   0.2019
     0.3300   0.3508   0.4229   0.4432   0.4862   0.5046   0.6079   0.6533
     0.8660   0.9038   0.9250   0.9825   0.9912   1.0400   1.0834   1.1025
     1.1574   1.2289   1.3124   1.3388   1.3614   1.3782   1.4210   1.4214
     1.4959   1.5487   1.5827   1.5926   1.7336   1.7819   1.8386   1.8586
     1.9118   1.9160   2.0672   2.0910   2.1077   2.1481   2.1546   2.1786
     2.2256   2.2363   2.3016   2.3115   2.4030   2.4257   2.4302   2.4530
     2.5015   2.5252   2.5479   2.5657   2.5871   2.6023   2.6487   2.6746
     2.7190   2.7322   2.7972   2.8333   2.8706   2.8848   2.8949   2.9118
     2.9281   2.9939   3.0125   3.0483   3.0694   3.0846   3.0955   3.1082
     3.1393   3.1521   3.2222   3.2559   3.2623   3.2752   3.3412   3.3415
     3.3500   3.3599   3.3611   3.3955   3.4244   3.4629   3.5066   3.5097
     3.5298   3.5606   3.5958   3.6064   3.6250   3.6335   3.6961   3.6993
     3.7638   3.8448   3.9435   4.0796   4.1294   4.2099   4.2409   4.2758
     7.9411   7.9482   8.1596   8.1747   8.1909   8.2109   9.3497   9.4318
     9.4426   9.6265   9.7088  10.3042  10.3739  10.5295  11.2914  11.3714
    11.5010  11.6226  11.7149  11.7565  11.8689  11.9482  11.9880  12.0609
    12.2252  12.3121  12.4151  12.5285  12.6721  12.7003  12.7064  12.7938
    12.9143  13.0018  13.0071  13.0352  13.0780  13.1486  13.1694  13.1790
    13.2659  13.2826  13.3233  13.3947  13.4287  13.4863  13.4940  13.5491
    13.5899  13.6668  13.7025  13.7274  13.7712  13.8294  13.9296  14.0274
    14.1201  14.1515

     occupation numbers 
     1.0000   1.0000   1.0000   1.0000   1.0000   1.0000   1.0000   1.0000
     1.0000   1.0000   1.0000   1.0000   1.0000   1.0000   1.0000   1.0000
     1.0000   1.0000   1.0000   1.0000   1.0000   1.0000   1.0000   1.0000
     1.0000   1.0000   1.0000   1.0000   1.0000   1.0000   1.0000   1.0000
     1.0000   1.0000   1.0000   1.0000   1.0000   1.0000   1.0000   1.0000
     1.0000   1.0000   1.0000   1.0000   1.0000   1.0000   1.0000   1.0000
     1.0000   1.0000   1.0000   1.0000   1.0000   1.0000   1.0000   1.0000
     1.0000   1.0000   1.0000   1.0000   1.0000   1.0000   1.0000   1.0000
     1.0000   1.0000   1.0000   1.0000   1.0000   1.0000   1.0000   1.0000
     1.0000   1.0000   1.0000   1.0000   1.0000   1.0000   1.0000   1.0000
[...]
     atom   10 type  6   force =    -0.00003623   -0.00000099   -0.00000012
     atom   11 type  6   force =     0.00001478    0.00001452    0.00000897
     atom   12 type  6   force =    -0.00001478    0.00001452   -0.00000897
     atom   13 type  6   force =     0.00003531   -0.00000898    0.00000408
     atom   14 type  6   force =    -0.00003531   -0.00000898   -0.00000408
     atom   15 type  8   force =     0.00000391   -0.00000662   -0.00000242
     atom   16 type  8   force =    -0.00000413   -0.00000468    0.00001027
     atom   17 type  8   force =     0.00000413   -0.00000468   -0.00001027
     atom   18 type  8   force =    -0.00000391   -0.00000662    0.00000242
     atom   19 type  8   force =     0.00000154    0.00000217   -0.00000130
     atom   20 type  8   force =    -0.00000139    0.00000510    0.00000324
     atom   21 type  8   force =     0.00000139    0.00000510   -0.00000324
     atom   22 type  8   force =    -0.00000154    0.00000217    0.00000130
     atom   23 type  8   force =     0.00000797    0.00000301    0.00000158
     atom   24 type  8   force =    -0.00000733    0.00000551   -0.00000190
     atom   25 type  8   force =     0.00000733    0.00000551    0.00000190
     atom   26 type  8   force =    -0.00000797    0.00000301   -0.00000158
     atom   27 type  1   force =     0.00000549   -0.00000158    0.00000204
     atom   28 type  1   force =    -0.00000481   -0.00000188   -0.00000713
     atom   29 type  1   force =     0.00000481   -0.00000188    0.00000713
     atom   30 type  1   force =    -0.00000549   -0.00000158   -0.00000204
     atom   31 type  7   force =     0.00001331   -0.00001478   -0.00000764
     atom   32 type  7   force =    -0.00001191   -0.00000379    0.00000645
     atom   33 type  7   force =     0.00001191   -0.00000379   -0.00000645
     atom   34 type  7   force =    -0.00001331   -0.00001478    0.00000764
     atom   35 type  7   force =     0.00001040    0.00000697   -0.00000364
     atom   36 type  7   force =    -0.00000805    0.00001240    0.00000070
     atom   37 type  7   force =     0.00000805    0.00001240   -0.00000070
     atom   38 type  7   force =    -0.00001040    0.00000697    0.00000364
     atom   39 type  7   force =     0.00002334    0.00000330    0.00000240
     atom   40 type  7   force =    -0.00002166    0.00001326   -0.00000767
     atom   41 type  7   force =     0.00002166    0.00001326    0.00000767
     atom   42 type  7   force =    -0.00002334    0.00000330   -0.00000240
     atom   43 type  7   force =     0.00002895   -0.00001015    0.00000620
     atom   44 type  7   force =    -0.00002867   -0.00000822   -0.00000471
     atom   45 type  7   force =     0.00002867   -0.00000822    0.00000471
     atom   46 type  7   force =    -0.00002895   -0.00001015   -0.00000620
     atom   47 type  7   force =     0.00001391   -0.00000453    0.00000463
     atom   48 type  7   force =    -0.00001848   -0.00000797    0.00000569
     atom   49 type  7   force =     0.00001848   -0.00000797   -0.00000569
     atom   50 type  7   force =    -0.00001391   -0.00000453   -0.00000463
     atom   51 type  7   force =     0.00000286   -0.00000269   -0.00000338
     atom   52 type  7   force =     0.00000025    0.00000611    0.00001306
     atom   53 type  7   force =    -0.00000025    0.00000611   -0.00001306
     atom   54 type  7   force =    -0.00000286   -0.00000269    0.00000338
     atom   55 type  7   force =     0.00000922    0.00000061   -0.00000044
     atom   56 type  7   force =    -0.00001118    0.00000987    0.00000565
     atom   57 type  7   force =     0.00001118    0.00000987   -0.00000565
     atom   58 type  7   force =    -0.00000922    0.00000061    0.00000044
     atom   59 type  7   force =     0.00000670   -0.00000109    0.00000776
     atom   60 type  7   force =    -0.00000954    0.00001010   -0.00001282
     atom   61 type  7   force =     0.00000954    0.00001010    0.00001282
     atom   62 type  7   force =    -0.00000670   -0.00000109   -0.00000776
     atom   63 type  7   force =     0.00001710   -0.00000206    0.00000464
     atom   64 type  7   force =    -0.00001507    0.00000811   -0.00000516
     atom   65 type  7   force =     0.00001507    0.00000811    0.00000516
     atom   66 type  7   force =    -0.00001710   -0.00000206   -0.00000464
     atom   67 type  7   force =    -0.00000038   -0.00000819    0.00000894
     atom   68 type  7   force =    -0.00000209   -0.00000591   -0.00001523
     atom   69 type  7   force =     0.00000209   -0.00000591    0.00001523
     atom   70 type  7   force =     0.00000038   -0.00000819   -0.00000894
     atom   71 type  7   force =     0.00001571    0.00000526   -0.00001643
     atom   72 type  7   force =    -0.00001205   -0.00000142    0.00000604
     atom   73 type  7   force =     0.00001205   -0.00000142   -0.00000604
     atom   74 type  7   force =    -0.00001571    0.00000526    0.00001643
     atom   75 type  7   force =     0.00001835    0.00000451    0.00000684
     atom   76 type  7   force =    -0.00001867   -0.00000499   -0.00000052
     atom   77 type  7   force =     0.00001867   -0.00000499    0.00000052
     atom   78 type  7   force =    -0.00001835    0.00000451   -0.00000684
     atom   79 type  4   force =     0.00000140   -0.00000036   -0.00000509
     atom   80 type  4   force =    -0.00000124    0.00000004    0.00000208
     atom   81 type  4   force =     0.00000124    0.00000004   -0.00000208
     atom   82 type  4   force =    -0.00000140   -0.00000036    0.00000509
     atom   83 type  4   force =     0.00000206    0.00000068   -0.00000012
     atom   84 type  4   force =    -0.00000214   -0.00000062   -0.00000037
     atom   85 type  4   force =     0.00000214   -0.00000062    0.00000037
     atom   86 type  4   force =    -0.00000206    0.00000068    0.00000012
     atom   87 type  2   force =     0.00000000   -0.00005373   -0.00000000
     atom   88 type  3   force =    -0.00000000   -0.00003097   -0.00000000

     DFT-D3 dispersion contribution to forces:
     atom    1 type  5   force =     0.00000001    0.00083323   -0.00000000
     atom    2 type  5   force =     0.00000001    0.00083321   -0.00000000
     atom    3 type  5   force =     0.00000002   -0.00056038    0.00000001
     atom    4 type  5   force =    -0.00000002   -0.00056038   -0.00000000
     atom    5 type  6   force =    -0.00000001    0.00068048    0.00000000
     atom    6 type  6   force =    -0.00000000    0.00068046    0.00000000
     atom    7 type  6   force =    -0.00000001   -0.00153955   -0.00000000
     atom    8 type  6   force =    -0.00000001   -0.00153951   -0.00000000
     atom    9 type  6   force =    -0.00000001   -0.00082146   -0.00000003
     atom   10 type  6   force =     0.00000002   -0.00082146    0.00000003
     atom   11 type  6   force =     0.00000007    0.00116141    0.00000003
     atom   12 type  6   force =    -0.00000006    0.00116141   -0.00000003
     atom   13 type  6   force =     0.00000008   -0.00003932    0.00000003
     atom   14 type  6   force =    -0.00000007   -0.00003932   -0.00000003
     atom   15 type  8   force =    -0.00003630   -0.00004161   -0.00007093
     atom   16 type  8   force =    -0.00003630   -0.00004161   -0.00007090
     atom   17 type  8   force =     0.00003630   -0.00004161    0.00007091
     atom   18 type  8   force =     0.00003630   -0.00004161    0.00007093
     atom   19 type  8   force =     0.00005716   -0.00003805    0.00014207
     atom   20 type  8   force =     0.00005715   -0.00003804    0.00014208
     atom   21 type  8   force =    -0.00005715   -0.00003804   -0.00014208
     atom   22 type  8   force =    -0.00005715   -0.00003805   -0.00014207
     atom   23 type  8   force =    -0.00015442    0.00012747   -0.00017029
     atom   24 type  8   force =    -0.00015444    0.00012746   -0.00017029
     atom   25 type  8   force =     0.00015444    0.00012746    0.00017029
     atom   26 type  8   force =     0.00015442    0.00012747    0.00017028
     atom   27 type  1   force =    -0.00001808    0.00007310   -0.00101970
     atom   28 type  1   force =    -0.00001811    0.00007311   -0.00101972
     atom   29 type  1   force =     0.00001811    0.00007311    0.00101972
     atom   30 type  1   force =     0.00001808    0.00007310    0.00101970
     atom   31 type  7   force =    -0.00000066   -0.00001184    0.00048365
     atom   32 type  7   force =    -0.00000065   -0.00001182    0.00048366
     atom   33 type  7   force =     0.00000065   -0.00001182   -0.00048366
     atom   34 type  7   force =     0.00000066   -0.00001184   -0.00048365
     atom   35 type  7   force =    -0.00000858    0.00001928   -0.00037771
     atom   36 type  7   force =    -0.00000855    0.00001927   -0.00037770
     atom   37 type  7   force =     0.00000855    0.00001927    0.00037770
     atom   38 type  7   force =     0.00000858    0.00001928    0.00037771
     atom   39 type  7   force =    -0.00000536   -0.00005539    0.00041717
     atom   40 type  7   force =    -0.00000536   -0.00005538    0.00041717
     atom   41 type  7   force =     0.00000536   -0.00005538   -0.00041717
     atom   42 type  7   force =     0.00000536   -0.00005539   -0.00041717
     atom   43 type  7   force =     0.00003818   -0.00003530    0.00008354
     atom   44 type  7   force =     0.00003822   -0.00003532    0.00008357
     atom   45 type  7   force =    -0.00003822   -0.00003532   -0.00008357
     atom   46 type  7   force =    -0.00003818   -0.00003530   -0.00008354
     atom   47 type  7   force =    -0.00022055    0.00105057    0.00021692
     atom   48 type  7   force =    -0.00022056    0.00105058    0.00021690
     atom   49 type  7   force =     0.00022056    0.00105058   -0.00021690
     atom   50 type  7   force =     0.00022055    0.00105057   -0.00021692
     atom   51 type  7   force =     0.00086156    0.00008836    0.00020234
     atom   52 type  7   force =     0.00086155    0.00008835    0.00020234
     atom   53 type  7   force =    -0.00086155    0.00008835   -0.00020233
     atom   54 type  7   force =    -0.00086156    0.00008836   -0.00020234
     atom   55 type  7   force =     0.00035634   -0.00049382   -0.00008331
     atom   56 type  7   force =     0.00035634   -0.00049384   -0.00008329
     atom   57 type  7   force =    -0.00035634   -0.00049384    0.00008329
     atom   58 type  7   force =    -0.00035634   -0.00049383    0.00008331
     atom   59 type  7   force =    -0.00022368    0.00030558    0.00008625
     atom   60 type  7   force =    -0.00022367    0.00030555    0.00008622
     atom   61 type  7   force =     0.00022367    0.00030555   -0.00008622
     atom   62 type  7   force =     0.00022368    0.00030558   -0.00008624
     atom   63 type  7   force =     0.00096145   -0.00046028    0.00042246
     atom   64 type  7   force =     0.00096147   -0.00046029    0.00042245
     atom   65 type  7   force =    -0.00096147   -0.00046029   -0.00042244
     atom   66 type  7   force =    -0.00096145   -0.00046028   -0.00042246
     atom   67 type  7   force =     0.00072348   -0.00065938   -0.00033915
     atom   68 type  7   force =     0.00072347   -0.00065939   -0.00033916
     atom   69 type  7   force =    -0.00072347   -0.00065939    0.00033915
     atom   70 type  7   force =    -0.00072348   -0.00065938    0.00033915
     atom   71 type  7   force =     0.00007802    0.00013224   -0.00052366
     atom   72 type  7   force =     0.00007805    0.00013231   -0.00052374
     atom   73 type  7   force =    -0.00007805    0.00013231    0.00052374
     atom   74 type  7   force =    -0.00007802    0.00013224    0.00052366
     atom   75 type  7   force =     0.00002661    0.00004521   -0.00048202
     atom   76 type  7   force =     0.00002662    0.00004522   -0.00048203
     atom   77 type  7   force =    -0.00002662    0.00004522    0.00048203
     atom   78 type  7   force =    -0.00002661    0.00004521    0.00048202
     atom   79 type  4   force =     0.00019844    0.00043598   -0.00013890
     atom   80 type  4   force =     0.00019844    0.00043594   -0.00013894
     atom   81 type  4   force =    -0.00019844    0.00043594    0.00013894
     atom   82 type  4   force =    -0.00019844    0.00043598    0.00013890
     atom   83 type  4   force =     0.00008619   -0.00051409   -0.00023253
     atom   84 type  4   force =     0.00008624   -0.00051412   -0.00023243
     atom   85 type  4   force =    -0.00008624   -0.00051412    0.00023243
     atom   86 type  4   force =    -0.00008619   -0.00051409    0.00023253
     atom   87 type  2   force =    -0.00000001    0.00034965   -0.00000000
     atom   88 type  3   force =    -0.00000001    0.00034954   -0.00000000

     Total force =     0.000800     Total SCF correction =     0.000171

     DFT-D3 dispersion Force =     0.006548
     SCF correction compared to forces is large: reduce conv_thr to get better values


     Computing stress (Cartesian axis) and pressure

          total   stress  (Ry/bohr**3)                   (kbar)     P=        0.17
   0.00000104   0.00000000   0.00000008            0.15        0.00        0.01
   0.00000000   0.00000164   0.00000000            0.00        0.24        0.00
   0.00000008   0.00000000   0.00000086            0.01        0.00        0.13

     kinetic stress (kbar)  20393.78      0.00     -4.44
                                0.00  20382.01      0.00
                               -4.44      0.00  20102.34

     local   stress (kbar) -42522.24      0.00    -93.11
                                0.00 -41954.01     -0.00
                              -93.11     -0.00  20973.55

     nonloc. stress (kbar)   3837.75      0.00     -4.53
                                0.00   3838.09      0.00
                               -4.53      0.00   3822.64

     hartree stress (kbar)  23886.45      0.00     35.96
                                0.00  23606.96      0.00
                               35.96      0.00  -7165.69

     exc-cor stress (kbar)  -2853.81      0.00      0.21
                                0.00  -2853.78      0.00
                                0.21      0.00  -2850.74

     corecor stress (kbar)  -1881.76     -0.00      0.25
                               -0.00  -1881.77     -0.00
                                0.25     -0.00  -1883.40

     ewald   stress (kbar)   -844.86     -0.00     65.59
                               -0.00  -1122.05      0.00
                               65.59      0.00 -32987.44

     hubbard stress (kbar)      0.00      0.00      0.00
                                0.00      0.00      0.00
                                0.00      0.00      0.00

     DFT-D   stress (kbar)    -15.17      0.00      0.08
                                0.00    -15.21     -0.00
                                0.08     -0.00    -11.13

     XDM     stress (kbar)      0.00      0.00      0.00
                                0.00      0.00      0.00
                                0.00      0.00      0.00

     dft-nl  stress (kbar)      0.00      0.00      0.00
                                0.00      0.00      0.00
                                0.00      0.00      0.00

     TS-vdW  stress (kbar)      0.00      0.00      0.00
                                0.00      0.00      0.00
                                0.00      0.00      0.00

     MDB     stress (kbar)      0.00      0.00      0.00
                                0.00      0.00      0.00
                                0.00      0.00      0.00

     3D-RISM stress (kbar)      0.00      0.00      0.00
                                0.00      0.00      0.00
                                0.00      0.00      0.00


     Writing all to output data dir ./temp/phl-fe1-fe2x2.save/ :
     XML data file, charge density, pseudopotentials, collected wavefunctions

     init_run     :    537.15s CPU    541.23s WALL (       2 calls)
     electrons    :  58179.37s CPU  58404.80s WALL (       4 calls)
     update_pot   :      5.68s CPU      5.76s WALL (       2 calls)
     forces       :    894.49s CPU    899.31s WALL (       4 calls)
     force_dftd3  :     33.93s CPU     33.99s WALL (       4 calls)
     stress       :   3331.08s CPU   3349.05s WALL (       4 calls)
     stres_dftd3  :     33.95s CPU     34.07s WALL (       4 calls)

     Called by init_run:
     wfcinit      :    512.59s CPU    514.65s WALL (       2 calls)
     wfcinit:atom :      0.49s CPU      0.77s WALL (      20 calls)
     wfcinit:wfcr :    507.66s CPU    509.04s WALL (      20 calls)
     potinit      :      5.03s CPU      5.15s WALL (       2 calls)
     hinit0       :      2.65s CPU      2.71s WALL (       2 calls)

     Called by electrons:
     c_bands      :  54747.81s CPU  54885.71s WALL (      41 calls)
     sum_band     :   3009.45s CPU   3061.64s WALL (      41 calls)
     v_of_rho     :     15.18s CPU     15.75s WALL (      42 calls)
     v_h          :      1.16s CPU      1.21s WALL (      42 calls)
     v_xc         :     16.71s CPU     17.35s WALL (      50 calls)
     newd         :    334.86s CPU    373.13s WALL (      42 calls)
     PAW_pot      :     86.73s CPU     86.75s WALL (      44 calls)
     mix_rho      :      2.54s CPU      2.59s WALL (      41 calls)
     energy_dftd3 :     26.37s CPU     26.37s WALL (       4 calls)

     Called by c_bands:
     init_us_2    :     61.44s CPU     61.53s WALL (     940 calls)
     cegterg      :  54628.81s CPU  54766.45s WALL (     439 calls)

     Called by sum_band:
     sum_band:wei :      0.01s CPU      0.01s WALL (      41 calls)
     sum_band:loo :   2496.20s CPU   2505.05s WALL (      41 calls)
     sum_band:buf :      7.13s CPU      7.14s WALL (     410 calls)
     sum_band:ini :     27.19s CPU     27.20s WALL (     410 calls)
     sum_band:cal :   2062.02s CPU   2062.43s WALL (     430 calls)
     sum_band:bec :      2.92s CPU      2.92s WALL (     430 calls)
     addusdens    :    509.15s CPU    552.35s WALL (      41 calls)
                                        0.00s GPU  (      41 calls)
     addusd:skk   :      3.80s CPU      6.04s WALL (     328 calls)
                                        0.00s GPU  (     328 calls)

     Called by *egterg:
     cdiaghg      :   1746.06s CPU   1772.25s WALL (    4269 calls)
     cegterg:over :   7379.16s CPU   7380.33s WALL (    3907 calls)
     cegterg:upda :   4491.27s CPU   4498.40s WALL (    3907 calls)
     cegterg:last :  12725.39s CPU  12726.63s WALL (    1574 calls)
     cdiaghg:chol :     33.57s CPU     33.61s WALL (    4269 calls)
     cdiaghg:inve :     37.10s CPU     37.11s WALL (    4269 calls)
     cdiaghg:para :    756.73s CPU    763.52s WALL (    8538 calls)
     h_psi        :  19230.04s CPU  19310.25s WALL (    4366 calls)
     s_psi        :   8222.27s CPU   8222.44s WALL (    4366 calls)
     g_psi        :     23.23s CPU     23.26s WALL (    3907 calls)

     Called by h_psi:
     h_psi:calbec :   7868.13s CPU   7869.98s WALL (    4366 calls)
     vloc_psi     :   3125.56s CPU   3194.48s WALL (    4366 calls)
     add_vuspsi   :   8215.65s CPU   8215.85s WALL (    4366 calls)

     General routines
     calbec       :  10936.93s CPU  10939.37s WALL (    4996 calls)
     fft          :     11.51s CPU     12.34s WALL (     643 calls)
     ffts         :      0.59s CPU      0.62s WALL (      83 calls)
     fftw         :   2419.30s CPU   2474.67s WALL ( 1158660 calls)
     interpolate  :      1.30s CPU      1.38s WALL (      42 calls)

     Parallel routines

     PAW routines
     PAW_pot      :     86.73s CPU     86.75s WALL (      44 calls)
     PAW_symme    :      0.03s CPU      0.03s WALL (      84 calls)

     PWSCF        :     17h31m CPU     17h35m WALL


   This run was terminated on:  23:34: 7  26Feb2025            

=------------------------------------------------------------------------------=
   JOB DONE.
=------------------------------------------------------------------------------=
