
     Program PWSCF v.7.3.1 starts on 14Jan2025 at 14:30:33 

     This program is part of the open-source Quantum ESPRESSO suite
     for quantum simulation of materials; please cite
         "P. Giannozzi et al., J. Phys.:Condens. Matter 21 395502 (2009);
         "P. Giannozzi et al., J. Phys.:Condens. Matter 29 465901 (2017);
         "P. Giannozzi et al., J. Chem. Phys. 152 154105 (2020);
          URL http://www.quantum-espresso.org", 
     in publications or presentations arising from this work. More details at
     http://www.quantum-espresso.org/quote

     Parallel version (MPI), running on     6 processors

     MPI processes distributed on     1 nodes
     3401 MiB available memory on the printing compute node when the environment starts

     Reading input from vc_relax.in

     Current dimensions of program PWSCF are:
     Max number of different atomic species (ntypx) = 10
     Max number of k-points (npk) =  40000
     Max angular momentum in pseudopotentials (lmaxx) =  4
     file Al.pbe-n-kjpaw_psl.1.0.0.UPF: wavefunction(s)  3S 3P renormalized
     file Fe.pbe-spn-kjpaw_psl.1.0.0.UPF: wavefunction(s)  3P 3D renormalized
     file H.pbe-kjpaw_psl.1.0.0.UPF: wavefunction(s)  1S renormalized
     file K.pbe-spn-kjpaw_psl.1.0.0.UPF: wavefunction(s)  3S renormalized
     file Mg.pbe-spnl-kjpaw_psl.1.0.0.UPF: wavefunction(s)  2P renormalized
     file O.pbe-n-kjpaw_psl.1.0.0.UPF: wavefunction(s)  2S 2P renormalized
     file Si.pbe-n-kjpaw_psl.1.0.0.UPF: wavefunction(s)  3S 3P renormalized

     R & G space division:  proc/nbgrp/npool/nimage =       6
     Subspace diagonalization in iterative solution of the eigenvalue problem:
     one sub-group per band group will be used
     custom distributed-memory algorithm (size of sub-group:  2*  2 procs)


     Parallelization info
     --------------------
     sticks:   dense  smooth     PW     G-vecs:    dense   smooth      PW
     Min        1105     554    150                97744    34578    4918
     Max        1106     555    151                97745    34580    4920
     Sum        6633    3329    905               586467   207475   29511

     Using Slab Decomposition



     bravais-lattice index     =          -12
     lattice parameter (alat)  =      10.0136  a.u.
     unit-cell volume          =    3303.4414 (a.u.)^3
     number of atoms/cell      =           44
     number of atomic types    =            7
     number of electrons       =       262.00
     number of Kohn-Sham states=          157
     kinetic-energy cutoff     =      60.0000  Ry
     charge density cutoff     =     480.0000  Ry
     scf convergence threshold =      1.0E-06
     mixing beta               =       0.7000
     number of iterations used =            8  plain     mixing
     energy convergence thresh.=      1.0E-04
     force convergence thresh. =      1.0E-03
     press convergence thresh. =      5.0E-01
     Exchange-correlation= SLA  PW   PBX  PBC
                           (   1   4   3   4   0   0   0)
     nstep                     =           50


     celldm(1)=  10.013640  celldm(2)=   1.735306  celldm(3)=   1.926511
     celldm(4)=   0.000000  celldm(5)=  -0.177565  celldm(6)=   0.000000

     crystal axes: (cart. coord. in units of alat)
               a(1) = (   1.000000   0.000000   0.000000 )  
               a(2) = (   0.000000   1.735306   0.000000 )  
               a(3) = (  -0.342081   0.000000   1.895896 )  

     reciprocal axes: (cart. coord. in units 2 pi/alat)
               b(1) = (  1.000000 -0.000000  0.180432 )  
               b(2) = (  0.000000  0.576267 -0.000000 )  
               b(3) = (  0.000000  0.000000  0.527455 )  


     PseudoPot. # 1 for Al read from file:
     ./../../../pseudos/Al.pbe-n-kjpaw_psl.1.0.0.UPF
     MD5 check sum: 502b6b27b9c6270cab5dd1084b96fa6d
     Pseudo is Projector augmented-wave + core cor, Zval =  3.0
     Generated using &quot;atomic&quot; code by A. Dal Corso  v.6.3
     Shape of augmentation charge: PSQ
     Using radial grid of 1135 points,  6 beta functions with: 
                l(1) =   0
                l(2) =   0
                l(3) =   1
                l(4) =   1
                l(5) =   2
                l(6) =   2
     Q(r) pseudized with 0 coefficients 


     PseudoPot. # 2 for Fe read from file:
     ./../../../pseudos/Fe.pbe-spn-kjpaw_psl.1.0.0.UPF
     MD5 check sum: fc81f059e5c5069939230b1155715ae8
     Pseudo is Projector augmented-wave + core cor, Zval = 16.0
     Generated using &quot;atomic&quot; code by A. Dal Corso  v.6.3
     Shape of augmentation charge: PSQ
     Using radial grid of 1191 points,  6 beta functions with: 
                l(1) =   0
                l(2) =   0
                l(3) =   1
                l(4) =   1
                l(5) =   2
                l(6) =   2
     Q(r) pseudized with 0 coefficients 


     PseudoPot. # 3 for H  read from file:
     ./../../../pseudos/H.pbe-kjpaw_psl.1.0.0.UPF
     MD5 check sum: d81a744832360e4a8af0b0b5b123bc2a
     Pseudo is Projector augmented-wave, Zval =  1.0
     Generated using &quot;atomic&quot; code by A. Dal Corso  v.6.3MaX
     Shape of augmentation charge: PSQ
     Using radial grid of  929 points,  2 beta functions with: 
                l(1) =   0
                l(2) =   0
     Q(r) pseudized with 0 coefficients 


     PseudoPot. # 4 for K  read from file:
     ./../../../pseudos/K.pbe-spn-kjpaw_psl.1.0.0.UPF
     MD5 check sum: 34cc42130a09071ebe376fd42eb21491
     Pseudo is Projector augmented-wave + core cor, Zval =  9.0
     Generated using &quot;atomic&quot; code by A. Dal Corso  v.6.2.2
     Shape of augmentation charge: PSQ
     Using radial grid of 1165 points,  6 beta functions with: 
                l(1) =   0
                l(2) =   0
                l(3) =   1
                l(4) =   1
                l(5) =   2
                l(6) =   2
     Q(r) pseudized with 0 coefficients 


     PseudoPot. # 5 for Mg read from file:
     ./../../../pseudos/Mg.pbe-spnl-kjpaw_psl.1.0.0.UPF
     MD5 check sum: fda14e0d92a6a9a5ebed782e5a4b3067
     Pseudo is Projector augmented-wave + core cor, Zval = 10.0
     Generated using &quot;atomic&quot; code by A. Dal Corso  v.6.3
     Shape of augmentation charge: PSQ
     Using radial grid of 1129 points,  4 beta functions with: 
                l(1) =   0
                l(2) =   0
                l(3) =   1
                l(4) =   1
     Q(r) pseudized with 0 coefficients 


     PseudoPot. # 6 for O  read from file:
     ./../../../pseudos/O.pbe-n-kjpaw_psl.1.0.0.UPF
     MD5 check sum: e99d9cef9b487d1ca56f5b95ecd0fd7a
     Pseudo is Projector augmented-wave + core cor, Zval =  6.0
     Generated using &quot;atomic&quot; code by A. Dal Corso  v.6.3
     Shape of augmentation charge: PSQ
     Using radial grid of 1095 points,  4 beta functions with: 
                l(1) =   0
                l(2) =   0
                l(3) =   1
                l(4) =   1
     Q(r) pseudized with 0 coefficients 


     PseudoPot. # 7 for Si read from file:
     ./../../../pseudos/Si.pbe-n-kjpaw_psl.1.0.0.UPF
     MD5 check sum: c39c59da582df4a0d9f10159256ea34e
     Pseudo is Projector augmented-wave + core cor, Zval =  4.0
     Generated using &quot;atomic&quot; code by A. Dal Corso  v.6.3
     Shape of augmentation charge: PSQ
     Using radial grid of 1141 points,  6 beta functions with: 
                l(1) =   0
                l(2) =   0
                l(3) =   1
                l(4) =   1
                l(5) =   2
                l(6) =   2
     Q(r) pseudized with 0 coefficients 


     atomic species   valence    mass     pseudopotential
     Al                3.00    26.98154     Al( 1.00)
     Fe               16.00    55.84500     Fe( 1.00)
     H                 1.00     1.00794     H ( 1.00)
     K                 9.00    39.09830     K ( 1.00)
     Mg               10.00    24.30500     Mg( 1.00)
     O                 6.00    15.99940     O ( 1.00)
     Si                4.00    28.08550     Si( 1.00)

     Starting magnetic structure 
     atomic species   magnetization
     Al              0.000
     Fe              0.300
     H               0.000
     K               0.000
     Mg              0.000
     O               0.000
     Si              0.000

      2 Sym. Ops. (no inversion) found


                                    s                        frac. trans.

      isym =  1     identity                                     

 cryst.   s( 1) = (     1          0          0      )
                  (     0          1          0      )
                  (     0          0          1      )

 cart.    s( 1) = (  1.0000000  0.0000000 -0.0000000 )
                  (  0.0000000  1.0000000  0.0000000 )
                  (  0.0000000  0.0000000  1.0000000 )


      isym =  2     180 deg rotation - cart. axis [0,1,0]        

 cryst.   s( 2) = (    -1          0          0      )
                  (     0          1          0      )
                  (     0          0         -1      )

 cart.    s( 2) = ( -1.0000000  0.0000000  0.0000000 )
                  (  0.0000000  1.0000000  0.0000000 )
                  (  0.0000000  0.0000000 -1.0000000 )


     point group C_2  (2)   
     there are  2 classes
     the character table:

       E     C2   
A      1.00  1.00
B      1.00 -1.00

     the symmetry operations in each class and the name of the first element:

     E        1
          identity                                               
     C2       2
          180 deg rotation - cart. axis [0,1,0]                  

   Cartesian axes

     site n.     atom                  positions (alat units)
         1        K      tau(   1) = (   0.0000000   0.8558199   0.0000000  )
         2        K      tau(   2) = (   0.5000000   0.0047280   0.0000000  )
         3        Mg     tau(   3) = (  -0.1710407   0.0080954   0.9479482  )
         4        Mg     tau(   4) = (  -0.1710407   0.5791405   0.9479482  )
         5        Mg     tau(   5) = (  -0.1710407   1.1540795   0.9479482  )
         6        Mg     tau(   6) = (   0.3289593   0.8554922   0.9479482  )
         7        Mg     tau(   7) = (   0.3289593   0.3038158   0.9479482  )
         8        Si     tau(   8) = (   0.0075518   0.2866368   0.4204177  )
         9        Si     tau(   9) = (   0.6503669   0.2866368   1.4754787  )
        10        Si     tau(  10) = (   0.6754912   1.4478696   1.4655995  )
        11        Si     tau(  11) = (  -0.0175726   1.4478696   0.4302970  )
        12        Si     tau(  12) = (   0.4835262   1.1551313   0.4268813  )
        13        Si     tau(  13) = (   0.1743925   1.1551313   1.4690150  )
        14        Al     tau(  14) = (   0.1496446   0.5741193   1.4723061  )
        15        Al     tau(  15) = (   0.5082741   0.5741193   0.4235903  )
        16        O      tau(  16) = (  -0.0033983   0.2843435   0.7285414  )
        17        O      tau(  17) = (   0.6613170   0.2843435   1.1673551  )
        18        O      tau(  18) = (   0.6784133   1.4461317   1.1605558  )
        19        O      tau(  19) = (  -0.0204946   1.4461317   0.7353406  )
        20        O      tau(  20) = (   0.4941039   1.1545067   0.7340168  )
        21        O      tau(  21) = (   0.1638148   1.1545067   1.1618796  )
        22        O      tau(  22) = (   0.1542855   0.5792222   1.1458086  )
        23        O      tau(  23) = (   0.5036332   0.5792222   0.7500879  )
        24        O      tau(  24) = (   0.2881073   0.3491904   0.3123936  )
        25        O      tau(  25) = (   0.3698114   0.3491904   1.5835028  )
        26        O      tau(  26) = (   0.9369785   1.7314990   0.3144590  )
        27        O      tau(  27) = (  -0.2790598   1.7314990   1.5814374  )
        28        O      tau(  28) = (   0.4027311   1.3439141   1.5756263  )
        29        O      tau(  29) = (   0.2551875   1.3439141   0.3202701  )
        30        O      tau(  30) = (   0.7533681   1.2710779   0.3128308  )
        31        O      tau(  31) = (  -0.0954494   1.2710779   1.5830655  )
        32        O      tau(  32) = (   0.4378223   0.8797336   0.3037249  )
        33        O      tau(  33) = (   0.2200964   0.8797336   1.5921715  )
        34        O      tau(  34) = (  -0.1464163   0.4825366   1.5954950  )
        35        O      tau(  35) = (   0.8043350   0.4825366   0.3004015  )
        36        O      tau(  36) = (  -0.0036327   0.8752244   0.7467485  )
        37        O      tau(  37) = (   0.6615514   0.8752244   1.1491479  )
        38        O      tau(  38) = (   0.4979626   0.0074378   0.7532512  )
        39        O      tau(  39) = (   0.1599561   0.0074378   1.1426451  )
        40        H      tau(  40) = (  -0.0033640   0.8560028   0.5656475  )
        41        H      tau(  41) = (   0.6612827   0.8560028   1.3302489  )
        42        H      tau(  42) = (   0.4803326   0.0227270   0.5721510  )
        43        H      tau(  43) = (   0.1775861   0.0227270   1.3237455  )
        44        Fe     tau(  44) = (   0.3289593   1.4503340   0.9479482  )

     --------------------------------------------
     DFT-D3 Dispersion Correction (3-body terms):
     --------------------------------------------
       Reference C6 values for interpolation: 

         atom   Coordination number   C6
         H          0.912             6.05
         H          0.000            15.18
         O          0.000            31.01
         O          0.993            25.63
         O          1.989            20.74
         Mg         0.000          1366.75
         Mg         0.963           902.54
         Mg         1.950           351.12
         Al         0.000          1081.08
         Al         0.965           875.51
         Al         1.931           513.50
         Al         2.915           307.19
         Si         0.000           635.71
         Si         0.951           540.53
         Si         1.944           466.25
         Si         2.941           443.01
         Si         3.868           299.55
         K          0.000          9967.00
         K          0.977           676.04
         Fe         0.000           982.67
         Fe         1.648           409.99
         Fe         9.138           219.01

       Values used:

         atom   Coordination number  R0_AB[au]  C6      C8
         K         13.760            4.007    676.04 129074.98
         K         13.978            4.007    676.04 129074.98
         Mg        11.174            3.292    351.12  31436.69
         Mg        12.222            3.292    351.12  31436.69
         Mg        11.094            3.292    351.12  31436.69
         Mg        11.742            3.292    351.12  31436.69
         Mg        11.917            3.292    351.12  31436.69
         Si         6.947            3.583    299.55  21425.58
         Si         6.947            3.583    299.55  21425.58
         Si         6.381            3.583    299.55  21425.58
         Si         6.381            3.583    299.55  21425.58
         Si         6.429            3.583    299.55  21425.58
         Si         6.429            3.583    299.55  21425.58
         Al         7.866            3.789    307.19  29441.29
         Al         7.866            3.789    307.19  29441.29
         O          3.922            2.345     20.74    418.58
         O          3.922            2.345     20.74    418.58
         O          3.587            2.345     20.74    418.58
         O          3.587            2.345     20.74    418.58
         O          3.643            2.345     20.74    418.58
         O          3.643            2.345     20.74    418.58
         O          3.995            2.345     20.74    418.58
         O          3.995            2.345     20.74    418.58
         O          3.180            2.345     20.74    418.58
         O          3.180            2.345     20.74    418.58
         O          3.167            2.345     20.74    418.58
         O          3.167            2.345     20.74    418.58
         O          3.062            2.345     20.74    418.58
         O          3.062            2.345     20.74    418.58
         O          3.111            2.345     20.74    418.58
         O          3.111            2.345     20.74    418.58
         O          3.204            2.345     20.74    418.58
         O          3.204            2.345     20.74    418.58
         O          3.243            2.345     20.74    418.58
         O          3.243            2.345     20.74    418.58
         O          4.001            2.345     20.74    418.58
         O          4.001            2.345     20.74    418.58
         O          3.808            2.345     20.74    418.58
         O          3.808            2.345     20.74    418.58
         H          1.327            2.062      6.07     73.32
         H          1.327            2.062      6.07     73.32
         H          1.280            2.062      6.07     73.38
         H          1.280            2.062      6.07     73.38
         Fe         7.210            3.252    219.01  20487.87

         Molecular C6 ( Ry / a.u.^6 ) =    165305.10


   Crystallographic axes

     site n.     atom                  positions (cryst. coord.)
         1        K      tau(   1) = (  0.0000000  0.4931809  0.0000000  )
         2        K      tau(   2) = (  0.5000000  0.0027246  0.0000000  )
         3        Mg     tau(   3) = (  0.0000000  0.0046651  0.5000000  )
         4        Mg     tau(   4) = (  0.0000000  0.3337396  0.5000000  )
         5        Mg     tau(   5) = (  0.0000000  0.6650581  0.5000000  )
         6        Mg     tau(   6) = (  0.5000000  0.4929921  0.5000000  )
         7        Mg     tau(   7) = (  0.5000000  0.1750791  0.5000000  )
         8        Si     tau(   8) = (  0.0834088  0.1651794  0.2217514  )
         9        Si     tau(   9) = (  0.9165912  0.1651794  0.7782486  )
        10        Si     tau(  10) = (  0.9399330  0.8343598  0.7730377  )
        11        Si     tau(  11) = (  0.0600670  0.8343598  0.2269623  )
        12        Si     tau(  12) = (  0.5605494  0.6656643  0.2251607  )
        13        Si     tau(  13) = (  0.4394506  0.6656643  0.7748393  )
        14        Al     tau(  14) = (  0.4152964  0.3308461  0.7765752  )
        15        Al     tau(  15) = (  0.5847036  0.3308461  0.2234248  )
        16        O      tau(  16) = (  0.1280542  0.1638578  0.3842728  )
        17        O      tau(  17) = (  0.8719458  0.1638578  0.6157272  )
        18        O      tau(  18) = (  0.8878153  0.8333582  0.6121410  )
        19        O      tau(  19) = (  0.1121847  0.8333582  0.3878590  )
        20        O      tau(  20) = (  0.6265444  0.6653043  0.3871608  )
        21        O      tau(  21) = (  0.3734556  0.6653043  0.6128392  )
        22        O      tau(  22) = (  0.3610266  0.3337868  0.6043624  )
        23        O      tau(  23) = (  0.6389734  0.3337868  0.3956376  )
        24        O      tau(  24) = (  0.3444732  0.2012270  0.1647736  )
        25        O      tau(  25) = (  0.6555268  0.2012270  0.8352264  )
        26        O      tau(  26) = (  0.9937171  0.9978061  0.1658629  )
        27        O      tau(  27) = (  0.0062829  0.9978061  0.8341370  )
        28        O      tau(  28) = (  0.6870253  0.7744536  0.8310719  )
        29        O      tau(  29) = (  0.3129747  0.7744536  0.1689281  )
        30        O      tau(  30) = (  0.8098130  0.7324805  0.1650042  )
        31        O      tau(  31) = (  0.1901870  0.7324805  0.8349958  )
        32        O      tau(  32) = (  0.4926241  0.5069616  0.1602012  )
        33        O      tau(  33) = (  0.5073758  0.5069616  0.8397988  )
        34        O      tau(  34) = (  0.1414628  0.2780700  0.8415518  )
        35        O      tau(  35) = (  0.8585372  0.2780700  0.1584482  )
        36        O      tau(  36) = (  0.1311049  0.5043631  0.3938762  )
        37        O      tau(  37) = (  0.8688951  0.5043631  0.6061238  )
        38        O      tau(  38) = (  0.6338736  0.0042862  0.3973061  )
        39        O      tau(  39) = (  0.3661264  0.0042862  0.6026939  )
        40        H      tau(  40) = (  0.0986972  0.4932863  0.2983536  )
        41        H      tau(  41) = (  0.9013028  0.4932863  0.7016464  )
        42        H      tau(  42) = (  0.5835672  0.0130968  0.3017839  )
        43        H      tau(  43) = (  0.4164328  0.0130968  0.6982161  )
        44        Fe     tau(  44) = (  0.5000000  0.8357799  0.5000000  )

     number of k points=    20  Gaussian smearing, width (Ry)=  0.0010
                       cart. coord. in units 2pi/alat
        k(    1) = (   0.0000000   0.0000000   0.0000000), wk =   0.0185185
        k(    2) = (   0.0000000   0.0000000   0.1758183), wk =   0.0370370
        k(    3) = (   0.0000000   0.1920891   0.0000000), wk =   0.0370370
        k(    4) = (   0.0000000   0.1920891   0.1758183), wk =   0.0740741
        k(    5) = (   0.1666667   0.0000000   0.0300721), wk =   0.0370370
        k(    6) = (   0.1666667   0.0000000   0.2058904), wk =   0.0370370
        k(    7) = (   0.1666667   0.0000000  -0.1457462), wk =   0.0370370
        k(    8) = (   0.1666667   0.1920891   0.0300721), wk =   0.0740741
        k(    9) = (   0.1666667   0.1920891   0.2058904), wk =   0.0740741
        k(   10) = (   0.1666667   0.1920891  -0.1457462), wk =   0.0740741
        k(   11) = (   0.3333333   0.0000000   0.0601442), wk =   0.0370370
        k(   12) = (   0.3333333   0.0000000   0.2359625), wk =   0.0370370
        k(   13) = (   0.3333333   0.0000000  -0.1156742), wk =   0.0370370
        k(   14) = (   0.3333333   0.1920891   0.0601442), wk =   0.0740741
        k(   15) = (   0.3333333   0.1920891   0.2359625), wk =   0.0740741
        k(   16) = (   0.3333333   0.1920891  -0.1156742), wk =   0.0740741
        k(   17) = (  -0.5000000   0.0000000  -0.0902162), wk =   0.0185185
        k(   18) = (  -0.5000000   0.0000000   0.0856021), wk =   0.0370370
        k(   19) = (  -0.5000000   0.1920891  -0.0902162), wk =   0.0370370
        k(   20) = (  -0.5000000   0.1920891   0.0856021), wk =   0.0740741

                       cryst. coord.
        k(    1) = (   0.0000000   0.0000000   0.0000000), wk =   0.0185185
        k(    2) = (   0.0000000   0.0000000   0.3333333), wk =   0.0370370
        k(    3) = (   0.0000000   0.3333333   0.0000000), wk =   0.0370370
        k(    4) = (   0.0000000   0.3333333   0.3333333), wk =   0.0740741
        k(    5) = (   0.1666667   0.0000000  -0.0000000), wk =   0.0370370
        k(    6) = (   0.1666667   0.0000000   0.3333333), wk =   0.0370370
        k(    7) = (   0.1666667   0.0000000  -0.3333333), wk =   0.0370370
        k(    8) = (   0.1666667   0.3333333  -0.0000000), wk =   0.0740741
        k(    9) = (   0.1666667   0.3333333   0.3333333), wk =   0.0740741
        k(   10) = (   0.1666667   0.3333333  -0.3333333), wk =   0.0740741
        k(   11) = (   0.3333333   0.0000000  -0.0000000), wk =   0.0370370
        k(   12) = (   0.3333333   0.0000000   0.3333333), wk =   0.0370370
        k(   13) = (   0.3333333   0.0000000  -0.3333333), wk =   0.0370370
        k(   14) = (   0.3333333   0.3333333  -0.0000000), wk =   0.0740741
        k(   15) = (   0.3333333   0.3333333   0.3333333), wk =   0.0740741
        k(   16) = (   0.3333333   0.3333333  -0.3333333), wk =   0.0740741
        k(   17) = (  -0.5000000   0.0000000   0.0000000), wk =   0.0185185
        k(   18) = (  -0.5000000   0.0000000   0.3333333), wk =   0.0370370
        k(   19) = (  -0.5000000   0.3333333   0.0000000), wk =   0.0370370
        k(   20) = (  -0.5000000   0.3333333   0.3333333), wk =   0.0740741

     Dense  grid:   586467 G-vectors     FFT dimensions: (  72, 125, 135)

     Smooth grid:   207475 G-vectors     FFT dimensions: (  50,  90,  96)

     Dynamical RAM for                 wfc:      10.35 MB

     Dynamical RAM for     wfc (w. buffer):     424.41 MB

     Dynamical RAM for           str. fact:      10.44 MB

     Dynamical RAM for           local pot:       0.00 MB

     Dynamical RAM for          nlocal pot:      28.88 MB

     Dynamical RAM for                qrad:      24.61 MB

     Dynamical RAM for          rho,v,vnew:      18.42 MB

     Dynamical RAM for               rhoin:       6.14 MB

     Dynamical RAM for            rho*nmix:      47.73 MB

     Dynamical RAM for           G-vectors:       5.86 MB

     Dynamical RAM for          h,s,v(r/c):       1.13 MB

     Dynamical RAM for          <psi|beta>:       1.05 MB

     Dynamical RAM for                 psi:      20.70 MB

     Dynamical RAM for                hpsi:      20.70 MB

     Dynamical RAM for                spsi:      20.70 MB

     Dynamical RAM for      wfcinit/wfcrot:      24.90 MB

     Dynamical RAM for           addusdens:     314.70 MB

     Dynamical RAM for          addusforce:     383.50 MB

     Dynamical RAM for         addusstress:     302.02 MB

     Estimated static dynamical RAM per process >     540.17 MB

     Estimated max dynamical RAM per process >     971.40 MB

     Estimated total dynamical RAM >       5.69 GB

     Check: negative core charge=   -0.000004
     Generating pointlists ...
     new r_m :   0.1347 (alat units)  1.3489 (a.u.) for type    1
     new r_m :   0.1608 (alat units)  1.6103 (a.u.) for type    2
     new r_m :   0.0751 (alat units)  0.7523 (a.u.) for type    3
     new r_m :   0.2108 (alat units)  2.1108 (a.u.) for type    4
     new r_m :   0.1571 (alat units)  1.5728 (a.u.) for type    5
     new r_m :   0.0751 (alat units)  0.7523 (a.u.) for type    6
     new r_m :   0.1258 (alat units)  1.2601 (a.u.) for type    7

     Initial potential from superposition of free atoms

     starting charge     261.9493, renormalised to     262.0000
     Starting wfcs are  183 randomized atomic wfcs
     Checking if some PAW data can be deallocated... 
       PAW data deallocated on    5 nodes for type:  1
       PAW data deallocated on    5 nodes for type:  2
       PAW data deallocated on    5 nodes for type:  3
       PAW data deallocated on    5 nodes for type:  4
       PAW data deallocated on    5 nodes for type:  5
       PAW data deallocated on    1 nodes for type:  6
       PAW data deallocated on    4 nodes for type:  7

     total cpu time spent up to now is      191.3 secs

     Self-consistent Calculation

     iteration #  1     ecut=    60.00 Ry     beta= 0.70
     Davidson diagonalization with overlap

---- Real-time Memory Report at c_bands before calling an iterative solver
           604 MiB given to the printing process from OS
             0 MiB allocation reported by mallinfo(arena+hblkhd)
           527 MiB available memory on the node where the printing process lives
------------------
     ethr =  1.00E-02,  avg # of iterations =  5.9

     total cpu time spent up to now is      775.9 secs

     total energy              =   -2623.64702715 Ry
     estimated scf accuracy    <      12.47494639 Ry

     total magnetization       =     4.00 Bohr mag/cell
     absolute magnetization    =     4.04 Bohr mag/cell

     iteration #  2     ecut=    60.00 Ry     beta= 0.70
     Davidson diagonalization with overlap

---- Real-time Memory Report at c_bands before calling an iterative solver
           901 MiB given to the printing process from OS
             0 MiB allocation reported by mallinfo(arena+hblkhd)
          1516 MiB available memory on the node where the printing process lives
------------------
     ethr =  4.76E-03,  avg # of iterations =  5.2

     total cpu time spent up to now is     1714.3 secs

     total energy              =   -2627.83253255 Ry
     estimated scf accuracy    <      14.71826513 Ry

     total magnetization       =     3.09 Bohr mag/cell
     absolute magnetization    =     3.28 Bohr mag/cell

     iteration #  3     ecut=    60.00 Ry     beta= 0.70
     Davidson diagonalization with overlap

---- Real-time Memory Report at c_bands before calling an iterative solver
           903 MiB given to the printing process from OS
             0 MiB allocation reported by mallinfo(arena+hblkhd)
          1615 MiB available memory on the node where the printing process lives
------------------
     ethr =  4.76E-03,  avg # of iterations =  2.0

     total cpu time spent up to now is     2165.6 secs

     total energy              =   -2628.04347905 Ry
     estimated scf accuracy    <      35.07585882 Ry

     total magnetization       =     0.08 Bohr mag/cell
     absolute magnetization    =     0.57 Bohr mag/cell

     iteration #  4     ecut=    60.00 Ry     beta= 0.70
     Davidson diagonalization with overlap

---- Real-time Memory Report at c_bands before calling an iterative solver
           906 MiB given to the printing process from OS
             0 MiB allocation reported by mallinfo(arena+hblkhd)
          1609 MiB available memory on the node where the printing process lives
------------------
     ethr =  4.76E-03,  avg # of iterations =  2.2

     total cpu time spent up to now is     2619.8 secs

     total energy              =   -2630.60777082 Ry
     estimated scf accuracy    <       0.88500187 Ry

     total magnetization       =     4.00 Bohr mag/cell
     absolute magnetization    =     4.23 Bohr mag/cell

     iteration #  5     ecut=    60.00 Ry     beta= 0.70
     Davidson diagonalization with overlap

---- Real-time Memory Report at c_bands before calling an iterative solver
           908 MiB given to the printing process from OS
             0 MiB allocation reported by mallinfo(arena+hblkhd)
          1619 MiB available memory on the node where the printing process lives
------------------
     ethr =  3.38E-04,  avg # of iterations = 10.8

     total cpu time spent up to now is     3505.5 secs

     total energy              =   -2631.17583710 Ry
     estimated scf accuracy    <       0.13120762 Ry

     total magnetization       =     4.00 Bohr mag/cell
     absolute magnetization    =     4.07 Bohr mag/cell

     iteration #  6     ecut=    60.00 Ry     beta= 0.70
     Davidson diagonalization with overlap

---- Real-time Memory Report at c_bands before calling an iterative solver
           911 MiB given to the printing process from OS
             0 MiB allocation reported by mallinfo(arena+hblkhd)
          1585 MiB available memory on the node where the printing process lives
------------------
     c_bands:  1 eigenvalues not converged
     c_bands:  1 eigenvalues not converged
     c_bands:  1 eigenvalues not converged
     c_bands:  2 eigenvalues not converged
     c_bands:  2 eigenvalues not converged
     c_bands:  1 eigenvalues not converged
     c_bands:  1 eigenvalues not converged
     c_bands:  2 eigenvalues not converged
     c_bands:  2 eigenvalues not converged
     c_bands:  1 eigenvalues not converged
     c_bands:  1 eigenvalues not converged
     c_bands:  1 eigenvalues not converged
     c_bands:  1 eigenvalues not converged
     c_bands:  1 eigenvalues not converged
     c_bands:  2 eigenvalues not converged
     c_bands:  2 eigenvalues not converged
     ethr =  5.01E-05,  avg # of iterations = 17.4

     negative rho (up, down):  0.000E+00 1.257E-04

     total cpu time spent up to now is     4391.1 secs

     total energy              =   -2631.22420234 Ry
     estimated scf accuracy    <       0.04117280 Ry

     total magnetization       =     4.00 Bohr mag/cell
     absolute magnetization    =     4.05 Bohr mag/cell

     iteration #  7     ecut=    60.00 Ry     beta= 0.70
     Davidson diagonalization with overlap

---- Real-time Memory Report at c_bands before calling an iterative solver
           913 MiB given to the printing process from OS
             0 MiB allocation reported by mallinfo(arena+hblkhd)
          2095 MiB available memory on the node where the printing process lives
------------------
     c_bands:  1 eigenvalues not converged
     c_bands:  1 eigenvalues not converged
     c_bands:  1 eigenvalues not converged
     c_bands:  1 eigenvalues not converged
     c_bands:  2 eigenvalues not converged
     c_bands:  1 eigenvalues not converged
     c_bands:  1 eigenvalues not converged
     c_bands:  2 eigenvalues not converged
     ethr =  1.57E-05,  avg # of iterations = 12.0

     negative rho (up, down):  0.000E+00 1.522E-04

     total cpu time spent up to now is     5029.2 secs

     total energy              =   -2631.23076109 Ry
     estimated scf accuracy    <       0.01037095 Ry

     total magnetization       =     4.00 Bohr mag/cell
     absolute magnetization    =     4.04 Bohr mag/cell

     iteration #  8     ecut=    60.00 Ry     beta= 0.70
     Davidson diagonalization with overlap

---- Real-time Memory Report at c_bands before calling an iterative solver
           915 MiB given to the printing process from OS
             0 MiB allocation reported by mallinfo(arena+hblkhd)
          1845 MiB available memory on the node where the printing process lives
------------------
     c_bands:  1 eigenvalues not converged
     c_bands:  2 eigenvalues not converged
     c_bands:  2 eigenvalues not converged
     c_bands:  1 eigenvalues not converged
     c_bands:  1 eigenvalues not converged
     c_bands:  2 eigenvalues not converged
     c_bands:  1 eigenvalues not converged
     c_bands:  3 eigenvalues not converged
     ethr =  3.96E-06,  avg # of iterations = 12.0

     negative rho (up, down):  0.000E+00 1.549E-04

     total cpu time spent up to now is     5679.5 secs

     total energy              =   -2631.23356668 Ry
     estimated scf accuracy    <       0.00101163 Ry

     total magnetization       =     4.00 Bohr mag/cell
     absolute magnetization    =     4.04 Bohr mag/cell

     iteration #  9     ecut=    60.00 Ry     beta= 0.70
     Davidson diagonalization with overlap

---- Real-time Memory Report at c_bands before calling an iterative solver
           918 MiB given to the printing process from OS
             0 MiB allocation reported by mallinfo(arena+hblkhd)
          1763 MiB available memory on the node where the printing process lives
------------------
     c_bands:  1 eigenvalues not converged
     c_bands:  2 eigenvalues not converged
     c_bands:  2 eigenvalues not converged
     c_bands:  2 eigenvalues not converged
     c_bands:  1 eigenvalues not converged
     c_bands:  1 eigenvalues not converged
     c_bands:  2 eigenvalues not converged
     c_bands:  1 eigenvalues not converged
     ethr =  3.86E-07,  avg # of iterations = 10.5

     negative rho (up, down):  0.000E+00 1.506E-04

     total cpu time spent up to now is     6553.6 secs

     total energy              =   -2631.23459615 Ry
     estimated scf accuracy    <       0.00039042 Ry

     total magnetization       =     4.00 Bohr mag/cell
     absolute magnetization    =     4.04 Bohr mag/cell

     iteration # 10     ecut=    60.00 Ry     beta= 0.70
     Davidson diagonalization with overlap

---- Real-time Memory Report at c_bands before calling an iterative solver
           920 MiB given to the printing process from OS
             0 MiB allocation reported by mallinfo(arena+hblkhd)
          1945 MiB available memory on the node where the printing process lives
------------------
     c_bands:  1 eigenvalues not converged
     c_bands:  1 eigenvalues not converged
     c_bands:  2 eigenvalues not converged
     ethr =  1.49E-07,  avg # of iterations =  5.1

     negative rho (up, down):  0.000E+00 1.471E-04

     total cpu time spent up to now is     7007.5 secs

     total energy              =   -2631.23459615 Ry
     estimated scf accuracy    <       0.00011911 Ry

     total magnetization       =     4.00 Bohr mag/cell
     absolute magnetization    =     4.04 Bohr mag/cell

     iteration # 11     ecut=    60.00 Ry     beta= 0.70
     Davidson diagonalization with overlap

---- Real-time Memory Report at c_bands before calling an iterative solver
           920 MiB given to the printing process from OS
             0 MiB allocation reported by mallinfo(arena+hblkhd)
          1944 MiB available memory on the node where the printing process lives
------------------
     ethr =  4.55E-08,  avg # of iterations =  6.9

     negative rho (up, down):  0.000E+00 1.490E-04

     total cpu time spent up to now is     7756.5 secs

     total energy              =   -2631.23467913 Ry
     estimated scf accuracy    <       0.00002314 Ry

     total magnetization       =     4.00 Bohr mag/cell
     absolute magnetization    =     4.04 Bohr mag/cell

     iteration # 12     ecut=    60.00 Ry     beta= 0.70
     Davidson diagonalization with overlap

---- Real-time Memory Report at c_bands before calling an iterative solver
           920 MiB given to the printing process from OS
             0 MiB allocation reported by mallinfo(arena+hblkhd)
          1689 MiB available memory on the node where the printing process lives
------------------
     ethr =  8.83E-09,  avg # of iterations =  6.5

     negative rho (up, down):  0.000E+00 1.490E-04

     total cpu time spent up to now is     8389.0 secs

     total energy              =   -2631.23468724 Ry
     estimated scf accuracy    <       0.00000345 Ry

     total magnetization       =     4.00 Bohr mag/cell
     absolute magnetization    =     4.04 Bohr mag/cell

     iteration # 13     ecut=    60.00 Ry     beta= 0.70
     Davidson diagonalization with overlap

---- Real-time Memory Report at c_bands before calling an iterative solver
           920 MiB given to the printing process from OS
             0 MiB allocation reported by mallinfo(arena+hblkhd)
          1719 MiB available memory on the node where the printing process lives
------------------
     ethr =  1.32E-09,  avg # of iterations =  8.1

     negative rho (up, down):  0.000E+00 1.495E-04

     total cpu time spent up to now is     9235.3 secs

     total energy              =   -2631.23468963 Ry
     estimated scf accuracy    <       0.00000647 Ry

     total magnetization       =     4.00 Bohr mag/cell
     absolute magnetization    =     4.04 Bohr mag/cell

     iteration # 14     ecut=    60.00 Ry     beta= 0.70
     Davidson diagonalization with overlap

---- Real-time Memory Report at c_bands before calling an iterative solver
           920 MiB given to the printing process from OS
             0 MiB allocation reported by mallinfo(arena+hblkhd)
          1738 MiB available memory on the node where the printing process lives
------------------
     ethr =  1.32E-09,  avg # of iterations =  5.7

     negative rho (up, down):  0.000E+00 1.495E-04

     Magnetic moment per site  (integrated on atomic sphere of radius R)
     atom   1 (R=0.211)  charge=  7.4819  magn=  0.0001
     atom   2 (R=0.211)  charge=  7.4842  magn=  0.0000
     atom   3 (R=0.157)  charge=  8.1033  magn= -0.0000
     atom   4 (R=0.157)  charge=  8.1045  magn= -0.0000
     atom   5 (R=0.157)  charge=  8.1023  magn= -0.0001
     atom   6 (R=0.157)  charge=  8.1067  magn=  0.0002
     atom   7 (R=0.157)  charge=  8.1094  magn=  0.0005
     atom   8 (R=0.126)  charge=  0.5478  magn=  0.0000
     atom   9 (R=0.126)  charge=  0.5478  magn=  0.0000
     atom  10 (R=0.126)  charge=  0.5420  magn=  0.0013
     atom  11 (R=0.126)  charge=  0.5420  magn=  0.0013
     atom  12 (R=0.126)  charge=  0.5404  magn=  0.0012
     atom  13 (R=0.126)  charge=  0.5404  magn=  0.0012
     atom  14 (R=0.135)  charge=  0.3342  magn= -0.0000
     atom  15 (R=0.135)  charge=  0.3342  magn= -0.0000
     atom  16 (R=0.075)  charge=  1.9357  magn=  0.0004
     atom  17 (R=0.075)  charge=  1.9357  magn=  0.0004
     atom  18 (R=0.075)  charge=  1.9351  magn=  0.0158
     atom  19 (R=0.075)  charge=  1.9351  magn=  0.0158
     atom  20 (R=0.075)  charge=  1.9320  magn=  0.0185
     atom  21 (R=0.075)  charge=  1.9320  magn=  0.0185
     atom  22 (R=0.075)  charge=  1.9333  magn=  0.0007
     atom  23 (R=0.075)  charge=  1.9333  magn=  0.0007
     atom  24 (R=0.075)  charge=  1.9387  magn=  0.0002
     atom  25 (R=0.075)  charge=  1.9387  magn=  0.0002
     atom  26 (R=0.075)  charge=  1.9427  magn=  0.0004
     atom  27 (R=0.075)  charge=  1.9427  magn=  0.0004
     atom  28 (R=0.075)  charge=  1.9431  magn=  0.0000
     atom  29 (R=0.075)  charge=  1.9431  magn=  0.0000
     atom  30 (R=0.075)  charge=  1.9400  magn=  0.0012
     atom  31 (R=0.075)  charge=  1.9400  magn=  0.0012
     atom  32 (R=0.075)  charge=  1.9347  magn=  0.0009
     atom  33 (R=0.075)  charge=  1.9347  magn=  0.0009
     atom  34 (R=0.075)  charge=  1.9384  magn=  0.0001
     atom  35 (R=0.075)  charge=  1.9384  magn=  0.0001
     atom  36 (R=0.075)  charge=  1.9377  magn=  0.0002
     atom  37 (R=0.075)  charge=  1.9377  magn=  0.0002
     atom  38 (R=0.075)  charge=  1.9314  magn=  0.0240
     atom  39 (R=0.075)  charge=  1.9314  magn=  0.0240
     atom  40 (R=0.075)  charge=  0.4010  magn=  0.0000
     atom  41 (R=0.075)  charge=  0.4010  magn=  0.0000
     atom  42 (R=0.075)  charge=  0.3977  magn=  0.0013
     atom  43 (R=0.075)  charge=  0.3977  magn=  0.0013
     atom  44 (R=0.161)  charge= 13.3741  magn=  3.3319

     total cpu time spent up to now is     9680.7 secs

     End of self-consistent calculation

 ------ SPIN UP ------------


          k = 0.0000 0.0000 0.0000 ( 25927 PWs)   bands (ev):

   -81.7143 -67.4430 -67.3831 -66.9813 -66.9475 -66.9134 -48.8091 -47.2965
   -47.2063 -34.2100 -34.1983 -34.1800 -34.1445 -34.1442 -34.1188 -33.7416
   -33.7379 -33.7304 -33.7199 -33.7104 -33.6869 -33.6688 -33.6551 -33.6500
   -22.9466 -22.8963 -15.0400 -14.9841 -14.0826 -14.0335 -13.5910 -13.5656
   -13.3833 -13.2648 -13.2272 -13.0404 -12.9903 -12.7848 -12.7825 -12.7309
   -12.7232 -12.5898 -12.4893 -12.4372 -12.2219 -12.1953 -12.1552 -12.0227
   -11.0502 -10.8117  -6.5193  -6.4697  -6.4433  -6.4353  -6.3813  -6.3738
    -4.2513  -4.1796  -2.3462  -2.2463  -1.8735  -1.3075  -1.1157  -1.0727
    -1.0414  -0.9567  -0.7297  -0.6203  -0.4567  -0.3614  -0.2957  -0.1293
     0.0018   0.1305   0.2448   0.5391   0.5807   0.6624   0.6714   0.8417
     0.8914   1.0519   1.3121   1.3731   1.4274   1.4415   1.5532   1.7289
     1.7580   1.9273   2.0245   2.1028   2.1272   2.1886   2.2344   2.2791
     2.2823   2.4745   2.5419   2.5549   2.6739   2.6938   2.7578   2.8220
     2.8493   2.9268   2.9371   3.0409   3.2241   3.2491   3.3099   3.4695
     3.4731   3.5129   3.5594   3.5826   3.6103   3.6803   3.8454   3.8684
     3.8907   3.9582   3.9838   4.0577   4.1580   4.3332   4.4489   4.4983
     4.6391   4.7933   6.1289   6.4406   6.5373   9.1156  10.6291  11.2455
    11.6056  11.9195  12.1381  12.2327  12.5259  12.5997  12.9954  13.0494
    13.1604  13.3055  13.3524  13.4868  13.5933  13.6737  13.7442  13.8371
    13.8494  14.0900  14.2547  14.3200  14.3763

     occupation numbers 
     1.0000   1.0000   1.0000   1.0000   1.0000   1.0000   1.0000   1.0000
     1.0000   1.0000   1.0000   1.0000   1.0000   1.0000   1.0000   1.0000
     1.0000   1.0000   1.0000   1.0000   1.0000   1.0000   1.0000   1.0000
     1.0000   1.0000   1.0000   1.0000   1.0000   1.0000   1.0000   1.0000
     1.0000   1.0000   1.0000   1.0000   1.0000   1.0000   1.0000   1.0000
     1.0000   1.0000   1.0000   1.0000   1.0000   1.0000   1.0000   1.0000
     1.0000   1.0000   1.0000   1.0000   1.0000   1.0000   1.0000   1.0000
     1.0000   1.0000   1.0000   1.0000   1.0000   1.0000   1.0000   1.0000
     1.0000   1.0000   1.0000   1.0000   1.0000   1.0000   1.0000   1.0000
     1.0000   1.0000   1.0000   1.0000   1.0000   1.0000   1.0000   1.0000
     1.0000   1.0000   1.0000   1.0000   1.0000   1.0000   1.0000   1.0000
     1.0000   1.0000   1.0000   1.0000   1.0000   1.0000   1.0000   1.0000
     1.0000   1.0000   1.0000   1.0000   1.0000   1.0000   1.0000   1.0000
     1.0000   1.0000   1.0000   1.0000   1.0000   1.0000   1.0000   1.0000
     1.0000   1.0000   1.0000   1.0000   1.0000   1.0000   1.0000   1.0000
     1.0000   1.0000   1.0000   1.0000   1.0000   1.0000   1.0000   1.0000
     1.0000   1.0000   1.0000   1.0000   1.0000   0.0000   0.0000   0.0000
     0.0000   0.0000   0.0000   0.0000   0.0000   0.0000   0.0000   0.0000
     0.0000   0.0000   0.0000   0.0000   0.0000   0.0000   0.0000   0.0000
     0.0000   0.0000   0.0000   0.0000   0.0000

          k = 0.0000 0.0000 0.1758 ( 25971 PWs)   bands (ev):

   -81.7143 -67.4430 -67.3831 -66.9813 -66.9475 -66.9134 -48.8091 -47.2965
   -47.2063 -34.2100 -34.1984 -34.1800 -34.1445 -34.1442 -34.1188 -33.7416
   -33.7379 -33.7304 -33.7199 -33.7104 -33.6869 -33.6688 -33.6552 -33.6500
   -22.9466 -22.8963 -15.0265 -14.9986 -14.0709 -14.0459 -13.5916 -13.5650
   -13.3760 -13.2596 -13.2414 -13.0354 -12.9910 -12.7995 -12.7705 -12.7252
   -12.7239 -12.5933 -12.4798 -12.4470 -12.2251 -12.1905 -12.1492 -12.0297
   -11.0499 -10.8124  -6.5194  -6.4697  -6.4433  -6.4352  -6.3812  -6.3738
    -4.2406  -4.1911  -2.3233  -2.2737  -1.8436  -1.2873  -1.1352  -1.0613
    -1.0250  -0.9788  -0.7457  -0.5880  -0.4813  -0.3456  -0.3032  -0.2474
     0.0171   0.1787   0.2103   0.4783   0.5735   0.6392   0.6657   0.8872
     0.9392   1.1026   1.2459   1.3549   1.4090   1.5240   1.6393   1.7137
     1.8234   1.9421   2.0881   2.1037   2.1327   2.1895   2.2521   2.2776
     2.3014   2.3914   2.5058   2.5307   2.6555   2.6765   2.7330   2.7638
     2.8021   2.9047   3.0251   3.1124   3.1301   3.2683   3.3103   3.4416
     3.4629   3.4930   3.5483   3.6303   3.6901   3.7409   3.7934   3.8525
     3.8764   3.9270   3.9574   4.0593   4.1616   4.3420   4.4480   4.4993
     4.6415   4.7966   6.1264   6.4423   6.5335   9.4294  10.1506  11.3467
    11.6382  11.7677  12.1441  12.2127  12.7282  12.7474  12.9925  13.0479
    13.1914  13.2797  13.3840  13.4287  13.5151  13.6773  13.7843  13.7894
    13.9340  14.0386  14.1201  14.3211  14.3456

     occupation numbers 
     1.0000   1.0000   1.0000   1.0000   1.0000   1.0000   1.0000   1.0000
     1.0000   1.0000   1.0000   1.0000   1.0000   1.0000   1.0000   1.0000
     1.0000   1.0000   1.0000   1.0000   1.0000   1.0000   1.0000   1.0000
     1.0000   1.0000   1.0000   1.0000   1.0000   1.0000   1.0000   1.0000
     1.0000   1.0000   1.0000   1.0000   1.0000   1.0000   1.0000   1.0000
     1.0000   1.0000   1.0000   1.0000   1.0000   1.0000   1.0000   1.0000
     1.0000   1.0000   1.0000   1.0000   1.0000   1.0000   1.0000   1.0000
     1.0000   1.0000   1.0000   1.0000   1.0000   1.0000   1.0000   1.0000
     1.0000   1.0000   1.0000   1.0000   1.0000   1.0000   1.0000   1.0000
     1.0000   1.0000   1.0000   1.0000   1.0000   1.0000   1.0000   1.0000
     1.0000   1.0000   1.0000   1.0000   1.0000   1.0000   1.0000   1.0000
     1.0000   1.0000   1.0000   1.0000   1.0000   1.0000   1.0000   1.0000
     1.0000   1.0000   1.0000   1.0000   1.0000   1.0000   1.0000   1.0000
     1.0000   1.0000   1.0000   1.0000   1.0000   1.0000   1.0000   1.0000
     1.0000   1.0000   1.0000   1.0000   1.0000   1.0000   1.0000   1.0000
     1.0000   1.0000   1.0000   1.0000   1.0000   1.0000   1.0000   1.0000
     1.0000   1.0000   1.0000   1.0000   1.0000   0.0000   0.0000   0.0000
     0.0000   0.0000   0.0000   0.0000   0.0000   0.0000   0.0000   0.0000
     0.0000   0.0000   0.0000   0.0000   0.0000   0.0000   0.0000   0.0000
     0.0000   0.0000   0.0000   0.0000   0.0000

          k = 0.0000 0.1921 0.0000 ( 25933 PWs)   bands (ev):

   -81.7143 -67.4430 -67.3831 -66.9813 -66.9475 -66.9134 -48.8091 -47.2965
   -47.2063 -34.2100 -34.1984 -34.1800 -34.1445 -34.1441 -34.1188 -33.7416
   -33.7379 -33.7304 -33.7199 -33.7104 -33.6869 -33.6688 -33.6552 -33.6500
   -22.9466 -22.8963 -15.0353 -14.9795 -14.1154 -14.0629 -13.5912 -13.5659
   -13.3450 -13.2022 -13.1242 -13.0573 -12.9877 -12.8863 -12.8542 -12.7334
   -12.7027 -12.5977 -12.4811 -12.4316 -12.2218 -12.1947 -12.1500 -12.0191
   -11.0489 -10.8112  -6.5176  -6.4717  -6.4430  -6.4341  -6.3820  -6.3744
    -4.2144  -4.1418  -2.4872  -2.3787  -1.8337  -1.3355  -1.0526  -1.0368
    -0.9217  -0.9013  -0.7651  -0.6964  -0.4571  -0.2711  -0.2452  -0.0843
    -0.0836   0.1418   0.2138   0.5323   0.5404   0.6105   0.6845   0.7780
     0.9235   1.0830   1.2076   1.3402   1.4232   1.5206   1.5957   1.6945
     1.8561   1.9382   1.9990   2.1491   2.1951   2.2256   2.2690   2.2967
     2.3790   2.4607   2.4864   2.5338   2.6157   2.6543   2.8023   2.8176
     2.9257   2.9397   2.9692   3.0187   3.1872   3.2940   3.3557   3.3928
     3.4484   3.4814   3.4923   3.5965   3.6354   3.6674   3.8310   3.8498
     3.9184   3.9410   3.9761   4.0452   4.1658   4.2565   4.3196   4.4996
     4.6229   4.8360   6.1275   6.4447   6.4999   9.5189  10.4746  10.8513
    11.4712  11.8365  12.3048  12.5567  12.6186  12.6875  12.9482  13.0189
    13.1685  13.3250  13.3517  13.4480  13.5049  13.6505  13.6580  13.7682
    13.8344  13.8429  14.3473  14.4055  14.4998

     occupation numbers 
     1.0000   1.0000   1.0000   1.0000   1.0000   1.0000   1.0000   1.0000
     1.0000   1.0000   1.0000   1.0000   1.0000   1.0000   1.0000   1.0000
     1.0000   1.0000   1.0000   1.0000   1.0000   1.0000   1.0000   1.0000
     1.0000   1.0000   1.0000   1.0000   1.0000   1.0000   1.0000   1.0000
     1.0000   1.0000   1.0000   1.0000   1.0000   1.0000   1.0000   1.0000
     1.0000   1.0000   1.0000   1.0000   1.0000   1.0000   1.0000   1.0000
     1.0000   1.0000   1.0000   1.0000   1.0000   1.0000   1.0000   1.0000
     1.0000   1.0000   1.0000   1.0000   1.0000   1.0000   1.0000   1.0000
     1.0000   1.0000   1.0000   1.0000   1.0000   1.0000   1.0000   1.0000
     1.0000   1.0000   1.0000   1.0000   1.0000   1.0000   1.0000   1.0000
     1.0000   1.0000   1.0000   1.0000   1.0000   1.0000   1.0000   1.0000
     1.0000   1.0000   1.0000   1.0000   1.0000   1.0000   1.0000   1.0000
     1.0000   1.0000   1.0000   1.0000   1.0000   1.0000   1.0000   1.0000
     1.0000   1.0000   1.0000   1.0000   1.0000   1.0000   1.0000   1.0000
     1.0000   1.0000   1.0000   1.0000   1.0000   1.0000   1.0000   1.0000
     1.0000   1.0000   1.0000   1.0000   1.0000   1.0000   1.0000   1.0000
     1.0000   1.0000   1.0000   1.0000   1.0000   0.0000   0.0000   0.0000
     0.0000   0.0000   0.0000   0.0000   0.0000   0.0000   0.0000   0.0000
     0.0000   0.0000   0.0000   0.0000   0.0000   0.0000   0.0000   0.0000
     0.0000   0.0000   0.0000   0.0000   0.0000

          k = 0.0000 0.1921 0.1758 ( 25924 PWs)   bands (ev):

   -81.7143 -67.4430 -67.3831 -66.9813 -66.9475 -66.9134 -48.8091 -47.2965
   -47.2063 -34.2100 -34.1984 -34.1800 -34.1445 -34.1441 -34.1188 -33.7416
   -33.7379 -33.7304 -33.7199 -33.7104 -33.6869 -33.6688 -33.6551 -33.6500
   -22.9466 -22.8963 -15.0218 -14.9939 -14.1028 -14.0765 -13.5919 -13.5652
   -13.3415 -13.1911 -13.1429 -13.0471 -12.9896 -12.9021 -12.8392 -12.7293
   -12.7055 -12.6006 -12.4725 -12.4412 -12.2247 -12.1903 -12.1435 -12.0261
   -11.0486 -10.8119  -6.5176  -6.4718  -6.4430  -6.4340  -6.3819  -6.3744
    -4.2014  -4.1556  -2.4627  -2.4061  -1.8081  -1.3193  -1.0541  -1.0350
    -0.9373  -0.8852  -0.7879  -0.6648  -0.4937  -0.3036  -0.2302  -0.1606
    -0.0517   0.1457   0.1827   0.4989   0.5359   0.5821   0.6846   0.8261
     0.9695   1.1055   1.1288   1.3980   1.4820   1.5528   1.6394   1.7529
     1.8694   1.9270   2.0210   2.1017   2.1429   2.2579   2.2846   2.3350
     2.3700   2.4129   2.4804   2.5401   2.5927   2.6645   2.7449   2.8164
     2.8476   2.9000   3.0205   3.0966   3.1979   3.2272   3.3205   3.3685
     3.4455   3.4708   3.5267   3.6031   3.6510   3.7535   3.7911   3.8475
     3.8942   3.9324   3.9476   4.0378   4.1792   4.2664   4.3280   4.5077
     4.6280   4.8388   6.1243   6.4466   6.4937   9.7892  10.4290  10.6683
    11.1677  11.8376  12.2858  12.5818  12.7442  12.9131  12.9622  13.0805
    13.2101  13.2997  13.3886  13.4542  13.5604  13.6190  13.6440  13.7381
    13.8205  13.9565  14.2479  14.3304  14.4449

     occupation numbers 
     1.0000   1.0000   1.0000   1.0000   1.0000   1.0000   1.0000   1.0000
     1.0000   1.0000   1.0000   1.0000   1.0000   1.0000   1.0000   1.0000
     1.0000   1.0000   1.0000   1.0000   1.0000   1.0000   1.0000   1.0000
     1.0000   1.0000   1.0000   1.0000   1.0000   1.0000   1.0000   1.0000
     1.0000   1.0000   1.0000   1.0000   1.0000   1.0000   1.0000   1.0000
     1.0000   1.0000   1.0000   1.0000   1.0000   1.0000   1.0000   1.0000
     1.0000   1.0000   1.0000   1.0000   1.0000   1.0000   1.0000   1.0000
     1.0000   1.0000   1.0000   1.0000   1.0000   1.0000   1.0000   1.0000
     1.0000   1.0000   1.0000   1.0000   1.0000   1.0000   1.0000   1.0000
     1.0000   1.0000   1.0000   1.0000   1.0000   1.0000   1.0000   1.0000
     1.0000   1.0000   1.0000   1.0000   1.0000   1.0000   1.0000   1.0000
     1.0000   1.0000   1.0000   1.0000   1.0000   1.0000   1.0000   1.0000
     1.0000   1.0000   1.0000   1.0000   1.0000   1.0000   1.0000   1.0000
     1.0000   1.0000   1.0000   1.0000   1.0000   1.0000   1.0000   1.0000
     1.0000   1.0000   1.0000   1.0000   1.0000   1.0000   1.0000   1.0000
     1.0000   1.0000   1.0000   1.0000   1.0000   1.0000   1.0000   1.0000
     1.0000   1.0000   1.0000   1.0000   1.0000   0.0000   0.0000   0.0000
     0.0000   0.0000   0.0000   0.0000   0.0000   0.0000   0.0000   0.0000
     0.0000   0.0000   0.0000   0.0000   0.0000   0.0000   0.0000   0.0000
     0.0000   0.0000   0.0000   0.0000   0.0000

          k = 0.1667 0.0000 0.0301 ( 25941 PWs)   bands (ev):

   -81.7143 -67.4430 -67.3831 -66.9813 -66.9475 -66.9134 -48.8091 -47.2965
   -47.2063 -34.2099 -34.1984 -34.1800 -34.1445 -34.1442 -34.1188 -33.7416
   -33.7381 -33.7303 -33.7198 -33.7101 -33.6863 -33.6691 -33.6552 -33.6505
   -22.9464 -22.8961 -14.9811 -14.9264 -14.1044 -14.0588 -13.7014 -13.6666
   -13.3384 -13.2112 -13.1462 -13.0356 -12.9840 -12.8054 -12.7804 -12.7228
   -12.7172 -12.5977 -12.5081 -12.4469 -12.2861 -12.2417 -12.1346 -12.0104
   -11.0474 -10.8164  -6.5196  -6.4735  -6.4418  -6.4338  -6.3812  -6.3700
    -4.0910  -4.0197  -2.3225  -2.2216  -1.8521  -1.3912  -1.3790  -1.2322
    -0.8815  -0.7562  -0.7261  -0.6180  -0.4414  -0.3591  -0.2732  -0.1547
    -0.0145   0.1724   0.2395   0.4714   0.5623   0.6451   0.6929   0.7448
     0.9693   1.1716   1.2665   1.3728   1.3961   1.4557   1.5241   1.6908
     1.7497   1.9500   1.9666   2.0475   2.0745   2.1362   2.2982   2.3043
     2.4055   2.4493   2.5222   2.5727   2.6201   2.6450   2.7485   2.8053
     2.8845   2.9520   2.9954   3.0373   3.1665   3.2540   3.2947   3.3861
     3.4220   3.4733   3.5785   3.6239   3.6356   3.6865   3.7950   3.8647
     3.8834   3.9054   3.9730   4.0356   4.1079   4.3355   4.4557   4.4749
     4.5551   4.8197   6.1052   6.4379   6.5378   9.4401  10.8048  11.3215
    11.7318  11.9501  12.1766  12.3824  12.5798  12.6235  12.9292  13.0482
    13.1591  13.2706  13.2812  13.5298  13.5740  13.6110  13.7162  13.7974
    13.8716  14.1442  14.1963  14.2994  14.4043

     occupation numbers 
     1.0000   1.0000   1.0000   1.0000   1.0000   1.0000   1.0000   1.0000
     1.0000   1.0000   1.0000   1.0000   1.0000   1.0000   1.0000   1.0000
     1.0000   1.0000   1.0000   1.0000   1.0000   1.0000   1.0000   1.0000
     1.0000   1.0000   1.0000   1.0000   1.0000   1.0000   1.0000   1.0000
     1.0000   1.0000   1.0000   1.0000   1.0000   1.0000   1.0000   1.0000
     1.0000   1.0000   1.0000   1.0000   1.0000   1.0000   1.0000   1.0000
     1.0000   1.0000   1.0000   1.0000   1.0000   1.0000   1.0000   1.0000
     1.0000   1.0000   1.0000   1.0000   1.0000   1.0000   1.0000   1.0000
     1.0000   1.0000   1.0000   1.0000   1.0000   1.0000   1.0000   1.0000
     1.0000   1.0000   1.0000   1.0000   1.0000   1.0000   1.0000   1.0000
     1.0000   1.0000   1.0000   1.0000   1.0000   1.0000   1.0000   1.0000
     1.0000   1.0000   1.0000   1.0000   1.0000   1.0000   1.0000   1.0000
     1.0000   1.0000   1.0000   1.0000   1.0000   1.0000   1.0000   1.0000
     1.0000   1.0000   1.0000   1.0000   1.0000   1.0000   1.0000   1.0000
     1.0000   1.0000   1.0000   1.0000   1.0000   1.0000   1.0000   1.0000
     1.0000   1.0000   1.0000   1.0000   1.0000   1.0000   1.0000   1.0000
     1.0000   1.0000   1.0000   1.0000   1.0000   0.0000   0.0000   0.0000
     0.0000   0.0000   0.0000   0.0000   0.0000   0.0000   0.0000   0.0000
     0.0000   0.0000   0.0000   0.0000   0.0000   0.0000   0.0000   0.0000
     0.0000   0.0000   0.0000   0.0000   0.0000

          k = 0.1667 0.0000 0.2059 ( 25961 PWs)   bands (ev):

   -81.7143 -67.4430 -67.3831 -66.9813 -66.9475 -66.9134 -48.8091 -47.2965
   -47.2063 -34.2099 -34.1984 -34.1800 -34.1445 -34.1442 -34.1188 -33.7416
   -33.7381 -33.7303 -33.7198 -33.7101 -33.6863 -33.6691 -33.6553 -33.6505
   -22.9464 -22.8961 -14.9642 -14.9443 -14.0943 -14.0695 -13.6961 -13.6723
   -13.3327 -13.2050 -13.1605 -13.0319 -12.9819 -12.8110 -12.7796 -12.7192
   -12.7133 -12.6011 -12.5039 -12.4526 -12.2821 -12.2465 -12.1240 -12.0193
   -11.0469 -10.8172  -6.5197  -6.4735  -6.4417  -6.4338  -6.3811  -6.3700
    -4.0857  -4.0256  -2.3016  -2.2475  -1.8199  -1.4325  -1.3430  -1.2153
    -0.8834  -0.7556  -0.7439  -0.5921  -0.4436  -0.3557  -0.2825  -0.2683
     0.0220   0.1842   0.2328   0.4154   0.5165   0.6243   0.6904   0.7941
     1.0222   1.1947   1.2534   1.3236   1.4033   1.5206   1.6128   1.6881
     1.8069   1.8924   2.0041   2.0736   2.1220   2.1834   2.2545   2.3475
     2.3720   2.4215   2.4725   2.5846   2.5881   2.6034   2.7041   2.7820
     2.8425   2.9340   3.0206   3.0979   3.1875   3.2245   3.2559   3.3710
     3.4277   3.4926   3.5596   3.6209   3.6965   3.7460   3.7840   3.8314
     3.8595   3.8807   3.9537   4.0404   4.1191   4.3288   4.4606   4.4784
     4.5724   4.8204   6.1028   6.4381   6.5340   9.8098  10.2609  11.4113
    11.7550  11.8252  12.2215  12.2996  12.5353  12.8544  12.9406  13.1444
    13.2151  13.3209  13.3632  13.3719  13.5643  13.6413  13.6904  13.8049
    13.9142  13.9696  14.1305  14.3369  14.3933

     occupation numbers 
     1.0000   1.0000   1.0000   1.0000   1.0000   1.0000   1.0000   1.0000
     1.0000   1.0000   1.0000   1.0000   1.0000   1.0000   1.0000   1.0000
     1.0000   1.0000   1.0000   1.0000   1.0000   1.0000   1.0000   1.0000
     1.0000   1.0000   1.0000   1.0000   1.0000   1.0000   1.0000   1.0000
     1.0000   1.0000   1.0000   1.0000   1.0000   1.0000   1.0000   1.0000
     1.0000   1.0000   1.0000   1.0000   1.0000   1.0000   1.0000   1.0000
     1.0000   1.0000   1.0000   1.0000   1.0000   1.0000   1.0000   1.0000
     1.0000   1.0000   1.0000   1.0000   1.0000   1.0000   1.0000   1.0000
     1.0000   1.0000   1.0000   1.0000   1.0000   1.0000   1.0000   1.0000
     1.0000   1.0000   1.0000   1.0000   1.0000   1.0000   1.0000   1.0000
     1.0000   1.0000   1.0000   1.0000   1.0000   1.0000   1.0000   1.0000
     1.0000   1.0000   1.0000   1.0000   1.0000   1.0000   1.0000   1.0000
     1.0000   1.0000   1.0000   1.0000   1.0000   1.0000   1.0000   1.0000
     1.0000   1.0000   1.0000   1.0000   1.0000   1.0000   1.0000   1.0000
     1.0000   1.0000   1.0000   1.0000   1.0000   1.0000   1.0000   1.0000
     1.0000   1.0000   1.0000   1.0000   1.0000   1.0000   1.0000   1.0000
     1.0000   1.0000   1.0000   1.0000   1.0000   0.0000   0.0000   0.0000
     0.0000   0.0000   0.0000   0.0000   0.0000   0.0000   0.0000   0.0000
     0.0000   0.0000   0.0000   0.0000   0.0000   0.0000   0.0000   0.0000
     0.0000   0.0000   0.0000   0.0000   0.0000

          k = 0.1667 0.0000-0.1457 ( 25956 PWs)   bands (ev):

   -81.7143 -67.4430 -67.3831 -66.9813 -66.9475 -66.9134 -48.8091 -47.2965
   -47.2063 -34.2099 -34.1984 -34.1800 -34.1445 -34.1442 -34.1188 -33.7416
   -33.7381 -33.7303 -33.7198 -33.7101 -33.6863 -33.6691 -33.6553 -33.6505
   -22.9464 -22.8961 -14.9715 -14.9367 -14.0955 -14.0683 -13.6956 -13.6727
   -13.3351 -13.1965 -13.1670 -13.0345 -12.9811 -12.7972 -12.7910 -12.7194
   -12.7156 -12.6020 -12.4930 -12.4614 -12.2717 -12.2572 -12.1246 -12.0178
   -11.0467 -10.8172  -6.5198  -6.4736  -6.4417  -6.4337  -6.3811  -6.3700
    -4.0727  -4.0389  -2.2994  -2.2475  -1.8329  -1.4275  -1.3473  -1.2188
    -0.8772  -0.7668  -0.7380  -0.5746  -0.4677  -0.3359  -0.2945  -0.2312
    -0.0204   0.2105   0.2184   0.4408   0.5594   0.6380   0.6925   0.7948
     0.9853   1.1718   1.2127   1.3381   1.4229   1.5285   1.5833   1.6463
     1.8066   1.8901   2.0209   2.0578   2.1080   2.1574   2.2801   2.2981
     2.3668   2.4437   2.5124   2.5632   2.5972   2.6260   2.7409   2.8155
     2.8862   2.9060   3.0103   3.1216   3.1393   3.2446   3.2586   3.4054
     3.4377   3.4902   3.5828   3.6272   3.6671   3.6848   3.7772   3.8349
     3.8652   3.8742   3.9322   4.0640   4.1215   4.3207   4.4627   4.4806
     4.5645   4.8232   6.1047   6.4379   6.5352   9.6280  10.4937  11.4421
    11.7781  11.8422  12.2558  12.2803  12.5688  12.8204  12.9266  13.0660
    13.1818  13.2683  13.3700  13.4237  13.5061  13.5453  13.6634  13.8056
    13.8797  14.1217  14.1966  14.3301  14.4465

     occupation numbers 
     1.0000   1.0000   1.0000   1.0000   1.0000   1.0000   1.0000   1.0000
     1.0000   1.0000   1.0000   1.0000   1.0000   1.0000   1.0000   1.0000
     1.0000   1.0000   1.0000   1.0000   1.0000   1.0000   1.0000   1.0000
     1.0000   1.0000   1.0000   1.0000   1.0000   1.0000   1.0000   1.0000
     1.0000   1.0000   1.0000   1.0000   1.0000   1.0000   1.0000   1.0000
     1.0000   1.0000   1.0000   1.0000   1.0000   1.0000   1.0000   1.0000
     1.0000   1.0000   1.0000   1.0000   1.0000   1.0000   1.0000   1.0000
     1.0000   1.0000   1.0000   1.0000   1.0000   1.0000   1.0000   1.0000
     1.0000   1.0000   1.0000   1.0000   1.0000   1.0000   1.0000   1.0000
     1.0000   1.0000   1.0000   1.0000   1.0000   1.0000   1.0000   1.0000
     1.0000   1.0000   1.0000   1.0000   1.0000   1.0000   1.0000   1.0000
     1.0000   1.0000   1.0000   1.0000   1.0000   1.0000   1.0000   1.0000
     1.0000   1.0000   1.0000   1.0000   1.0000   1.0000   1.0000   1.0000
     1.0000   1.0000   1.0000   1.0000   1.0000   1.0000   1.0000   1.0000
     1.0000   1.0000   1.0000   1.0000   1.0000   1.0000   1.0000   1.0000
     1.0000   1.0000   1.0000   1.0000   1.0000   1.0000   1.0000   1.0000
     1.0000   1.0000   1.0000   1.0000   1.0000   0.0000   0.0000   0.0000
     0.0000   0.0000   0.0000   0.0000   0.0000   0.0000   0.0000   0.0000
     0.0000   0.0000   0.0000   0.0000   0.0000   0.0000   0.0000   0.0000
     0.0000   0.0000   0.0000   0.0000   0.0000

          k = 0.1667 0.1921 0.0301 ( 25937 PWs)   bands (ev):

   -81.7143 -67.4430 -67.3831 -66.9813 -66.9475 -66.9134 -48.8091 -47.2965
   -47.2063 -34.2099 -34.1985 -34.1800 -34.1445 -34.1441 -34.1188 -33.7416
   -33.7381 -33.7303 -33.7198 -33.7100 -33.6863 -33.6691 -33.6553 -33.6505
   -22.9464 -22.8961 -14.9766 -14.9219 -14.1330 -14.0839 -13.6897 -13.6582
   -13.3194 -13.1662 -13.0780 -13.0264 -12.9820 -12.8756 -12.8436 -12.7411
   -12.7025 -12.6056 -12.5031 -12.4376 -12.2819 -12.2411 -12.1319 -12.0085
   -11.0463 -10.8161  -6.5185  -6.4753  -6.4417  -6.4328  -6.3815  -6.3704
    -4.0571  -3.9850  -2.4753  -2.3677  -1.7984  -1.3188  -1.2652  -1.2139
    -0.8854  -0.7551  -0.7384  -0.6471  -0.4589  -0.2517  -0.2410  -0.0861
    -0.0552   0.1458   0.2074   0.4753   0.5049   0.6499   0.6707   0.7084
     0.9746   1.1243   1.2519   1.3563   1.4067   1.4923   1.5512   1.6443
     1.7706   1.9289   1.9550   2.0498   2.1532   2.1955   2.3111   2.3452
     2.3754   2.4640   2.5468   2.5796   2.6030   2.6945   2.7998   2.8211
     2.8938   2.9437   2.9907   3.0467   3.1495   3.2527   3.3450   3.3723
     3.4276   3.4687   3.4928   3.6015   3.6512   3.6646   3.7650   3.8097
     3.8662   3.9035   3.9426   4.0609   4.1200   4.2821   4.3292   4.5022
     4.5736   4.8657   6.1034   6.4443   6.5001   9.7934  10.6561  11.0075
    11.5584  11.9040  12.2844  12.5890  12.6582  12.7138  12.9500  13.0055
    13.1779  13.2853  13.3435  13.4395  13.4990  13.5922  13.6963  13.7546
    13.9042  13.9966  14.2753  14.3891  14.5584

     occupation numbers 
     1.0000   1.0000   1.0000   1.0000   1.0000   1.0000   1.0000   1.0000
     1.0000   1.0000   1.0000   1.0000   1.0000   1.0000   1.0000   1.0000
     1.0000   1.0000   1.0000   1.0000   1.0000   1.0000   1.0000   1.0000
     1.0000   1.0000   1.0000   1.0000   1.0000   1.0000   1.0000   1.0000
     1.0000   1.0000   1.0000   1.0000   1.0000   1.0000   1.0000   1.0000
     1.0000   1.0000   1.0000   1.0000   1.0000   1.0000   1.0000   1.0000
     1.0000   1.0000   1.0000   1.0000   1.0000   1.0000   1.0000   1.0000
     1.0000   1.0000   1.0000   1.0000   1.0000   1.0000   1.0000   1.0000
     1.0000   1.0000   1.0000   1.0000   1.0000   1.0000   1.0000   1.0000
     1.0000   1.0000   1.0000   1.0000   1.0000   1.0000   1.0000   1.0000
     1.0000   1.0000   1.0000   1.0000   1.0000   1.0000   1.0000   1.0000
     1.0000   1.0000   1.0000   1.0000   1.0000   1.0000   1.0000   1.0000
     1.0000   1.0000   1.0000   1.0000   1.0000   1.0000   1.0000   1.0000
     1.0000   1.0000   1.0000   1.0000   1.0000   1.0000   1.0000   1.0000
     1.0000   1.0000   1.0000   1.0000   1.0000   1.0000   1.0000   1.0000
     1.0000   1.0000   1.0000   1.0000   1.0000   1.0000   1.0000   1.0000
     1.0000   1.0000   1.0000   1.0000   1.0000   0.0000   0.0000   0.0000
     0.0000   0.0000   0.0000   0.0000   0.0000   0.0000   0.0000   0.0000
     0.0000   0.0000   0.0000   0.0000   0.0000   0.0000   0.0000   0.0000
     0.0000   0.0000   0.0000   0.0000   0.0000

          k = 0.1667 0.1921 0.2059 ( 25944 PWs)   bands (ev):

   -81.7143 -67.4430 -67.3831 -66.9813 -66.9475 -66.9134 -48.8091 -47.2965
   -47.2063 -34.2099 -34.1985 -34.1800 -34.1445 -34.1441 -34.1188 -33.7416
   -33.7381 -33.7303 -33.7198 -33.7101 -33.6863 -33.6691 -33.6552 -33.6505
   -22.9464 -22.8961 -14.9598 -14.9398 -14.1203 -14.0975 -13.6866 -13.6615
   -13.3159 -13.1555 -13.0957 -13.0208 -12.9783 -12.8932 -12.8273 -12.7383
   -12.7036 -12.6086 -12.5005 -12.4425 -12.2795 -12.2439 -12.1214 -12.0172
   -11.0459 -10.8169  -6.5185  -6.4754  -6.4417  -6.4327  -6.3814  -6.3704
    -4.0487  -3.9939  -2.4491  -2.3971  -1.7734  -1.2997  -1.2915  -1.1918
    -0.8883  -0.7825  -0.7188  -0.6185  -0.4780  -0.3375  -0.2044  -0.1350
    -0.0199   0.1162   0.2201   0.4462   0.4558   0.6310   0.6571   0.7601
     0.9995   1.1220   1.2430   1.4110   1.4175   1.5280   1.6307   1.7046
     1.8234   1.8474   1.9185   2.0515   2.1632   2.2374   2.2845   2.3290
     2.4359   2.4467   2.5228   2.5663   2.5804   2.6835   2.7632   2.8116
     2.8447   2.8883   3.0383   3.1016   3.1855   3.2212   3.2625   3.3351
     3.4170   3.4762   3.5563   3.5808   3.6731   3.7097   3.7489   3.7915
     3.8490   3.9192   3.9445   4.0294   4.1382   4.2834   4.3366   4.5106
     4.5870   4.8657   6.1005   6.4447   6.4947  10.1096  10.5319  10.8662
    11.2452  11.8899  12.2602  12.6093  12.7062  12.8650  12.9983  13.1129
    13.2456  13.3262  13.3676  13.4350  13.5044  13.6389  13.7004  13.7494
    13.8580  13.9890  14.1990  14.2773  14.5065

     occupation numbers 
     1.0000   1.0000   1.0000   1.0000   1.0000   1.0000   1.0000   1.0000
     1.0000   1.0000   1.0000   1.0000   1.0000   1.0000   1.0000   1.0000
     1.0000   1.0000   1.0000   1.0000   1.0000   1.0000   1.0000   1.0000
     1.0000   1.0000   1.0000   1.0000   1.0000   1.0000   1.0000   1.0000
     1.0000   1.0000   1.0000   1.0000   1.0000   1.0000   1.0000   1.0000
     1.0000   1.0000   1.0000   1.0000   1.0000   1.0000   1.0000   1.0000
     1.0000   1.0000   1.0000   1.0000   1.0000   1.0000   1.0000   1.0000
     1.0000   1.0000   1.0000   1.0000   1.0000   1.0000   1.0000   1.0000
     1.0000   1.0000   1.0000   1.0000   1.0000   1.0000   1.0000   1.0000
     1.0000   1.0000   1.0000   1.0000   1.0000   1.0000   1.0000   1.0000
     1.0000   1.0000   1.0000   1.0000   1.0000   1.0000   1.0000   1.0000
     1.0000   1.0000   1.0000   1.0000   1.0000   1.0000   1.0000   1.0000
     1.0000   1.0000   1.0000   1.0000   1.0000   1.0000   1.0000   1.0000
     1.0000   1.0000   1.0000   1.0000   1.0000   1.0000   1.0000   1.0000
     1.0000   1.0000   1.0000   1.0000   1.0000   1.0000   1.0000   1.0000
     1.0000   1.0000   1.0000   1.0000   1.0000   1.0000   1.0000   1.0000
     1.0000   1.0000   1.0000   1.0000   1.0000   0.0000   0.0000   0.0000
     0.0000   0.0000   0.0000   0.0000   0.0000   0.0000   0.0000   0.0000
     0.0000   0.0000   0.0000   0.0000   0.0000   0.0000   0.0000   0.0000
     0.0000   0.0000   0.0000   0.0000   0.0000

          k = 0.1667 0.1921-0.1457 ( 25923 PWs)   bands (ev):

   -81.7143 -67.4430 -67.3831 -66.9813 -66.9475 -66.9134 -48.8091 -47.2965
   -47.2063 -34.2099 -34.1984 -34.1800 -34.1445 -34.1441 -34.1188 -33.7416
   -33.7381 -33.7303 -33.7198 -33.7101 -33.6863 -33.6691 -33.6552 -33.6505
   -22.9464 -22.8961 -14.9670 -14.9323 -14.1231 -14.0946 -13.6843 -13.6639
   -13.3171 -13.1560 -13.0905 -13.0277 -12.9777 -12.8861 -12.8343 -12.7386
   -12.7031 -12.6089 -12.4895 -12.4513 -12.2704 -12.2535 -12.1220 -12.0159
   -11.0457 -10.8169  -6.5186  -6.4754  -6.4417  -6.4327  -6.3814  -6.3704
    -4.0377  -4.0052  -2.4509  -2.3944  -1.7829  -1.3144  -1.2819  -1.1915
    -0.8792  -0.7740  -0.7246  -0.6251  -0.4840  -0.2983  -0.2154  -0.1312
    -0.0495   0.1467   0.1880   0.4796   0.5048   0.6399   0.6663   0.7491
     0.9717   1.0999   1.2171   1.3855   1.4381   1.5175   1.5984   1.6710
     1.7993   1.8917   1.9431   2.0784   2.1509   2.2090   2.2670   2.3444
     2.4096   2.4522   2.5102   2.5778   2.6023   2.7015   2.7841   2.8084
     2.8716   2.9048   3.0158   3.1110   3.1853   3.2402   3.2771   3.3574
     3.4207   3.4648   3.5314   3.6016   3.6505   3.7219   3.7574   3.7969
     3.8415   3.8801   3.9059   4.0747   4.1271   4.2794   4.3360   4.5070
     4.5801   4.8679   6.1028   6.4437   6.4947   9.9671  10.7236  10.8061
    11.3509  11.9460  12.2958  12.5859  12.6767  12.8151  12.9769  13.0672
    13.1941  13.2977  13.3805  13.4157  13.5305  13.6112  13.6822  13.8032
    13.8715  13.9031  14.1220  14.3764  14.4981

     occupation numbers 
     1.0000   1.0000   1.0000   1.0000   1.0000   1.0000   1.0000   1.0000
     1.0000   1.0000   1.0000   1.0000   1.0000   1.0000   1.0000   1.0000
     1.0000   1.0000   1.0000   1.0000   1.0000   1.0000   1.0000   1.0000
     1.0000   1.0000   1.0000   1.0000   1.0000   1.0000   1.0000   1.0000
     1.0000   1.0000   1.0000   1.0000   1.0000   1.0000   1.0000   1.0000
     1.0000   1.0000   1.0000   1.0000   1.0000   1.0000   1.0000   1.0000
     1.0000   1.0000   1.0000   1.0000   1.0000   1.0000   1.0000   1.0000
     1.0000   1.0000   1.0000   1.0000   1.0000   1.0000   1.0000   1.0000
     1.0000   1.0000   1.0000   1.0000   1.0000   1.0000   1.0000   1.0000
     1.0000   1.0000   1.0000   1.0000   1.0000   1.0000   1.0000   1.0000
     1.0000   1.0000   1.0000   1.0000   1.0000   1.0000   1.0000   1.0000
     1.0000   1.0000   1.0000   1.0000   1.0000   1.0000   1.0000   1.0000
     1.0000   1.0000   1.0000   1.0000   1.0000   1.0000   1.0000   1.0000
     1.0000   1.0000   1.0000   1.0000   1.0000   1.0000   1.0000   1.0000
     1.0000   1.0000   1.0000   1.0000   1.0000   1.0000   1.0000   1.0000
     1.0000   1.0000   1.0000   1.0000   1.0000   1.0000   1.0000   1.0000
     1.0000   1.0000   1.0000   1.0000   1.0000   0.0000   0.0000   0.0000
     0.0000   0.0000   0.0000   0.0000   0.0000   0.0000   0.0000   0.0000
     0.0000   0.0000   0.0000   0.0000   0.0000   0.0000   0.0000   0.0000
     0.0000   0.0000   0.0000   0.0000   0.0000

          k = 0.3333 0.0000 0.0601 ( 25907 PWs)   bands (ev):

   -81.7143 -67.4430 -67.3831 -66.9813 -66.9475 -66.9134 -48.8091 -47.2965
   -47.2063 -34.2099 -34.1984 -34.1800 -34.1444 -34.1443 -34.1188 -33.7414
   -33.7391 -33.7303 -33.7186 -33.7101 -33.6850 -33.6698 -33.6557 -33.6512
   -22.9461 -22.8958 -14.8180 -14.7671 -14.2405 -14.2005 -13.8075 -13.7685
   -13.2763 -13.1016 -13.0647 -13.0036 -12.9327 -12.8665 -12.7950 -12.7238
   -12.7168 -12.6078 -12.5611 -12.4862 -12.3724 -12.3149 -12.1149 -12.0015
   -11.0426 -10.8263  -6.5210  -6.4811  -6.4383  -6.4312  -6.3810  -6.3621
    -3.6735  -3.5972  -2.4833  -2.3676  -1.7866  -1.6122  -1.4082  -1.1835
    -0.9463  -0.6946  -0.6517  -0.6037  -0.4643  -0.2918  -0.2319  -0.1335
    -0.0659   0.1691   0.2917   0.4537   0.5594   0.6284   0.6658   0.6910
     0.9717   1.1646   1.2658   1.2985   1.4399   1.4939   1.5844   1.6329
     1.6966   1.7085   1.8299   1.9366   2.0657   2.2239   2.2706   2.3284
     2.4133   2.4384   2.5060   2.6153   2.6858   2.7546   2.7805   2.8195
     2.8790   2.9321   3.0267   3.0353   3.1387   3.1870   3.2311   3.2895
     3.4089   3.4862   3.5225   3.6118   3.6261   3.6540   3.7287   3.7775
     3.8073   3.8222   4.0140   4.0491   4.0668   4.3311   4.4183   4.4408
     4.4982   4.8646   6.0570   6.4374   6.5380  10.2170  11.2176  11.4535
    11.9476  11.9946  12.2230  12.3019  12.6548  12.7458  12.7697  12.9001
    13.1338  13.1739  13.4325  13.5241  13.5290  13.5709  13.7068  13.9469
    14.0383  14.1850  14.2449  14.2827  14.4427

     occupation numbers 
     1.0000   1.0000   1.0000   1.0000   1.0000   1.0000   1.0000   1.0000
     1.0000   1.0000   1.0000   1.0000   1.0000   1.0000   1.0000   1.0000
     1.0000   1.0000   1.0000   1.0000   1.0000   1.0000   1.0000   1.0000
     1.0000   1.0000   1.0000   1.0000   1.0000   1.0000   1.0000   1.0000
     1.0000   1.0000   1.0000   1.0000   1.0000   1.0000   1.0000   1.0000
     1.0000   1.0000   1.0000   1.0000   1.0000   1.0000   1.0000   1.0000
     1.0000   1.0000   1.0000   1.0000   1.0000   1.0000   1.0000   1.0000
     1.0000   1.0000   1.0000   1.0000   1.0000   1.0000   1.0000   1.0000
     1.0000   1.0000   1.0000   1.0000   1.0000   1.0000   1.0000   1.0000
     1.0000   1.0000   1.0000   1.0000   1.0000   1.0000   1.0000   1.0000
     1.0000   1.0000   1.0000   1.0000   1.0000   1.0000   1.0000   1.0000
     1.0000   1.0000   1.0000   1.0000   1.0000   1.0000   1.0000   1.0000
     1.0000   1.0000   1.0000   1.0000   1.0000   1.0000   1.0000   1.0000
     1.0000   1.0000   1.0000   1.0000   1.0000   1.0000   1.0000   1.0000
     1.0000   1.0000   1.0000   1.0000   1.0000   1.0000   1.0000   1.0000
     1.0000   1.0000   1.0000   1.0000   1.0000   1.0000   1.0000   1.0000
     1.0000   1.0000   1.0000   1.0000   1.0000   0.0000   0.0000   0.0000
     0.0000   0.0000   0.0000   0.0000   0.0000   0.0000   0.0000   0.0000
     0.0000   0.0000   0.0000   0.0000   0.0000   0.0000   0.0000   0.0000
     0.0000   0.0000   0.0000   0.0000   0.0000

          k = 0.3333 0.0000 0.2360 ( 25948 PWs)   bands (ev):

   -81.7143 -67.4430 -67.3831 -66.9813 -66.9475 -66.9134 -48.8091 -47.2965
   -47.2063 -34.2099 -34.1985 -34.1800 -34.1445 -34.1443 -34.1188 -33.7414
   -33.7391 -33.7303 -33.7187 -33.7101 -33.6850 -33.6698 -33.6557 -33.6512
   -22.9461 -22.8958 -14.7997 -14.7864 -14.2384 -14.2028 -13.7995 -13.7771
   -13.2733 -13.0937 -13.0624 -13.0233 -12.9249 -12.8612 -12.8054 -12.7233
   -12.7085 -12.6116 -12.5564 -12.4931 -12.3598 -12.3261 -12.1041 -12.0111
   -11.0417 -10.8273  -6.5211  -6.4812  -6.4382  -6.4312  -6.3809  -6.3621
    -3.6712  -3.5999  -2.4559  -2.3986  -1.7602  -1.6486  -1.3808  -1.1695
    -0.9565  -0.6796  -0.6598  -0.5876  -0.4393  -0.3393  -0.2564  -0.1546
    -0.0382   0.1217   0.2969   0.4296   0.5492   0.6168   0.6802   0.7081
     1.0091   1.1792   1.2408   1.2998   1.3782   1.5268   1.6283   1.6554
     1.7260   1.7432   1.7913   1.9843   2.1298   2.1850   2.2397   2.3374
     2.3935   2.4512   2.4623   2.5648   2.6923   2.7526   2.7837   2.8319
     2.9093   2.9258   2.9664   3.0496   3.1230   3.1865   3.2142   3.3275
     3.4028   3.4865   3.5417   3.6095   3.6358   3.6767   3.7093   3.7673
     3.8028   3.8444   3.9333   4.0224   4.1329   4.3094   4.4340   4.4622
     4.5046   4.8631   6.0564   6.4373   6.5354  10.5483  10.7510  11.5111
    11.9282  12.0076  12.2200  12.3450  12.5717  12.6683  12.8158  12.9048
    13.1587  13.3039  13.3976  13.4676  13.5145  13.6438  13.8219  13.9348
    13.9876  14.0363  14.0495  14.4616  14.5880

     occupation numbers 
     1.0000   1.0000   1.0000   1.0000   1.0000   1.0000   1.0000   1.0000
     1.0000   1.0000   1.0000   1.0000   1.0000   1.0000   1.0000   1.0000
     1.0000   1.0000   1.0000   1.0000   1.0000   1.0000   1.0000   1.0000
     1.0000   1.0000   1.0000   1.0000   1.0000   1.0000   1.0000   1.0000
     1.0000   1.0000   1.0000   1.0000   1.0000   1.0000   1.0000   1.0000
     1.0000   1.0000   1.0000   1.0000   1.0000   1.0000   1.0000   1.0000
     1.0000   1.0000   1.0000   1.0000   1.0000   1.0000   1.0000   1.0000
     1.0000   1.0000   1.0000   1.0000   1.0000   1.0000   1.0000   1.0000
     1.0000   1.0000   1.0000   1.0000   1.0000   1.0000   1.0000   1.0000
     1.0000   1.0000   1.0000   1.0000   1.0000   1.0000   1.0000   1.0000
     1.0000   1.0000   1.0000   1.0000   1.0000   1.0000   1.0000   1.0000
     1.0000   1.0000   1.0000   1.0000   1.0000   1.0000   1.0000   1.0000
     1.0000   1.0000   1.0000   1.0000   1.0000   1.0000   1.0000   1.0000
     1.0000   1.0000   1.0000   1.0000   1.0000   1.0000   1.0000   1.0000
     1.0000   1.0000   1.0000   1.0000   1.0000   1.0000   1.0000   1.0000
     1.0000   1.0000   1.0000   1.0000   1.0000   1.0000   1.0000   1.0000
     1.0000   1.0000   1.0000   1.0000   1.0000   0.0000   0.0000   0.0000
     0.0000   0.0000   0.0000   0.0000   0.0000   0.0000   0.0000   0.0000
     0.0000   0.0000   0.0000   0.0000   0.0000   0.0000   0.0000   0.0000
     0.0000   0.0000   0.0000   0.0000   0.0000

          k = 0.3333 0.0000-0.1157 ( 25913 PWs)   bands (ev):

   -81.7143 -67.4430 -67.3831 -66.9813 -66.9475 -66.9134 -48.8091 -47.2965
   -47.2063 -34.2099 -34.1985 -34.1800 -34.1444 -34.1443 -34.1188 -33.7413
   -33.7391 -33.7303 -33.7186 -33.7101 -33.6850 -33.6698 -33.6557 -33.6512
   -22.9461 -22.8958 -14.8124 -14.7731 -14.2327 -14.2088 -13.8024 -13.7739
   -13.2757 -13.0876 -13.0671 -13.0235 -12.9270 -12.8545 -12.8113 -12.7169
   -12.7139 -12.6140 -12.5452 -12.5017 -12.3543 -12.3310 -12.1057 -12.0092
   -11.0416 -10.8272  -6.5211  -6.4813  -6.4382  -6.4311  -6.3809  -6.3621
    -3.6417  -3.6302  -2.4714  -2.3817  -1.7757  -1.6226  -1.4068  -1.1755
    -0.9477  -0.6737  -0.6409  -0.6013  -0.4596  -0.3049  -0.2529  -0.1386
    -0.1020   0.1520   0.3343   0.4156   0.5842   0.6312   0.6748   0.6972
     0.9977   1.1496   1.2536   1.3348   1.3691   1.5056   1.5826   1.6514
     1.6799   1.7133   1.8539   1.9299   2.1012   2.1919   2.2461   2.3489
     2.3710   2.4880   2.4909   2.6276   2.7040   2.7532   2.7870   2.8398
     2.8952   2.9475   2.9696   3.0089   3.0981   3.1623   3.2868   3.3578
     3.4457   3.4772   3.5304   3.5825   3.6218   3.6538   3.6701   3.7589
     3.8203   3.8608   3.9463   4.0158   4.1275   4.3024   4.4253   4.4657
     4.5026   4.8651   6.0581   6.4392   6.5365  10.2723  11.0982  11.5695
    11.8312  12.0806  12.2628  12.3820  12.6241  12.6378  12.7927  12.9243
    13.0895  13.2817  13.3220  13.4823  13.5279  13.5453  13.6576  13.8986
    14.0706  14.0749  14.2136  14.3945  14.5324

     occupation numbers 
     1.0000   1.0000   1.0000   1.0000   1.0000   1.0000   1.0000   1.0000
     1.0000   1.0000   1.0000   1.0000   1.0000   1.0000   1.0000   1.0000
     1.0000   1.0000   1.0000   1.0000   1.0000   1.0000   1.0000   1.0000
     1.0000   1.0000   1.0000   1.0000   1.0000   1.0000   1.0000   1.0000
     1.0000   1.0000   1.0000   1.0000   1.0000   1.0000   1.0000   1.0000
     1.0000   1.0000   1.0000   1.0000   1.0000   1.0000   1.0000   1.0000
     1.0000   1.0000   1.0000   1.0000   1.0000   1.0000   1.0000   1.0000
     1.0000   1.0000   1.0000   1.0000   1.0000   1.0000   1.0000   1.0000
[...]
     atom   11 type  7   force =    -0.00100233    0.00371708    0.01459095
     atom   12 type  7   force =    -0.00084014   -0.01230974    0.01039718
     atom   13 type  7   force =     0.00084015   -0.01230972   -0.01039727
     atom   14 type  1   force =    -0.00044615   -0.00209832   -0.01026463
     atom   15 type  1   force =     0.00044613   -0.00209831    0.01026470
     atom   16 type  6   force =    -0.00015097    0.00017844    0.00648391
     atom   17 type  6   force =     0.00015096    0.00017844   -0.00648391
     atom   18 type  6   force =     0.00077557    0.00002500   -0.00677789
     atom   19 type  6   force =    -0.00077557    0.00002500    0.00677789
     atom   20 type  6   force =     0.00076926   -0.00101202    0.00654311
     atom   21 type  6   force =    -0.00076926   -0.00101202   -0.00654311
     atom   22 type  6   force =     0.00005820    0.00011593   -0.00323756
     atom   23 type  6   force =    -0.00005819    0.00011593    0.00323756
     atom   24 type  6   force =     0.00455291   -0.00173757   -0.00578656
     atom   25 type  6   force =    -0.00455291   -0.00173757    0.00578654
     atom   26 type  6   force =    -0.00311518    0.00087969   -0.00723908
     atom   27 type  6   force =     0.00311517    0.00087969    0.00723905
     atom   28 type  6   force =    -0.00142179    0.00207383    0.00712522
     atom   29 type  6   force =     0.00142179    0.00207383   -0.00712524
     atom   30 type  6   force =     0.00071142   -0.00177548   -0.00764418
     atom   31 type  6   force =    -0.00071142   -0.00177548    0.00764416
     atom   32 type  6   force =    -0.00231102   -0.00359196   -0.00653119
     atom   33 type  6   force =     0.00231101   -0.00359196    0.00653120
     atom   34 type  6   force =     0.00109980    0.00415539    0.00638003
     atom   35 type  6   force =    -0.00109981    0.00415540   -0.00638001
     atom   36 type  6   force =    -0.00003678    0.00050649    0.01136218
     atom   37 type  6   force =     0.00003677    0.00050650   -0.01136221
     atom   38 type  6   force =     0.00172104   -0.00022335    0.01078468
     atom   39 type  6   force =    -0.00172100   -0.00022334   -0.01078466
     atom   40 type  3   force =     0.00000000    0.00000000    0.00000000
     atom   41 type  3   force =     0.00000000    0.00000000    0.00000000
     atom   42 type  3   force =     0.00000000    0.00000000    0.00000000
     atom   43 type  3   force =     0.00000000    0.00000000    0.00000000
     atom   44 type  2   force =    -0.00000000    0.00333690    0.00000000
     The Hubbard contrib.    to forces
     atom    1 type  4   force =     0.00000000    0.00000000    0.00000000
     atom    2 type  4   force =     0.00000000    0.00000000    0.00000000
     atom    3 type  5   force =     0.00000000    0.00000000    0.00000000
     atom    4 type  5   force =     0.00000000    0.00000000    0.00000000
     atom    5 type  5   force =     0.00000000    0.00000000    0.00000000
     atom    6 type  5   force =     0.00000000    0.00000000    0.00000000
     atom    7 type  5   force =     0.00000000    0.00000000    0.00000000
     atom    8 type  7   force =     0.00000000    0.00000000    0.00000000
     atom    9 type  7   force =     0.00000000    0.00000000    0.00000000
     atom   10 type  7   force =     0.00000000    0.00000000    0.00000000
     atom   11 type  7   force =     0.00000000    0.00000000    0.00000000
     atom   12 type  7   force =     0.00000000    0.00000000    0.00000000
     atom   13 type  7   force =     0.00000000    0.00000000    0.00000000
     atom   14 type  1   force =     0.00000000    0.00000000    0.00000000
     atom   15 type  1   force =     0.00000000    0.00000000    0.00000000
     atom   16 type  6   force =     0.00000000    0.00000000    0.00000000
     atom   17 type  6   force =     0.00000000    0.00000000    0.00000000
     atom   18 type  6   force =     0.00000000    0.00000000    0.00000000
     atom   19 type  6   force =     0.00000000    0.00000000    0.00000000
     atom   20 type  6   force =     0.00000000    0.00000000    0.00000000
     atom   21 type  6   force =     0.00000000    0.00000000    0.00000000
     atom   22 type  6   force =     0.00000000    0.00000000    0.00000000
     atom   23 type  6   force =     0.00000000    0.00000000    0.00000000
     atom   24 type  6   force =     0.00000000    0.00000000    0.00000000
     atom   25 type  6   force =     0.00000000    0.00000000    0.00000000
     atom   26 type  6   force =     0.00000000    0.00000000    0.00000000
     atom   27 type  6   force =     0.00000000    0.00000000    0.00000000
     atom   28 type  6   force =     0.00000000    0.00000000    0.00000000
     atom   29 type  6   force =     0.00000000    0.00000000    0.00000000
     atom   30 type  6   force =     0.00000000    0.00000000    0.00000000
     atom   31 type  6   force =     0.00000000    0.00000000    0.00000000
     atom   32 type  6   force =     0.00000000    0.00000000    0.00000000
     atom   33 type  6   force =     0.00000000    0.00000000    0.00000000
     atom   34 type  6   force =     0.00000000    0.00000000    0.00000000
     atom   35 type  6   force =     0.00000000    0.00000000    0.00000000
     atom   36 type  6   force =     0.00000000    0.00000000    0.00000000
     atom   37 type  6   force =     0.00000000    0.00000000    0.00000000
     atom   38 type  6   force =     0.00000000    0.00000000    0.00000000
     atom   39 type  6   force =     0.00000000    0.00000000    0.00000000
     atom   40 type  3   force =     0.00000000    0.00000000    0.00000000
     atom   41 type  3   force =     0.00000000    0.00000000    0.00000000
     atom   42 type  3   force =     0.00000000    0.00000000    0.00000000
     atom   43 type  3   force =     0.00000000    0.00000000    0.00000000
     atom   44 type  2   force =     0.00000000    0.00000000    0.00000000
     The SCF correction term to forces
     atom    1 type  4   force =    -0.00000000    0.00000877    0.00000000
     atom    2 type  4   force =    -0.00000000   -0.00000838   -0.00000000
     atom    3 type  5   force =    -0.00000000   -0.00000367    0.00000000
     atom    4 type  5   force =    -0.00000000   -0.00000570    0.00000000
     atom    5 type  5   force =    -0.00000000    0.00000994   -0.00000000
     atom    6 type  5   force =     0.00000000    0.00002469   -0.00000000
     atom    7 type  5   force =     0.00000000   -0.00001863   -0.00000000
     atom    8 type  7   force =     0.00000109   -0.00000266   -0.00000508
     atom    9 type  7   force =    -0.00000109   -0.00000266    0.00000508
     atom   10 type  7   force =    -0.00000132   -0.00000130    0.00000368
     atom   11 type  7   force =     0.00000132   -0.00000130   -0.00000368
     atom   12 type  7   force =    -0.00000128    0.00000503   -0.00000360
     atom   13 type  7   force =     0.00000128    0.00000503    0.00000360
     atom   14 type  1   force =     0.00000001   -0.00000082    0.00000829
     atom   15 type  1   force =    -0.00000001   -0.00000082   -0.00000829
     atom   16 type  6   force =     0.00000137   -0.00000876    0.00000744
     atom   17 type  6   force =    -0.00000137   -0.00000876   -0.00000744
     atom   18 type  6   force =    -0.00000207    0.00000047   -0.00000037
     atom   19 type  6   force =     0.00000207    0.00000047    0.00000037
     atom   20 type  6   force =    -0.00000245    0.00000926    0.00000866
     atom   21 type  6   force =     0.00000245    0.00000926   -0.00000866
     atom   22 type  6   force =     0.00000052   -0.00000218   -0.00000402
     atom   23 type  6   force =    -0.00000052   -0.00000218    0.00000402
     atom   24 type  6   force =    -0.00000331   -0.00001179   -0.00002012
     atom   25 type  6   force =     0.00000331   -0.00001179    0.00002012
     atom   26 type  6   force =     0.00000170   -0.00000999   -0.00001508
     atom   27 type  6   force =    -0.00000170   -0.00000999    0.00001508
     atom   28 type  6   force =     0.00000351    0.00000429    0.00001419
     atom   29 type  6   force =    -0.00000351    0.00000429   -0.00001419
     atom   30 type  6   force =     0.00000468    0.00000482   -0.00001620
     atom   31 type  6   force =    -0.00000468    0.00000482    0.00001620
     atom   32 type  6   force =    -0.00000508    0.00001015   -0.00001963
     atom   33 type  6   force =     0.00000508    0.00001015    0.00001963
     atom   34 type  6   force =    -0.00000659   -0.00000160    0.00002213
     atom   35 type  6   force =     0.00000659   -0.00000160   -0.00002213
     atom   36 type  6   force =     0.00000220    0.00000839   -0.00000278
     atom   37 type  6   force =    -0.00000220    0.00000839    0.00000278
     atom   38 type  6   force =    -0.00000098   -0.00000844    0.00000380
     atom   39 type  6   force =     0.00000098   -0.00000844   -0.00000380
     atom   40 type  3   force =     0.00000020    0.00000131    0.00000074
     atom   41 type  3   force =    -0.00000020    0.00000131   -0.00000074
     atom   42 type  3   force =     0.00000005   -0.00000154    0.00000245
     atom   43 type  3   force =    -0.00000005   -0.00000154   -0.00000245
     atom   44 type  2   force =     0.00000000   -0.00000226   -0.00000000

     DFT-D3 dispersion contribution to forces:
     atom    1 type  4   force =    -0.00000000    0.00098579   -0.00000000
     atom    2 type  4   force =    -0.00000000   -0.00077282    0.00000000
     atom    3 type  5   force =     0.00000000    0.00025765    0.00000000
     atom    4 type  5   force =     0.00000000    0.00070688   -0.00000000
     atom    5 type  5   force =     0.00000000   -0.00106067   -0.00000000
     atom    6 type  5   force =    -0.00000000   -0.00054860    0.00000000
     atom    7 type  5   force =    -0.00000000   -0.00019070   -0.00000000
     atom    8 type  7   force =     0.00000370    0.00000397   -0.00032173
     atom    9 type  7   force =    -0.00000370    0.00000397    0.00032173
     atom   10 type  7   force =    -0.00009866    0.00005208    0.00010817
     atom   11 type  7   force =     0.00009866    0.00005208   -0.00010817
     atom   12 type  7   force =    -0.00013885    0.00022017   -0.00004142
     atom   13 type  7   force =     0.00013885    0.00022017    0.00004142
     atom   14 type  1   force =     0.00002608    0.00011550   -0.00088224
     atom   15 type  1   force =    -0.00002608    0.00011550    0.00088224
     atom   16 type  6   force =    -0.00003314    0.00008080    0.00044546
     atom   17 type  6   force =     0.00003314    0.00008080   -0.00044546
     atom   18 type  6   force =    -0.00009518    0.00000476   -0.00042163
     atom   19 type  6   force =     0.00009518    0.00000476    0.00042163
     atom   20 type  6   force =    -0.00006194   -0.00003024    0.00049560
     atom   21 type  6   force =     0.00006194   -0.00003024   -0.00049560
     atom   22 type  6   force =    -0.00001898   -0.00003090    0.00007152
     atom   23 type  6   force =     0.00001898   -0.00003090   -0.00007152
     atom   24 type  6   force =    -0.00020194    0.00105431    0.00026537
     atom   25 type  6   force =     0.00020194    0.00105431   -0.00026537
     atom   26 type  6   force =     0.00086585    0.00009711    0.00018888
     atom   27 type  6   force =    -0.00086585    0.00009711   -0.00018887
     atom   28 type  6   force =     0.00030953   -0.00045588    0.00003855
     atom   29 type  6   force =    -0.00030953   -0.00045588   -0.00003855
     atom   30 type  6   force =    -0.00014672    0.00020415   -0.00005790
     atom   31 type  6   force =     0.00014672    0.00020415    0.00005790
     atom   32 type  6   force =     0.00096541   -0.00045101    0.00041785
     atom   33 type  6   force =    -0.00096541   -0.00045101   -0.00041785
     atom   34 type  6   force =     0.00068038   -0.00054603   -0.00044526
     atom   35 type  6   force =    -0.00068038   -0.00054603    0.00044526
     atom   36 type  6   force =    -0.00003195   -0.00004674   -0.00050262
     atom   37 type  6   force =     0.00003195   -0.00004674    0.00050262
     atom   38 type  6   force =    -0.00003127   -0.00000467   -0.00043745
     atom   39 type  6   force =     0.00003127   -0.00000467    0.00043745
     atom   40 type  3   force =    -0.00002596    0.00005817   -0.00029869
     atom   41 type  3   force =     0.00002596    0.00005817    0.00029869
     atom   42 type  3   force =     0.00014703   -0.00049747   -0.00012343
     atom   43 type  3   force =    -0.00014703   -0.00049747    0.00012343
     atom   44 type  2   force =    -0.00000000    0.00096631    0.00000000

     Total force =     0.002586     Total SCF correction =     0.000087

     DFT-D3 dispersion Force =     0.004333


     Computing stress (Cartesian axis) and pressure


     negative rho (up, down):  0.000E+00 3.597E-04
          total   stress  (Ry/bohr**3)                   (kbar)     P=       -0.75
  -0.00000532   0.00000000  -0.00000021           -0.78        0.00       -0.03
   0.00000000  -0.00000376   0.00000000            0.00       -0.55        0.00
  -0.00000021   0.00000000  -0.00000612           -0.03        0.00       -0.90

     kinetic stress (kbar)  20093.02      0.00     39.12
                                0.00  20124.52      0.00
                               39.12      0.00  19746.62

     local   stress (kbar) -40544.85      0.00    -93.81
                                0.00 -39894.74     -0.00
                              -93.81     -0.00  18922.18

     nonloc. stress (kbar)   3788.76      0.00     -6.27
                                0.00   3791.30      0.00
                               -6.27      0.00   3780.52

     hartree stress (kbar)  22858.19      0.00     33.55
                                0.00  22528.71     -0.00
                               33.55     -0.00  -6235.53

     exc-cor stress (kbar)  -2815.76      0.00      0.39
                                0.00  -2815.58      0.00
                                0.39      0.00  -2812.83

     corecor stress (kbar)  -1854.72     -0.00     -0.21
                               -0.00  -1855.08     -0.00
                               -0.21     -0.00  -1855.99

     ewald   stress (kbar)  -1510.79     -0.00     27.13
                               -0.00  -1864.92      0.00
                               27.13      0.00 -31534.94

     hubbard stress (kbar)      0.00      0.00      0.00
                                0.00      0.00      0.00
                                0.00      0.00      0.00

     DFT-D   stress (kbar)    -14.64     -0.00      0.07
                               -0.00    -14.76     -0.00
                                0.07     -0.00    -10.93

     XDM     stress (kbar)      0.00      0.00      0.00
                                0.00      0.00      0.00
                                0.00      0.00      0.00

     dft-nl  stress (kbar)      0.00      0.00      0.00
                                0.00      0.00      0.00
                                0.00      0.00      0.00

     TS-vdW  stress (kbar)      0.00      0.00      0.00
                                0.00      0.00      0.00
                                0.00      0.00      0.00

     MDB     stress (kbar)      0.00      0.00      0.00
                                0.00      0.00      0.00
                                0.00      0.00      0.00

     3D-RISM stress (kbar)      0.00      0.00      0.00
                                0.00      0.00      0.00
                                0.00      0.00      0.00


     Writing all to output data dir ./temp/phl-fe1-fe5.save/ :
     XML data file, charge density, pseudopotentials, collected wavefunctions

     init_run     :    346.78s CPU    350.17s WALL (       2 calls)
     electrons    : 120537.95s CPU 121495.25s WALL (      20 calls)
     update_pot   :     53.46s CPU     53.94s WALL (      18 calls)
     forces       :   2454.99s CPU   2467.20s WALL (      20 calls)
     force_dftd3  :     81.51s CPU     81.65s WALL (      20 calls)
     stress       :   8389.56s CPU   8457.04s WALL (      20 calls)
     stres_dftd3  :     81.52s CPU     81.68s WALL (      20 calls)

     Called by init_run:
     wfcinit      :    328.33s CPU    330.67s WALL (       2 calls)
     wfcinit:atom :      0.57s CPU      0.58s WALL (      80 calls)
     wfcinit:wfcr :    323.24s CPU    325.54s WALL (      80 calls)
     potinit      :      7.47s CPU      7.55s WALL (       2 calls)
     hinit0       :      2.68s CPU      2.72s WALL (       2 calls)

     Called by electrons:
     c_bands      : 111637.34s CPU 112342.80s WALL (     175 calls)
     sum_band     :   7777.76s CPU   7949.27s WALL (     175 calls)
     v_of_rho     :     71.32s CPU     74.22s WALL (     186 calls)
     v_h          :      2.27s CPU      2.40s WALL (     186 calls)
     v_xc         :     83.58s CPU     87.01s WALL (     226 calls)
     newd         :    648.37s CPU    734.03s WALL (     186 calls)
     PAW_pot      :    495.78s CPU    495.90s WALL (     204 calls)
     mix_rho      :      8.85s CPU      9.24s WALL (     175 calls)
     energy_dftd3 :     63.62s CPU     63.64s WALL (      20 calls)

     Called by c_bands:
     init_us_2    :    273.05s CPU    273.40s WALL (   16400 calls)
     cegterg      : 111123.79s CPU 111827.61s WALL (    7040 calls)

     Called by sum_band:
     sum_band:wei :      0.14s CPU      0.14s WALL (     175 calls)
     sum_band:loo :   6590.08s CPU   6667.38s WALL (     175 calls)
     sum_band:buf :     30.81s CPU     30.90s WALL (    7000 calls)
     sum_band:ini :    117.99s CPU    118.10s WALL (    7000 calls)
     sum_band:cal :   5290.35s CPU   5293.84s WALL (    7720 calls)
     sum_band:bec :     13.16s CPU     13.19s WALL (    7720 calls)
     addusdens    :   1167.55s CPU   1261.04s WALL (     175 calls)
                                        0.00s GPU  (     175 calls)
     addusd:skk   :      4.08s CPU      6.39s WALL (    1225 calls)
                                        0.00s GPU  (    1225 calls)

     Called by *egterg:
     cdiaghg      :   3914.24s CPU   3955.60s WALL (   54097 calls)
     cegterg:over :  14821.65s CPU  14826.68s WALL (   48177 calls)
     cegterg:upda :   8889.55s CPU   8927.80s WALL (   48177 calls)
     cegterg:last :  23618.04s CPU  23629.41s WALL (   21761 calls)
     cdiaghg:chol :     88.96s CPU     89.15s WALL (   54097 calls)
     cdiaghg:inve :     88.52s CPU     88.63s WALL (   54097 calls)
     cdiaghg:para :   1754.66s CPU   1773.23s WALL (  108194 calls)
     h_psi        :  40845.25s CPU  41324.50s WALL (   55297 calls)
     s_psi        :  16351.57s CPU  16354.03s WALL (   55297 calls)
     g_psi        :     82.35s CPU     82.55s WALL (   48177 calls)

     Called by h_psi:
     h_psi:calbec :  16149.95s CPU  16163.03s WALL (   55297 calls)
     vloc_psi     :   8249.03s CPU   8663.11s WALL (   55297 calls)
     add_vuspsi   :  16371.48s CPU  16374.40s WALL (   55297 calls)

     General routines
     calbec       :  24178.22s CPU  24196.63s WALL (   67017 calls)
     fft          :     38.76s CPU     42.65s WALL (    5446 calls)
     ffts         :      1.07s CPU      1.17s WALL (     722 calls)
     fftw         :   7012.45s CPU   7321.52s WALL ( 8600004 calls)
     interpolate  :      4.06s CPU      4.35s WALL (     372 calls)

     Parallel routines

     PAW routines
     PAW_pot      :    495.78s CPU    495.90s WALL (     204 calls)
     PAW_symme    :      0.16s CPU      0.18s WALL (     379 calls)

     PWSCF        :   1d12h46m CPU   1d13h 4m WALL


   This run was terminated on:   3:35: 1  16Jan2025            

=------------------------------------------------------------------------------=
   JOB DONE.
=------------------------------------------------------------------------------=
