
     Program PWSCF v.7.3.1 starts on 27Feb2025 at 16: 1: 8 

     This program is part of the open-source Quantum ESPRESSO suite
     for quantum simulation of materials; please cite
         "P. Giannozzi et al., J. Phys.:Condens. Matter 21 395502 (2009);
         "P. Giannozzi et al., J. Phys.:Condens. Matter 29 465901 (2017);
         "P. Giannozzi et al., J. Chem. Phys. 152 154105 (2020);
          URL http://www.quantum-espresso.org", 
     in publications or presentations arising from this work. More details at
     http://www.quantum-espresso.org/quote

     Parallel version (MPI), running on     6 processors

     MPI processes distributed on     1 nodes
     2906 MiB available memory on the printing compute node when the environment starts

     Reading input from relax.in

     Current dimensions of program PWSCF are:
     Max number of different atomic species (ntypx) = 10
     Max number of k-points (npk) =  40000
     Max angular momentum in pseudopotentials (lmaxx) =  4
     file Al.pbe-n-kjpaw_psl.1.0.0.UPF: wavefunction(s)  3S 3P renormalized
     file Ti.pbe-spn-kjpaw_psl.1.0.0.UPF: wavefunction(s)  3S 3P 3D renormalized
     file H.pbe-kjpaw_psl.1.0.0.UPF: wavefunction(s)  1S renormalized
     file K.pbe-spn-kjpaw_psl.1.0.0.UPF: wavefunction(s)  3S renormalized
     file Mg.pbe-spnl-kjpaw_psl.1.0.0.UPF: wavefunction(s)  2P renormalized
     file O.pbe-n-kjpaw_psl.1.0.0.UPF: wavefunction(s)  2S 2P renormalized
     file Si.pbe-n-kjpaw_psl.1.0.0.UPF: wavefunction(s)  3S 3P renormalized

     R & G space division:  proc/nbgrp/npool/nimage =       6
     Subspace diagonalization in iterative solution of the eigenvalue problem:
     one sub-group per band group will be used
     custom distributed-memory algorithm (size of sub-group:  2*  2 procs)


     Parallelization info
     --------------------
     sticks:   dense  smooth     PW     G-vecs:    dense   smooth      PW
     Min        1105     554    150                97744    34578    4918
     Max        1106     555    151                97745    34580    4920
     Sum        6633    3329    905               586467   207475   29511

     Using Slab Decomposition



     bravais-lattice index     =          -12
     lattice parameter (alat)  =      10.0136  a.u.
     unit-cell volume          =    3303.4414 (a.u.)^3
     number of atoms/cell      =           44
     number of atomic types    =            7
     number of electrons       =       258.00
     number of Kohn-Sham states=          155
     kinetic-energy cutoff     =      60.0000  Ry
     charge density cutoff     =     480.0000  Ry
     scf convergence threshold =      1.0E-06
     mixing beta               =       0.7000
     number of iterations used =            8  plain     mixing
     energy convergence thresh.=      1.0E-04
     force convergence thresh. =      1.0E-03
     Exchange-correlation= SLA  PW   PBX  PBC
                           (   1   4   3   4   0   0   0)
     nstep                     =           50


     celldm(1)=  10.013640  celldm(2)=   1.735306  celldm(3)=   1.926511
     celldm(4)=   0.000000  celldm(5)=  -0.177565  celldm(6)=   0.000000

     crystal axes: (cart. coord. in units of alat)
               a(1) = (   1.000000   0.000000   0.000000 )  
               a(2) = (   0.000000   1.735306   0.000000 )  
               a(3) = (  -0.342081   0.000000   1.895896 )  

     reciprocal axes: (cart. coord. in units 2 pi/alat)
               b(1) = (  1.000000 -0.000000  0.180432 )  
               b(2) = (  0.000000  0.576267 -0.000000 )  
               b(3) = (  0.000000  0.000000  0.527455 )  


     PseudoPot. # 1 for Al read from file:
     ./../../../pseudos/Al.pbe-n-kjpaw_psl.1.0.0.UPF
     MD5 check sum: 502b6b27b9c6270cab5dd1084b96fa6d
     Pseudo is Projector augmented-wave + core cor, Zval =  3.0
     Generated using &quot;atomic&quot; code by A. Dal Corso  v.6.3
     Shape of augmentation charge: PSQ
     Using radial grid of 1135 points,  6 beta functions with: 
                l(1) =   0
                l(2) =   0
                l(3) =   1
                l(4) =   1
                l(5) =   2
                l(6) =   2
     Q(r) pseudized with 0 coefficients 


     PseudoPot. # 2 for Ti read from file:
     ./../../../pseudos/Ti.pbe-spn-kjpaw_psl.1.0.0.UPF
     MD5 check sum: 01f69b0d8ba4438b2e03ac6ea4af1c0b
     Pseudo is Projector augmented-wave + core cor, Zval = 12.0
     Generated using &quot;atomic&quot; code by A. Dal Corso  v.6.2.2
     Shape of augmentation charge: PSQ
     Using radial grid of 1177 points,  6 beta functions with: 
                l(1) =   0
                l(2) =   0
                l(3) =   1
                l(4) =   1
                l(5) =   2
                l(6) =   2
     Q(r) pseudized with 0 coefficients 


     PseudoPot. # 3 for H  read from file:
     ./../../../pseudos/H.pbe-kjpaw_psl.1.0.0.UPF
     MD5 check sum: d81a744832360e4a8af0b0b5b123bc2a
     Pseudo is Projector augmented-wave, Zval =  1.0
     Generated using &quot;atomic&quot; code by A. Dal Corso  v.6.3MaX
     Shape of augmentation charge: PSQ
     Using radial grid of  929 points,  2 beta functions with: 
                l(1) =   0
                l(2) =   0
     Q(r) pseudized with 0 coefficients 


     PseudoPot. # 4 for K  read from file:
     ./../../../pseudos/K.pbe-spn-kjpaw_psl.1.0.0.UPF
     MD5 check sum: 34cc42130a09071ebe376fd42eb21491
     Pseudo is Projector augmented-wave + core cor, Zval =  9.0
     Generated using &quot;atomic&quot; code by A. Dal Corso  v.6.2.2
     Shape of augmentation charge: PSQ
     Using radial grid of 1165 points,  6 beta functions with: 
                l(1) =   0
                l(2) =   0
                l(3) =   1
                l(4) =   1
                l(5) =   2
                l(6) =   2
     Q(r) pseudized with 0 coefficients 


     PseudoPot. # 5 for Mg read from file:
     ./../../../pseudos/Mg.pbe-spnl-kjpaw_psl.1.0.0.UPF
     MD5 check sum: fda14e0d92a6a9a5ebed782e5a4b3067
     Pseudo is Projector augmented-wave + core cor, Zval = 10.0
     Generated using &quot;atomic&quot; code by A. Dal Corso  v.6.3
     Shape of augmentation charge: PSQ
     Using radial grid of 1129 points,  4 beta functions with: 
                l(1) =   0
                l(2) =   0
                l(3) =   1
                l(4) =   1
     Q(r) pseudized with 0 coefficients 


     PseudoPot. # 6 for O  read from file:
     ./../../../pseudos/O.pbe-n-kjpaw_psl.1.0.0.UPF
     MD5 check sum: e99d9cef9b487d1ca56f5b95ecd0fd7a
     Pseudo is Projector augmented-wave + core cor, Zval =  6.0
     Generated using &quot;atomic&quot; code by A. Dal Corso  v.6.3
     Shape of augmentation charge: PSQ
     Using radial grid of 1095 points,  4 beta functions with: 
                l(1) =   0
                l(2) =   0
                l(3) =   1
                l(4) =   1
     Q(r) pseudized with 0 coefficients 


     PseudoPot. # 7 for Si read from file:
     ./../../../pseudos/Si.pbe-n-kjpaw_psl.1.0.0.UPF
     MD5 check sum: c39c59da582df4a0d9f10159256ea34e
     Pseudo is Projector augmented-wave + core cor, Zval =  4.0
     Generated using &quot;atomic&quot; code by A. Dal Corso  v.6.3
     Shape of augmentation charge: PSQ
     Using radial grid of 1141 points,  6 beta functions with: 
                l(1) =   0
                l(2) =   0
                l(3) =   1
                l(4) =   1
                l(5) =   2
                l(6) =   2
     Q(r) pseudized with 0 coefficients 


     atomic species   valence    mass     pseudopotential
     Al                3.00    26.98154     Al( 1.00)
     Ti               12.00    47.86700     Ti( 1.00)
     H                 1.00     1.00794     H ( 1.00)
     K                 9.00    39.09830     K ( 1.00)
     Mg               10.00    24.30500     Mg( 1.00)
     O                 6.00    15.99940     O ( 1.00)
     Si                4.00    28.08550     Si( 1.00)

     Starting magnetic structure 
     atomic species   magnetization
     Al              0.000
     Ti              0.300
     H               0.000
     K               0.000
     Mg              0.000
     O               0.000
     Si              0.000

      2 Sym. Ops. (no inversion) found


                                    s                        frac. trans.

      isym =  1     identity                                     

 cryst.   s( 1) = (     1          0          0      )
                  (     0          1          0      )
                  (     0          0          1      )

 cart.    s( 1) = (  1.0000000  0.0000000 -0.0000000 )
                  (  0.0000000  1.0000000  0.0000000 )
                  (  0.0000000  0.0000000  1.0000000 )


      isym =  2     180 deg rotation - cart. axis [0,1,0]        

 cryst.   s( 2) = (    -1          0          0      )
                  (     0          1          0      )
                  (     0          0         -1      )

 cart.    s( 2) = ( -1.0000000  0.0000000  0.0000000 )
                  (  0.0000000  1.0000000  0.0000000 )
                  (  0.0000000  0.0000000 -1.0000000 )


     point group C_2  (2)   
     there are  2 classes
     the character table:

       E     C2   
A      1.00  1.00
B      1.00 -1.00

     the symmetry operations in each class and the name of the first element:

     E        1
          identity                                               
     C2       2
          180 deg rotation - cart. axis [0,1,0]                  

   Cartesian axes

     site n.     atom                  positions (alat units)
         1        K      tau(   1) = (   0.0000000   0.8559224   0.0000000  )
         2        K      tau(   2) = (   0.5000000   0.0093568   0.0000000  )
         3        Mg     tau(   3) = (  -0.1710407   0.5780843   0.9479482  )
         4        Mg     tau(   4) = (  -0.1710407   1.1543881   0.9479482  )
         5        Mg     tau(   5) = (   0.3289593   0.8562226   0.9479482  )
         6        Mg     tau(   6) = (   0.3289593   1.4480089   0.9479482  )
         7        Mg     tau(   7) = (   0.3289593   0.2986375   0.9479482  )
         8        Si     tau(   8) = (   0.0066674   0.2865251   0.4219393  )
         9        Si     tau(   9) = (   0.6512512   0.2865251   1.4739571  )
        10        Si     tau(  10) = (   0.6701371   1.4476688   1.4628623  )
        11        Si     tau(  11) = (  -0.0122184   1.4476688   0.4330341  )
        12        Si     tau(  12) = (   0.4872056   1.1568454   0.4292651  )
        13        Si     tau(  13) = (   0.1707131   1.1568454   1.4666313  )
        14        Al     tau(  14) = (   0.1506005   0.5746762   1.4713786  )
        15        Al     tau(  15) = (   0.5073182   0.5746762   0.4245178  )
        16        O      tau(  16) = (  -0.0043508   0.2833738   0.7297400  )
        17        O      tau(  17) = (   0.6622695   0.2833738   1.1661564  )
        18        O      tau(  18) = (   0.6658139   1.4451231   1.1576912  )
        19        O      tau(  19) = (  -0.0078952   1.4451231   0.7382052  )
        20        O      tau(  20) = (   0.4926234   1.1618863   0.7357690  )
        21        O      tau(  21) = (   0.1652953   1.1618863   1.1601274  )
        22        O      tau(  22) = (   0.1548298   0.5779784   1.1454267  )
        23        O      tau(  23) = (   0.5030889   0.5779784   0.7504697  )
        24        O      tau(  24) = (   0.2847398   0.3548857   0.3143567  )
        25        O      tau(  25) = (   0.3731789   0.3548857   1.5815397  )
        26        O      tau(  26) = (   0.9404978   1.7303189   0.3181314  )
        27        O      tau(  27) = (  -0.2825791   1.7303189   1.5777650  )
        28        O      tau(  28) = (   0.3988927   1.3439356   1.5754330  )
        29        O      tau(  29) = (   0.2590260   1.3439356   0.3204634  )
        30        O      tau(  30) = (   0.7582660   1.2710892   0.3185125  )
        31        O      tau(  31) = (  -0.1003473   1.2710892   1.5773839  )
        32        O      tau(  32) = (   0.4432368   0.8811364   0.3085875  )
        33        O      tau(  33) = (   0.2146819   0.8811364   1.5873090  )
        34        O      tau(  34) = (  -0.1423236   0.4782556   1.5925436  )
        35        O      tau(  35) = (   0.8002423   0.4782556   0.3033529  )
        36        O      tau(  36) = (  -0.0041068   0.8750247   0.7469263  )
        37        O      tau(  37) = (   0.6620255   0.8750247   1.1489701  )
        38        O      tau(  38) = (   0.4966158   1.7335917   0.7534577  )
        39        O      tau(  39) = (   0.1613029   1.7335917   1.1424387  )
        40        H      tau(  40) = (  -0.0032097   0.8603995   0.5673129  )
        41        H      tau(  41) = (   0.6611284   0.8603995   1.3285835  )
        42        H      tau(  42) = (   0.4926802   0.0219534   0.5746291  )
        43        H      tau(  43) = (   0.1652385   0.0219534   1.3212673  )
        44        Ti     tau(  44) = (  -0.1710407   0.0067712   0.9479482  )

     --------------------------------------------
     DFT-D3 Dispersion Correction (3-body terms):
     --------------------------------------------
       Reference C6 values for interpolation: 

         atom   Coordination number   C6
         H          0.912             6.05
         H          0.000            15.18
         O          0.000            31.01
         O          0.993            25.63
         O          1.989            20.74
         Mg         0.000          1366.75
         Mg         0.963           902.54
         Mg         1.950           351.12
         Al         0.000          1081.08
         Al         0.965           875.51
         Al         1.931           513.50
         Al         2.915           307.19
         Si         0.000           635.71
         Si         0.951           540.53
         Si         1.944           466.25
         Si         2.941           443.01
         Si         3.868           299.55
         K          0.000          9967.00
         K          0.977           676.04
         Ti         0.000          2723.84
         Ti         1.830           604.00
         Ti         3.868           643.18

       Values used:

         atom   Coordination number  R0_AB[au]  C6      C8
         K         13.617            4.007    676.04 129074.98
         K         13.827            4.007    676.04 129074.98
         Mg        12.184            3.292    351.12  31436.69
         Mg        11.762            3.292    351.12  31436.69
         Mg        12.074            3.292    351.12  31436.69
         Mg        11.694            3.292    351.12  31436.69
         Mg        12.162            3.292    351.12  31436.69
         Si         6.936            3.583    299.55  21425.58
         Si         6.936            3.583    299.55  21425.58
         Si         6.509            3.583    299.55  21425.58
         Si         6.509            3.583    299.55  21425.58
         Si         6.596            3.583    299.55  21425.58
         Si         6.596            3.583    299.55  21425.58
         Al         7.868            3.789    307.19  29441.29
         Al         7.868            3.789    307.19  29441.29
         O          3.919            2.345     20.74    418.58
         O          3.919            2.345     20.74    418.58
         O          3.914            2.345     20.74    418.58
         O          3.914            2.345     20.74    418.58
         O          3.912            2.345     20.74    418.58
         O          3.912            2.345     20.74    418.58
         O          3.990            2.345     20.74    418.58
         O          3.990            2.345     20.74    418.58
         O          3.192            2.345     20.74    418.58
         O          3.192            2.345     20.74    418.58
         O          3.152            2.345     20.74    418.58
         O          3.152            2.345     20.74    418.58
         O          3.056            2.345     20.74    418.58
         O          3.056            2.345     20.74    418.58
         O          3.059            2.345     20.74    418.58
         O          3.059            2.345     20.74    418.58
         O          3.190            2.345     20.74    418.58
         O          3.190            2.345     20.74    418.58
         O          3.263            2.345     20.74    418.58
         O          3.263            2.345     20.74    418.58
         O          4.005            2.345     20.74    418.58
         O          4.005            2.345     20.74    418.58
         O          3.994            2.345     20.74    418.58
         O          3.994            2.345     20.74    418.58
         H          1.323            2.062      6.07     73.32
         H          1.323            2.062      6.07     73.32
         H          1.294            2.062      6.07     73.36
         H          1.294            2.062      6.07     73.36
         Ti        11.394            3.557    643.18  76289.64

         Molecular C6 ( Ry / a.u.^6 ) =    173888.92


   Crystallographic axes

     site n.     atom                  positions (cryst. coord.)
         1        K      tau(   1) = (  0.0000000  0.4932400  0.0000000  )
         2        K      tau(   2) = (  0.5000000  0.0053920  0.0000000  )
         3        Mg     tau(   3) = (  0.0000000  0.3331310  0.5000000  )
         4        Mg     tau(   4) = (  0.0000000  0.6652360  0.5000000  )
         5        Mg     tau(   5) = (  0.5000000  0.4934130  0.5000000  )
         6        Mg     tau(   6) = (  0.5000000  0.8344400  0.5000000  )
         7        Mg     tau(   7) = (  0.5000000  0.1720950  0.5000000  )
         8        Si     tau(   8) = (  0.0827990  0.1651150  0.2225540  )
         9        Si     tau(   9) = (  0.9172010  0.1651150  0.7774460  )
        10        Si     tau(  10) = (  0.9340850  0.8342440  0.7715940  )
        11        Si     tau(  11) = (  0.0659150  0.8342440  0.2284060  )
        12        Si     tau(  12) = (  0.5646590  0.6666520  0.2264180  )
        13        Si     tau(  13) = (  0.4353410  0.6666520  0.7735820  )
        14        Al     tau(  14) = (  0.4160850  0.3311670  0.7760860  )
        15        Al     tau(  15) = (  0.5839150  0.3311670  0.2239140  )
        16        O      tau(  16) = (  0.1273180  0.1632990  0.3849050  )
        17        O      tau(  17) = (  0.8726820  0.1632990  0.6150950  )
        18        O      tau(  18) = (  0.8746990  0.8327770  0.6106300  )
        19        O      tau(  19) = (  0.1253010  0.8327770  0.3893700  )
        20        O      tau(  20) = (  0.6253800  0.6695570  0.3880850  )
        21        O      tau(  21) = (  0.3746200  0.6695570  0.6119150  )
        22        O      tau(  22) = (  0.3615020  0.3330700  0.6041610  )
        23        O      tau(  23) = (  0.6384980  0.3330700  0.3958390  )
        24        O      tau(  24) = (  0.3414600  0.2045090  0.1658090  )
        25        O      tau(  25) = (  0.6585400  0.2045090  0.8341910  )
        26        O      tau(  26) = (  0.9978990  0.9971260  0.1678000  )
        27        O      tau(  27) = (  0.0021010  0.9971260  0.8322000  )
        28        O      tau(  28) = (  0.6831520  0.7744660  0.8309700  )
        29        O      tau(  29) = (  0.3168480  0.7744660  0.1690300  )
        30        O      tau(  30) = (  0.8157360  0.7324870  0.1680010  )
        31        O      tau(  31) = (  0.1842640  0.7324870  0.8319990  )
        32        O      tau(  32) = (  0.4989160  0.5077700  0.1627660  )
        33        O      tau(  33) = (  0.5010840  0.5077700  0.8372340  )
        34        O      tau(  34) = (  0.1450230  0.2756030  0.8399950  )
        35        O      tau(  35) = (  0.8549770  0.2756030  0.1600050  )
        36        O      tau(  36) = (  0.1306630  0.5042480  0.3939700  )
        37        O      tau(  37) = (  0.8693370  0.5042480  0.6060300  )
        38        O      tau(  38) = (  0.6325640  0.9990120  0.3974150  )
        39        O      tau(  39) = (  0.3674360  0.9990120  0.6025850  )
        40        H      tau(  40) = (  0.0991520  0.4958200  0.2992320  )
        41        H      tau(  41) = (  0.9008480  0.4958200  0.7007680  )
        42        H      tau(  42) = (  0.5963620  0.0126510  0.3030910  )
        43        H      tau(  43) = (  0.4036380  0.0126510  0.6969090  )
        44        Ti     tau(  44) = (  0.0000000  0.0039020  0.5000000  )

     number of k points=    20  Gaussian smearing, width (Ry)=  0.0010
                       cart. coord. in units 2pi/alat
        k(    1) = (   0.0000000   0.0000000   0.0000000), wk =   0.0185185
        k(    2) = (   0.0000000   0.0000000   0.1758183), wk =   0.0370370
        k(    3) = (   0.0000000   0.1920891   0.0000000), wk =   0.0370370
        k(    4) = (   0.0000000   0.1920891   0.1758183), wk =   0.0740741
        k(    5) = (   0.1666667   0.0000000   0.0300721), wk =   0.0370370
        k(    6) = (   0.1666667   0.0000000   0.2058904), wk =   0.0370370
        k(    7) = (   0.1666667   0.0000000  -0.1457462), wk =   0.0370370
        k(    8) = (   0.1666667   0.1920891   0.0300721), wk =   0.0740741
        k(    9) = (   0.1666667   0.1920891   0.2058904), wk =   0.0740741
        k(   10) = (   0.1666667   0.1920891  -0.1457462), wk =   0.0740741
        k(   11) = (   0.3333333   0.0000000   0.0601442), wk =   0.0370370
        k(   12) = (   0.3333333   0.0000000   0.2359625), wk =   0.0370370
        k(   13) = (   0.3333333   0.0000000  -0.1156742), wk =   0.0370370
        k(   14) = (   0.3333333   0.1920891   0.0601442), wk =   0.0740741
        k(   15) = (   0.3333333   0.1920891   0.2359625), wk =   0.0740741
        k(   16) = (   0.3333333   0.1920891  -0.1156742), wk =   0.0740741
        k(   17) = (  -0.5000000   0.0000000  -0.0902162), wk =   0.0185185
        k(   18) = (  -0.5000000   0.0000000   0.0856021), wk =   0.0370370
        k(   19) = (  -0.5000000   0.1920891  -0.0902162), wk =   0.0370370
        k(   20) = (  -0.5000000   0.1920891   0.0856021), wk =   0.0740741

                       cryst. coord.
        k(    1) = (   0.0000000   0.0000000   0.0000000), wk =   0.0185185
        k(    2) = (   0.0000000   0.0000000   0.3333333), wk =   0.0370370
        k(    3) = (   0.0000000   0.3333333   0.0000000), wk =   0.0370370
        k(    4) = (   0.0000000   0.3333333   0.3333333), wk =   0.0740741
        k(    5) = (   0.1666667   0.0000000  -0.0000000), wk =   0.0370370
        k(    6) = (   0.1666667   0.0000000   0.3333333), wk =   0.0370370
        k(    7) = (   0.1666667   0.0000000  -0.3333333), wk =   0.0370370
        k(    8) = (   0.1666667   0.3333333  -0.0000000), wk =   0.0740741
        k(    9) = (   0.1666667   0.3333333   0.3333333), wk =   0.0740741
        k(   10) = (   0.1666667   0.3333333  -0.3333333), wk =   0.0740741
        k(   11) = (   0.3333333   0.0000000  -0.0000000), wk =   0.0370370
        k(   12) = (   0.3333333   0.0000000   0.3333333), wk =   0.0370370
        k(   13) = (   0.3333333   0.0000000  -0.3333333), wk =   0.0370370
        k(   14) = (   0.3333333   0.3333333  -0.0000000), wk =   0.0740741
        k(   15) = (   0.3333333   0.3333333   0.3333333), wk =   0.0740741
        k(   16) = (   0.3333333   0.3333333  -0.3333333), wk =   0.0740741
        k(   17) = (  -0.5000000   0.0000000   0.0000000), wk =   0.0185185
        k(   18) = (  -0.5000000   0.0000000   0.3333333), wk =   0.0370370
        k(   19) = (  -0.5000000   0.3333333   0.0000000), wk =   0.0370370
        k(   20) = (  -0.5000000   0.3333333   0.3333333), wk =   0.0740741

     Dense  grid:   586467 G-vectors     FFT dimensions: (  72, 125, 135)

     Smooth grid:   207475 G-vectors     FFT dimensions: (  50,  90,  96)

     Dynamical RAM for                 wfc:      10.22 MB

     Dynamical RAM for     wfc (w. buffer):     419.01 MB

     Dynamical RAM for           str. fact:      10.44 MB

     Dynamical RAM for           local pot:       0.00 MB

     Dynamical RAM for          nlocal pot:      28.88 MB

     Dynamical RAM for                qrad:      12.30 MB

     Dynamical RAM for          rho,v,vnew:      18.42 MB

     Dynamical RAM for               rhoin:       6.14 MB

     Dynamical RAM for            rho*nmix:      47.73 MB

     Dynamical RAM for           G-vectors:       5.86 MB

     Dynamical RAM for          h,s,v(r/c):       1.10 MB

     Dynamical RAM for          <psi|beta>:       1.04 MB

     Dynamical RAM for                 psi:      20.44 MB

     Dynamical RAM for                hpsi:      20.44 MB

     Dynamical RAM for                spsi:      20.44 MB

     Dynamical RAM for      wfcinit/wfcrot:      24.90 MB

     Dynamical RAM for           addusdens:     314.70 MB

     Dynamical RAM for          addusforce:     383.50 MB

     Estimated static dynamical RAM per process >     522.46 MB

     Estimated max dynamical RAM per process >     953.68 MB

     Estimated total dynamical RAM >       5.59 GB

     Check: negative core charge=   -0.000004
     Generating pointlists ...
     new r_m :   0.1345 (alat units)  1.3466 (a.u.) for type    1
     new r_m :   0.1589 (alat units)  1.5910 (a.u.) for type    2
     new r_m :   0.0743 (alat units)  0.7444 (a.u.) for type    3
     new r_m :   0.2122 (alat units)  2.1246 (a.u.) for type    4
     new r_m :   0.1572 (alat units)  1.5739 (a.u.) for type    5
     new r_m :   0.0743 (alat units)  0.7444 (a.u.) for type    6
     new r_m :   0.1255 (alat units)  1.2564 (a.u.) for type    7

     Initial potential from superposition of free atoms

     starting charge     257.9482, renormalised to     258.0000
     Starting wfcs are  183 randomized atomic wfcs
     Checking if some PAW data can be deallocated... 
       PAW data deallocated on    5 nodes for type:  1
       PAW data deallocated on    5 nodes for type:  2
       PAW data deallocated on    5 nodes for type:  3
       PAW data deallocated on    5 nodes for type:  4
       PAW data deallocated on    5 nodes for type:  5
       PAW data deallocated on    1 nodes for type:  6
       PAW data deallocated on    4 nodes for type:  7

     total cpu time spent up to now is      330.1 secs

     Self-consistent Calculation

     iteration #  1     ecut=    60.00 Ry     beta= 0.70
     Davidson diagonalization with overlap

---- Real-time Memory Report at c_bands before calling an iterative solver
           581 MiB given to the printing process from OS
             0 MiB allocation reported by mallinfo(arena+hblkhd)
          1045 MiB available memory on the node where the printing process lives
------------------
     ethr =  1.00E-02,  avg # of iterations =  5.7

     total cpu time spent up to now is     1354.4 secs

     total energy              =   -2478.15917133 Ry
     estimated scf accuracy    <      12.63303688 Ry

     total magnetization       =     2.00 Bohr mag/cell
     absolute magnetization    =     2.22 Bohr mag/cell

     iteration #  2     ecut=    60.00 Ry     beta= 0.70
     Davidson diagonalization with overlap

---- Real-time Memory Report at c_bands before calling an iterative solver
           877 MiB given to the printing process from OS
             0 MiB allocation reported by mallinfo(arena+hblkhd)
          1866 MiB available memory on the node where the printing process lives
------------------
     ethr =  4.90E-03,  avg # of iterations =  5.2

     total cpu time spent up to now is     2986.9 secs

     total energy              =   -2483.64461045 Ry
     estimated scf accuracy    <      11.72361343 Ry

     total magnetization       =     0.93 Bohr mag/cell
     absolute magnetization    =     1.23 Bohr mag/cell

     iteration #  3     ecut=    60.00 Ry     beta= 0.70
     Davidson diagonalization with overlap

---- Real-time Memory Report at c_bands before calling an iterative solver
           880 MiB given to the printing process from OS
             0 MiB allocation reported by mallinfo(arena+hblkhd)
          1817 MiB available memory on the node where the printing process lives
------------------
     ethr =  4.54E-03,  avg # of iterations =  2.0

     total cpu time spent up to now is     3819.9 secs

     total energy              =   -2484.67849884 Ry
     estimated scf accuracy    <       2.06460258 Ry

     total magnetization       =     2.00 Bohr mag/cell
     absolute magnetization    =     2.23 Bohr mag/cell

     iteration #  4     ecut=    60.00 Ry     beta= 0.70
     Davidson diagonalization with overlap

---- Real-time Memory Report at c_bands before calling an iterative solver
           882 MiB given to the printing process from OS
             0 MiB allocation reported by mallinfo(arena+hblkhd)
          1894 MiB available memory on the node where the printing process lives
------------------
     ethr =  8.00E-04,  avg # of iterations =  4.7

     total cpu time spent up to now is     5099.8 secs

     total energy              =   -2485.69880097 Ry
     estimated scf accuracy    <       0.19380315 Ry

     total magnetization       =     1.66 Bohr mag/cell
     absolute magnetization    =     1.76 Bohr mag/cell

     iteration #  5     ecut=    60.00 Ry     beta= 0.70
     Davidson diagonalization with overlap

---- Real-time Memory Report at c_bands before calling an iterative solver
           885 MiB given to the printing process from OS
             0 MiB allocation reported by mallinfo(arena+hblkhd)
          1863 MiB available memory on the node where the printing process lives
------------------
     c_bands:  1 eigenvalues not converged
     c_bands:  3 eigenvalues not converged
     c_bands:  1 eigenvalues not converged
     c_bands:  1 eigenvalues not converged
     c_bands:  2 eigenvalues not converged
     c_bands:  1 eigenvalues not converged
     c_bands:  1 eigenvalues not converged
     c_bands:  1 eigenvalues not converged
     c_bands:  1 eigenvalues not converged
     c_bands:  1 eigenvalues not converged
     c_bands:  2 eigenvalues not converged
     c_bands:  1 eigenvalues not converged
     c_bands:  2 eigenvalues not converged
     c_bands:  1 eigenvalues not converged
     ethr =  7.51E-05,  avg # of iterations = 16.6

     total cpu time spent up to now is     6898.8 secs

     total energy              =   -2485.79184014 Ry
     estimated scf accuracy    <       0.09303937 Ry

     total magnetization       =     2.00 Bohr mag/cell
     absolute magnetization    =     2.10 Bohr mag/cell

     iteration #  6     ecut=    60.00 Ry     beta= 0.70
     Davidson diagonalization with overlap

---- Real-time Memory Report at c_bands before calling an iterative solver
           886 MiB given to the printing process from OS
             0 MiB allocation reported by mallinfo(arena+hblkhd)
          2088 MiB available memory on the node where the printing process lives
------------------
     c_bands:  1 eigenvalues not converged
     c_bands:  4 eigenvalues not converged
     ethr =  3.61E-05,  avg # of iterations = 13.6

     total cpu time spent up to now is     8082.7 secs

     total energy              =   -2485.79876500 Ry
     estimated scf accuracy    <       0.11327265 Ry

     total magnetization       =     1.48 Bohr mag/cell
     absolute magnetization    =     1.57 Bohr mag/cell

     iteration #  7     ecut=    60.00 Ry     beta= 0.70
     Davidson diagonalization with overlap

---- Real-time Memory Report at c_bands before calling an iterative solver
           888 MiB given to the printing process from OS
             0 MiB allocation reported by mallinfo(arena+hblkhd)
          2055 MiB available memory on the node where the printing process lives
------------------
     ethr =  3.61E-05,  avg # of iterations =  2.1

     total cpu time spent up to now is     8930.9 secs

     total energy              =   -2485.81310511 Ry
     estimated scf accuracy    <       0.02538898 Ry

     total magnetization       =     1.96 Bohr mag/cell
     absolute magnetization    =     2.05 Bohr mag/cell

     iteration #  8     ecut=    60.00 Ry     beta= 0.70
     Davidson diagonalization with overlap

---- Real-time Memory Report at c_bands before calling an iterative solver
           891 MiB given to the printing process from OS
             0 MiB allocation reported by mallinfo(arena+hblkhd)
          2116 MiB available memory on the node where the printing process lives
------------------
     ethr =  9.84E-06,  avg # of iterations =  5.7

     total cpu time spent up to now is     9885.9 secs

     total energy              =   -2485.81745223 Ry
     estimated scf accuracy    <       0.00194238 Ry

     total magnetization       =     1.78 Bohr mag/cell
     absolute magnetization    =     1.87 Bohr mag/cell

     iteration #  9     ecut=    60.00 Ry     beta= 0.70
     Davidson diagonalization with overlap

---- Real-time Memory Report at c_bands before calling an iterative solver
           893 MiB given to the printing process from OS
             0 MiB allocation reported by mallinfo(arena+hblkhd)
          2085 MiB available memory on the node where the printing process lives
------------------
     c_bands:  1 eigenvalues not converged
     c_bands:  1 eigenvalues not converged
     c_bands:  1 eigenvalues not converged
     c_bands:  3 eigenvalues not converged
     c_bands:  2 eigenvalues not converged
     c_bands:  1 eigenvalues not converged
     c_bands:  1 eigenvalues not converged
     c_bands:  1 eigenvalues not converged
     c_bands:  3 eigenvalues not converged
     ethr =  7.53E-07,  avg # of iterations = 14.6

     total cpu time spent up to now is    11892.3 secs

     total energy              =   -2485.81857876 Ry
     estimated scf accuracy    <       0.00261369 Ry

     total magnetization       =     1.84 Bohr mag/cell
     absolute magnetization    =     1.92 Bohr mag/cell

     iteration # 10     ecut=    60.00 Ry     beta= 0.70
     Davidson diagonalization with overlap

---- Real-time Memory Report at c_bands before calling an iterative solver
           895 MiB given to the printing process from OS
             0 MiB allocation reported by mallinfo(arena+hblkhd)
          2049 MiB available memory on the node where the printing process lives
------------------
     c_bands:  1 eigenvalues not converged
     ethr =  7.53E-07,  avg # of iterations =  5.4

     total cpu time spent up to now is    12778.1 secs

     total energy              =   -2485.81863779 Ry
     estimated scf accuracy    <       0.00045081 Ry

     total magnetization       =     1.82 Bohr mag/cell
     absolute magnetization    =     1.90 Bohr mag/cell

     iteration # 11     ecut=    60.00 Ry     beta= 0.70
     Davidson diagonalization with overlap

---- Real-time Memory Report at c_bands before calling an iterative solver
           895 MiB given to the printing process from OS
             0 MiB allocation reported by mallinfo(arena+hblkhd)
          2049 MiB available memory on the node where the printing process lives
------------------
     ethr =  1.75E-07,  avg # of iterations =  5.5

     total cpu time spent up to now is    14238.4 secs

     total energy              =   -2485.81891129 Ry
     estimated scf accuracy    <       0.00039196 Ry

     total magnetization       =     1.81 Bohr mag/cell
     absolute magnetization    =     1.90 Bohr mag/cell

     iteration # 12     ecut=    60.00 Ry     beta= 0.70
     Davidson diagonalization with overlap

---- Real-time Memory Report at c_bands before calling an iterative solver
           895 MiB given to the printing process from OS
             0 MiB allocation reported by mallinfo(arena+hblkhd)
          2023 MiB available memory on the node where the printing process lives
------------------
     ethr =  1.52E-07,  avg # of iterations =  2.0

     total cpu time spent up to now is    15070.1 secs

     total energy              =   -2485.81886051 Ry
     estimated scf accuracy    <       0.00015863 Ry

     total magnetization       =     1.81 Bohr mag/cell
     absolute magnetization    =     1.90 Bohr mag/cell

     iteration # 13     ecut=    60.00 Ry     beta= 0.70
     Davidson diagonalization with overlap

---- Real-time Memory Report at c_bands before calling an iterative solver
           895 MiB given to the printing process from OS
             0 MiB allocation reported by mallinfo(arena+hblkhd)
          2023 MiB available memory on the node where the printing process lives
------------------
     ethr =  6.15E-08,  avg # of iterations =  5.2

     total cpu time spent up to now is    16127.2 secs

     total energy              =   -2485.81891481 Ry
     estimated scf accuracy    <       0.00000512 Ry

     total magnetization       =     1.81 Bohr mag/cell
     absolute magnetization    =     1.90 Bohr mag/cell

     iteration # 14     ecut=    60.00 Ry     beta= 0.70
     Davidson diagonalization with overlap

---- Real-time Memory Report at c_bands before calling an iterative solver
           895 MiB given to the printing process from OS
             0 MiB allocation reported by mallinfo(arena+hblkhd)
          2029 MiB available memory on the node where the printing process lives
------------------
     ethr =  1.99E-09,  avg # of iterations =  9.8

     total cpu time spent up to now is    18517.0 secs

     total energy              =   -2485.81892465 Ry
     estimated scf accuracy    <       0.00001159 Ry

     total magnetization       =     1.81 Bohr mag/cell
     absolute magnetization    =     1.90 Bohr mag/cell

     iteration # 15     ecut=    60.00 Ry     beta= 0.70
     Davidson diagonalization with overlap

---- Real-time Memory Report at c_bands before calling an iterative solver
           895 MiB given to the printing process from OS
             0 MiB allocation reported by mallinfo(arena+hblkhd)
          2027 MiB available memory on the node where the printing process lives
------------------
     ethr =  1.99E-09,  avg # of iterations =  1.8

     total cpu time spent up to now is    19327.2 secs

     total energy              =   -2485.81892300 Ry
     estimated scf accuracy    <       0.00000524 Ry

     total magnetization       =     1.81 Bohr mag/cell
     absolute magnetization    =     1.90 Bohr mag/cell

     iteration # 16     ecut=    60.00 Ry     beta= 0.70
     Davidson diagonalization with overlap

---- Real-time Memory Report at c_bands before calling an iterative solver
           895 MiB given to the printing process from OS
             0 MiB allocation reported by mallinfo(arena+hblkhd)
          2019 MiB available memory on the node where the printing process lives
------------------
     ethr =  1.99E-09,  avg # of iterations =  4.9

     Magnetic moment per site  (integrated on atomic sphere of radius R)
     atom   1 (R=0.212)  charge=  7.4983  magn=  0.0003
     atom   2 (R=0.212)  charge=  7.5023  magn=  0.0011
     atom   3 (R=0.157)  charge=  8.1064  magn=  0.0005
     atom   4 (R=0.157)  charge=  8.1036  magn=  0.0005
     atom   5 (R=0.157)  charge=  8.1051  magn=  0.0000
     atom   6 (R=0.157)  charge=  8.1034  magn=  0.0004
     atom   7 (R=0.157)  charge=  8.1069  magn=  0.0003
     atom   8 (R=0.125)  charge=  0.5447  magn=  0.0014
     atom   9 (R=0.125)  charge=  0.5447  magn=  0.0014
     atom  10 (R=0.125)  charge=  0.5377  magn=  0.0013
     atom  11 (R=0.125)  charge=  0.5377  magn=  0.0013
     atom  12 (R=0.125)  charge=  0.5365  magn=  0.0001
     atom  13 (R=0.125)  charge=  0.5365  magn=  0.0001
     atom  14 (R=0.134)  charge=  0.3371  magn=  0.0001
     atom  15 (R=0.134)  charge=  0.3371  magn=  0.0001
     atom  16 (R=0.074)  charge=  1.8959  magn=  0.0029
     atom  17 (R=0.074)  charge=  1.8959  magn=  0.0029
     atom  18 (R=0.074)  charge=  1.8970  magn=  0.0016
     atom  19 (R=0.074)  charge=  1.8970  magn=  0.0016
     atom  20 (R=0.074)  charge=  1.8922  magn=  0.0001
     atom  21 (R=0.074)  charge=  1.8922  magn=  0.0001
     atom  22 (R=0.074)  charge=  1.8900  magn=  0.0002
     atom  23 (R=0.074)  charge=  1.8900  magn=  0.0002
     atom  24 (R=0.074)  charge=  1.8950  magn=  0.0006
     atom  25 (R=0.074)  charge=  1.8950  magn=  0.0006
     atom  26 (R=0.074)  charge=  1.9012  magn=  0.0011
     atom  27 (R=0.074)  charge=  1.9012  magn=  0.0011
     atom  28 (R=0.074)  charge=  1.8991  magn=  0.0006
     atom  29 (R=0.074)  charge=  1.8991  magn=  0.0006
     atom  30 (R=0.074)  charge=  1.8984  magn=  0.0003
     atom  31 (R=0.074)  charge=  1.8984  magn=  0.0003
     atom  32 (R=0.074)  charge=  1.8962  magn=  0.0001
     atom  33 (R=0.074)  charge=  1.8962  magn=  0.0001
     atom  34 (R=0.074)  charge=  1.8942  magn=  0.0003
     atom  35 (R=0.074)  charge=  1.8942  magn=  0.0003
     atom  36 (R=0.074)  charge=  1.8955  magn=  0.0003
     atom  37 (R=0.074)  charge=  1.8955  magn=  0.0003
     atom  38 (R=0.074)  charge=  1.8977  magn= -0.0029
     atom  39 (R=0.074)  charge=  1.8977  magn= -0.0029
     atom  40 (R=0.074)  charge=  0.3996  magn=  0.0000
     atom  41 (R=0.074)  charge=  0.3996  magn=  0.0000
     atom  42 (R=0.074)  charge=  0.3978  magn=  0.0045
     atom  43 (R=0.074)  charge=  0.3978  magn=  0.0045
     atom  44 (R=0.159)  charge=  9.0088  magn=  1.1310

     total cpu time spent up to now is    20325.5 secs

     End of self-consistent calculation

 ------ SPIN UP ------------


          k = 0.0000 0.0000 0.0000 ( 25927 PWs)   bands (ev):

   -67.6733 -67.5001 -67.1212 -66.9798 -66.9585 -48.3486 -34.4443 -34.4199
   -34.4148 -34.2614 -34.2565 -34.2390 -33.8959 -33.8667 -33.8613 -33.7407
   -33.7358 -33.7303 -33.7282 -33.7179 -33.6733 -24.9051 -24.9037 -24.5794
   -22.8660 -22.8302 -14.9844 -14.9237 -14.0694 -14.0121 -13.5329 -13.4998
   -13.4713 -13.2768 -13.2289 -13.0923 -13.0689 -12.8215 -12.7990 -12.7173
   -12.7153 -12.6362 -12.3850 -12.3196 -12.3029 -12.1976 -12.1721 -12.1564
   -11.0146 -10.7669  -6.4365  -6.3967  -6.3626  -6.3539  -6.3129  -6.3056
    -4.1690  -4.1210  -2.3342  -2.2373  -1.9405  -1.4280  -1.0573  -1.0411
    -0.9781  -0.9019  -0.6337  -0.5964  -0.4081  -0.3817  -0.2604  -0.2341
     0.0768   0.1806   0.2904   0.3484   0.6259   0.6481   0.7496   0.9031
     0.9083   1.1919   1.3732   1.3776   1.4881   1.5763   1.6517   1.7708
     1.7724   1.9063   1.9736   2.1418   2.1868   2.2297   2.2299   2.3990
     2.4938   2.4973   2.5537   2.6514   2.7430   2.7506   2.8074   2.8805
     2.9205   2.9752   3.0167   3.1016   3.2016   3.2838   3.4022   3.4291
     3.4900   3.5705   3.5998   3.6179   3.6785   3.7817   3.8603   3.8955
     3.9301   4.0088   4.0163   4.0808   4.2058   4.3120   4.4771   4.6628
     9.2231   9.4449   9.6330  10.1104  10.7177  11.1997  11.7063  11.8312
    11.9910  12.1710  12.4813  12.7697  12.8140  12.8239  13.1552  13.1904
    13.3485  13.4029  13.4513  13.6639  13.6785  13.7638  13.8756  13.9018
    13.9315  14.2141  14.3542

     occupation numbers 
     1.0000   1.0000   1.0000   1.0000   1.0000   1.0000   1.0000   1.0000
     1.0000   1.0000   1.0000   1.0000   1.0000   1.0000   1.0000   1.0000
     1.0000   1.0000   1.0000   1.0000   1.0000   1.0000   1.0000   1.0000
     1.0000   1.0000   1.0000   1.0000   1.0000   1.0000   1.0000   1.0000
     1.0000   1.0000   1.0000   1.0000   1.0000   1.0000   1.0000   1.0000
     1.0000   1.0000   1.0000   1.0000   1.0000   1.0000   1.0000   1.0000
     1.0000   1.0000   1.0000   1.0000   1.0000   1.0000   1.0000   1.0000
     1.0000   1.0000   1.0000   1.0000   1.0000   1.0000   1.0000   1.0000
     1.0000   1.0000   1.0000   1.0000   1.0000   1.0000   1.0000   1.0000
     1.0000   1.0000   1.0000   1.0000   1.0000   1.0000   1.0000   1.0000
     1.0000   1.0000   1.0000   1.0000   1.0000   1.0000   1.0000   1.0000
     1.0000   1.0000   1.0000   1.0000   1.0000   1.0000   1.0000   1.0000
     1.0000   1.0000   1.0000   1.0000   1.0000   1.0000   1.0000   1.0000
     1.0000   1.0000   1.0000   1.0000   1.0000   1.0000   1.0000   1.0000
     1.0000   1.0000   1.0000   1.0000   1.0000   1.0000   1.0000   1.0000
     1.0000   1.0000   1.0000   1.0000   1.0000   1.0000   1.0000   1.0000
     1.0000   1.0000   0.0876   0.0000   0.0000   0.0000   0.0000   0.0000
     0.0000   0.0000   0.0000   0.0000   0.0000   0.0000   0.0000   0.0000
     0.0000   0.0000   0.0000   0.0000   0.0000   0.0000   0.0000   0.0000
     0.0000   0.0000   0.0000

          k = 0.0000 0.0000 0.1758 ( 25971 PWs)   bands (ev):

   -67.6733 -67.5001 -67.1212 -66.9798 -66.9585 -48.3486 -34.4443 -34.4200
   -34.4148 -34.2614 -34.2565 -34.2391 -33.8959 -33.8668 -33.8613 -33.7407
   -33.7358 -33.7304 -33.7282 -33.7179 -33.6734 -24.9051 -24.9037 -24.5794
   -22.8660 -22.8302 -14.9708 -14.9385 -14.0559 -14.0267 -13.5332 -13.4938
   -13.4743 -13.2661 -13.2416 -13.0935 -13.0652 -12.8147 -12.8024 -12.7306
   -12.7042 -12.6414 -12.3768 -12.3262 -12.2930 -12.1972 -12.1827 -12.1547
   -11.0142 -10.7677  -6.4367  -6.3968  -6.3626  -6.3539  -6.3128  -6.3056
    -4.1720  -4.1182  -2.3117  -2.2634  -1.9211  -1.4004  -1.0697  -1.0308
    -0.9759  -0.9210  -0.6479  -0.5569  -0.4193  -0.3817  -0.3128  -0.2692
     0.1038   0.1886   0.2385   0.2919   0.6187   0.6400   0.7582   0.9320
     0.9592   1.2628   1.3094   1.3799   1.5061   1.5843   1.6987   1.7665
     1.8417   1.8962   2.0635   2.1576   2.1813   2.2302   2.2772   2.3567
     2.4345   2.5126   2.5413   2.5643   2.6598   2.7331   2.8378   2.8556
     2.8954   2.9654   3.0841   3.1274   3.1876   3.2499   3.3565   3.4617
     3.4865   3.5571   3.6358   3.6664   3.7343   3.7596   3.7983   3.8606
     3.9275   3.9954   4.0446   4.1041   4.2081   4.2898   4.4772   4.6719
     9.4487   9.5243   9.6419  10.1040  10.2563  11.3354  11.5417  11.7061
    12.0807  12.2416  12.5439  12.6954  12.8592  13.0061  13.1265  13.2571
    13.3390  13.4445  13.4608  13.5786  13.6083  13.7704  13.9007  13.9912
    14.0331  14.1328  14.2998

     occupation numbers 
     1.0000   1.0000   1.0000   1.0000   1.0000   1.0000   1.0000   1.0000
     1.0000   1.0000   1.0000   1.0000   1.0000   1.0000   1.0000   1.0000
     1.0000   1.0000   1.0000   1.0000   1.0000   1.0000   1.0000   1.0000
     1.0000   1.0000   1.0000   1.0000   1.0000   1.0000   1.0000   1.0000
     1.0000   1.0000   1.0000   1.0000   1.0000   1.0000   1.0000   1.0000
     1.0000   1.0000   1.0000   1.0000   1.0000   1.0000   1.0000   1.0000
     1.0000   1.0000   1.0000   1.0000   1.0000   1.0000   1.0000   1.0000
     1.0000   1.0000   1.0000   1.0000   1.0000   1.0000   1.0000   1.0000
     1.0000   1.0000   1.0000   1.0000   1.0000   1.0000   1.0000   1.0000
     1.0000   1.0000   1.0000   1.0000   1.0000   1.0000   1.0000   1.0000
     1.0000   1.0000   1.0000   1.0000   1.0000   1.0000   1.0000   1.0000
     1.0000   1.0000   1.0000   1.0000   1.0000   1.0000   1.0000   1.0000
     1.0000   1.0000   1.0000   1.0000   1.0000   1.0000   1.0000   1.0000
     1.0000   1.0000   1.0000   1.0000   1.0000   1.0000   1.0000   1.0000
     1.0000   1.0000   1.0000   1.0000   1.0000   1.0000   1.0000   1.0000
     1.0000   1.0000   1.0000   1.0000   1.0000   1.0000   1.0000   1.0000
     1.0000   1.0000   0.0112   0.0000   0.0000   0.0000   0.0000   0.0000
     0.0000   0.0000   0.0000   0.0000   0.0000   0.0000   0.0000   0.0000
     0.0000   0.0000   0.0000   0.0000   0.0000   0.0000   0.0000   0.0000
     0.0000   0.0000   0.0000

          k = 0.0000 0.1921 0.0000 ( 25933 PWs)   bands (ev):

   -67.6733 -67.5001 -67.1212 -66.9798 -66.9585 -48.3486 -34.4443 -34.4199
   -34.4148 -34.2614 -34.2565 -34.2391 -33.8959 -33.8667 -33.8613 -33.7407
   -33.7358 -33.7303 -33.7283 -33.7179 -33.6734 -24.9051 -24.9037 -24.5794
   -22.8660 -22.8302 -14.9791 -14.9187 -14.1027 -14.0419 -13.5299 -13.4998
   -13.4705 -13.1873 -13.1498 -13.0795 -13.0534 -12.8941 -12.8622 -12.7348
   -12.7338 -12.6300 -12.4055 -12.3127 -12.2740 -12.1993 -12.1723 -12.1558
   -11.0133 -10.7663  -6.4343  -6.3993  -6.3623  -6.3526  -6.3138  -6.3063
    -4.1290  -4.0793  -2.4773  -2.3772  -1.9204  -1.4015  -1.0062  -0.9646
    -0.9183  -0.8458  -0.7091  -0.6650  -0.3823  -0.2805  -0.2700  -0.1506
    -0.0273   0.1943   0.2298   0.4269   0.5723   0.5797   0.7581   0.8792
     0.9483   1.1820   1.3010   1.3317   1.4943   1.6037   1.6939   1.7555
     1.8346   1.9985   2.0111   2.1437   2.1951   2.2466   2.3189   2.4406
     2.4649   2.5209   2.5722   2.5915   2.6618   2.7612   2.8273   2.9039
     2.9082   3.0224   3.0878   3.1069   3.1707   3.2664   3.3750   3.4783
     3.4973   3.5018   3.5632   3.6221   3.6733   3.6927   3.8422   3.9284
     3.9563   3.9956   4.0092   4.0550   4.2061   4.2868   4.3227   4.6597
     9.4503   9.5938   9.6685  10.1109  10.5377  10.8974  11.4081  11.8049
    12.2252  12.3132  12.5990  12.7754  12.8564  12.9592  13.0894  13.2273
    13.3445  13.3848  13.4413  13.5871  13.6054  13.7857  13.7969  13.8906
    13.9142  13.9810  14.4395

     occupation numbers 
     1.0000   1.0000   1.0000   1.0000   1.0000   1.0000   1.0000   1.0000
     1.0000   1.0000   1.0000   1.0000   1.0000   1.0000   1.0000   1.0000
     1.0000   1.0000   1.0000   1.0000   1.0000   1.0000   1.0000   1.0000
     1.0000   1.0000   1.0000   1.0000   1.0000   1.0000   1.0000   1.0000
     1.0000   1.0000   1.0000   1.0000   1.0000   1.0000   1.0000   1.0000
     1.0000   1.0000   1.0000   1.0000   1.0000   1.0000   1.0000   1.0000
     1.0000   1.0000   1.0000   1.0000   1.0000   1.0000   1.0000   1.0000
     1.0000   1.0000   1.0000   1.0000   1.0000   1.0000   1.0000   1.0000
     1.0000   1.0000   1.0000   1.0000   1.0000   1.0000   1.0000   1.0000
     1.0000   1.0000   1.0000   1.0000   1.0000   1.0000   1.0000   1.0000
     1.0000   1.0000   1.0000   1.0000   1.0000   1.0000   1.0000   1.0000
     1.0000   1.0000   1.0000   1.0000   1.0000   1.0000   1.0000   1.0000
     1.0000   1.0000   1.0000   1.0000   1.0000   1.0000   1.0000   1.0000
     1.0000   1.0000   1.0000   1.0000   1.0000   1.0000   1.0000   1.0000
     1.0000   1.0000   1.0000   1.0000   1.0000   1.0000   1.0000   1.0000
     1.0000   1.0000   1.0000   1.0000   1.0000   1.0000   1.0000   1.0000
     1.0000   0.9966   0.0000   0.0000   0.0000   0.0000   0.0000   0.0000
     0.0000   0.0000   0.0000   0.0000   0.0000   0.0000   0.0000   0.0000
     0.0000   0.0000   0.0000   0.0000   0.0000   0.0000   0.0000   0.0000
     0.0000   0.0000   0.0000

          k = 0.0000 0.1921 0.1758 ( 25924 PWs)   bands (ev):

   -67.6733 -67.5001 -67.1212 -66.9798 -66.9585 -48.3486 -34.4443 -34.4199
   -34.4148 -34.2614 -34.2565 -34.2391 -33.8960 -33.8667 -33.8613 -33.7407
   -33.7358 -33.7303 -33.7282 -33.7179 -33.6734 -24.9052 -24.9037 -24.5794
   -22.8660 -22.8302 -14.9652 -14.9336 -14.0894 -14.0565 -13.5308 -13.4931
   -13.4740 -13.1782 -13.1593 -13.0841 -13.0460 -12.8870 -12.8719 -12.7408
   -12.7240 -12.6354 -12.3991 -12.3197 -12.2639 -12.1992 -12.1819 -12.1542
   -11.0129 -10.7670  -6.4344  -6.3993  -6.3623  -6.3525  -6.3137  -6.3063
    -4.1285  -4.0801  -2.4549  -2.4018  -1.9045  -1.3784  -0.9911  -0.9651
    -0.9117  -0.8717  -0.6935  -0.6674  -0.4298  -0.3338  -0.2364  -0.1791
     0.0104   0.1225   0.2371   0.3822   0.5710   0.5789   0.7838   0.8957
     0.9942   1.2017   1.2199   1.3785   1.5566   1.6195   1.7223   1.8343
     1.8981   1.9481   2.0449   2.1152   2.1812   2.2866   2.3116   2.3855
     2.4638   2.5106   2.5547   2.5866   2.6210   2.7392   2.7977   2.8605
     2.9213   2.9918   3.0936   3.1592   3.1827   3.2232   3.3880   3.4205
     3.5023   3.5540   3.5743   3.6315   3.6743   3.7301   3.7933   3.9109
     3.9474   3.9780   4.0211   4.0783   4.2169   4.2683   4.3401   4.6693
     9.4585   9.6358   9.8793  10.1072  10.5143  10.7049  11.1646  11.8697
    12.1509  12.2767  12.5060  12.8230  12.9105  13.0299  13.2119  13.2690
    13.3837  13.4715  13.5135  13.5947  13.6593  13.6998  13.8079  13.9110
    13.9563  14.0918  14.3269

     occupation numbers 
     1.0000   1.0000   1.0000   1.0000   1.0000   1.0000   1.0000   1.0000
     1.0000   1.0000   1.0000   1.0000   1.0000   1.0000   1.0000   1.0000
     1.0000   1.0000   1.0000   1.0000   1.0000   1.0000   1.0000   1.0000
     1.0000   1.0000   1.0000   1.0000   1.0000   1.0000   1.0000   1.0000
     1.0000   1.0000   1.0000   1.0000   1.0000   1.0000   1.0000   1.0000
     1.0000   1.0000   1.0000   1.0000   1.0000   1.0000   1.0000   1.0000
     1.0000   1.0000   1.0000   1.0000   1.0000   1.0000   1.0000   1.0000
     1.0000   1.0000   1.0000   1.0000   1.0000   1.0000   1.0000   1.0000
     1.0000   1.0000   1.0000   1.0000   1.0000   1.0000   1.0000   1.0000
     1.0000   1.0000   1.0000   1.0000   1.0000   1.0000   1.0000   1.0000
     1.0000   1.0000   1.0000   1.0000   1.0000   1.0000   1.0000   1.0000
     1.0000   1.0000   1.0000   1.0000   1.0000   1.0000   1.0000   1.0000
     1.0000   1.0000   1.0000   1.0000   1.0000   1.0000   1.0000   1.0000
     1.0000   1.0000   1.0000   1.0000   1.0000   1.0000   1.0000   1.0000
     1.0000   1.0000   1.0000   1.0000   1.0000   1.0000   1.0000   1.0000
     1.0000   1.0000   1.0000   1.0000   1.0000   1.0000   1.0000   1.0000
     1.0000   0.0489   0.0000   0.0000   0.0000   0.0000   0.0000   0.0000
     0.0000   0.0000   0.0000   0.0000   0.0000   0.0000   0.0000   0.0000
     0.0000   0.0000   0.0000   0.0000   0.0000   0.0000   0.0000   0.0000
     0.0000   0.0000   0.0000

          k = 0.1667 0.0000 0.0301 ( 25941 PWs)   bands (ev):

   -67.6733 -67.5001 -67.1212 -66.9798 -66.9585 -48.3486 -34.4442 -34.4200
   -34.4147 -34.2615 -34.2565 -34.2391 -33.8959 -33.8667 -33.8615 -33.7418
   -33.7345 -33.7306 -33.7272 -33.7184 -33.6738 -24.9056 -24.9036 -24.5794
   -22.8658 -22.8301 -14.9268 -14.8674 -14.0791 -14.0275 -13.6345 -13.6013
   -13.4904 -13.2037 -13.1453 -13.1065 -13.0428 -12.8276 -12.7918 -12.7249
   -12.7035 -12.6492 -12.4073 -12.3438 -12.3089 -12.2191 -12.2051 -12.1461
   -11.0107 -10.7717  -6.4367  -6.4006  -6.3614  -6.3524  -6.3128  -6.3023
    -4.0135  -3.9615  -2.2980  -2.2027  -1.9003  -1.4761  -1.3236  -1.2121
    -0.8260  -0.7195  -0.7015  -0.6001  -0.4104  -0.3582  -0.2446  -0.2264
     0.0934   0.1985   0.2854   0.3307   0.5550   0.6721   0.7053   0.8075
     1.1067   1.2154   1.3134   1.3927   1.4319   1.5416   1.5774   1.7222
     1.7640   1.9652   2.0053   2.0454   2.1528   2.3049   2.3689   2.3849
     2.4404   2.5360   2.5442   2.6113   2.7302   2.7713   2.7989   2.8611
     2.9582   3.0084   3.0112   3.1324   3.2131   3.3088   3.3465   3.4268
     3.4464   3.4874   3.6024   3.6260   3.6606   3.7766   3.7891   3.8906
     3.9176   3.9406   3.9837   4.0423   4.1584   4.3297   4.4721   4.5814
     9.4477   9.5291   9.6253  10.0751  10.8636  11.3023  11.8272  11.9135
    11.9817  12.2114  12.4738  12.7094  12.8895  12.9128  13.0908  13.1715
    13.2728  13.4361  13.4781  13.6292  13.7014  13.7592  13.8212  13.9270
    13.9619  14.2693  14.2915

     occupation numbers 
     1.0000   1.0000   1.0000   1.0000   1.0000   1.0000   1.0000   1.0000
     1.0000   1.0000   1.0000   1.0000   1.0000   1.0000   1.0000   1.0000
     1.0000   1.0000   1.0000   1.0000   1.0000   1.0000   1.0000   1.0000
     1.0000   1.0000   1.0000   1.0000   1.0000   1.0000   1.0000   1.0000
     1.0000   1.0000   1.0000   1.0000   1.0000   1.0000   1.0000   1.0000
     1.0000   1.0000   1.0000   1.0000   1.0000   1.0000   1.0000   1.0000
     1.0000   1.0000   1.0000   1.0000   1.0000   1.0000   1.0000   1.0000
     1.0000   1.0000   1.0000   1.0000   1.0000   1.0000   1.0000   1.0000
     1.0000   1.0000   1.0000   1.0000   1.0000   1.0000   1.0000   1.0000
     1.0000   1.0000   1.0000   1.0000   1.0000   1.0000   1.0000   1.0000
     1.0000   1.0000   1.0000   1.0000   1.0000   1.0000   1.0000   1.0000
     1.0000   1.0000   1.0000   1.0000   1.0000   1.0000   1.0000   1.0000
     1.0000   1.0000   1.0000   1.0000   1.0000   1.0000   1.0000   1.0000
     1.0000   1.0000   1.0000   1.0000   1.0000   1.0000   1.0000   1.0000
     1.0000   1.0000   1.0000   1.0000   1.0000   1.0000   1.0000   1.0000
     1.0000   1.0000   1.0000   1.0000   1.0000   1.0000   1.0000   1.0000
     1.0000   1.0000   0.2888   0.0000   0.0000   0.0000   0.0000   0.0000
     0.0000   0.0000   0.0000   0.0000   0.0000   0.0000   0.0000   0.0000
     0.0000   0.0000   0.0000   0.0000   0.0000   0.0000   0.0000   0.0000
     0.0000   0.0000   0.0000

          k = 0.1667 0.0000 0.2059 ( 25961 PWs)   bands (ev):

   -67.6733 -67.5001 -67.1212 -66.9798 -66.9585 -48.3486 -34.4442 -34.4201
   -34.4147 -34.2615 -34.2565 -34.2391 -33.8959 -33.8667 -33.8615 -33.7419
   -33.7346 -33.7306 -33.7272 -33.7184 -33.6738 -24.9056 -24.9036 -24.5794
   -22.8658 -22.8301 -14.9099 -14.8856 -14.0656 -14.0419 -13.6302 -13.6069
   -13.4865 -13.1950 -13.1534 -13.1118 -13.0375 -12.8273 -12.7893 -12.7207
   -12.7127 -12.6508 -12.4003 -12.3508 -12.2982 -12.2288 -12.1911 -12.1584
   -11.0102 -10.7725  -6.4368  -6.4006  -6.3613  -6.3524  -6.3128  -6.3023
    -4.0212  -3.9538  -2.2785  -2.2263  -1.8790  -1.4432  -1.3618  -1.1910
    -0.8244  -0.7247  -0.7097  -0.5683  -0.4087  -0.3736  -0.2962  -0.2608
     0.1334   0.1832   0.2586   0.2755   0.5337   0.6705   0.6904   0.8680
     1.1480   1.2555   1.2752   1.3907   1.4387   1.5705   1.6367   1.7240
     1.8297   1.9517   1.9986   2.0781   2.2074   2.2936   2.3510   2.4023
     2.4454   2.4862   2.5151   2.5902   2.6357   2.7532   2.8072   2.8443
     2.9552   2.9831   3.0571   3.1892   3.2107   3.2298   3.3389   3.3949
     3.4667   3.4880   3.6035   3.6424   3.6777   3.7403   3.8125   3.8877
     3.9254   3.9566   3.9849   4.0594   4.1612   4.2924   4.4770   4.6048
     9.4535   9.5993   9.9001  10.0710  10.3662  11.4548  11.6415  11.6969
    12.1433  12.3411  12.4715  12.6589  12.7259  12.9905  13.1838  13.3486
    13.3629  13.4539  13.5316  13.5815  13.6665  13.8065  13.8844  13.9112
    13.9850  14.1050  14.2030

     occupation numbers 
     1.0000   1.0000   1.0000   1.0000   1.0000   1.0000   1.0000   1.0000
     1.0000   1.0000   1.0000   1.0000   1.0000   1.0000   1.0000   1.0000
     1.0000   1.0000   1.0000   1.0000   1.0000   1.0000   1.0000   1.0000
     1.0000   1.0000   1.0000   1.0000   1.0000   1.0000   1.0000   1.0000
     1.0000   1.0000   1.0000   1.0000   1.0000   1.0000   1.0000   1.0000
     1.0000   1.0000   1.0000   1.0000   1.0000   1.0000   1.0000   1.0000
     1.0000   1.0000   1.0000   1.0000   1.0000   1.0000   1.0000   1.0000
     1.0000   1.0000   1.0000   1.0000   1.0000   1.0000   1.0000   1.0000
     1.0000   1.0000   1.0000   1.0000   1.0000   1.0000   1.0000   1.0000
     1.0000   1.0000   1.0000   1.0000   1.0000   1.0000   1.0000   1.0000
     1.0000   1.0000   1.0000   1.0000   1.0000   1.0000   1.0000   1.0000
     1.0000   1.0000   1.0000   1.0000   1.0000   1.0000   1.0000   1.0000
     1.0000   1.0000   1.0000   1.0000   1.0000   1.0000   1.0000   1.0000
     1.0000   1.0000   1.0000   1.0000   1.0000   1.0000   1.0000   1.0000
     1.0000   1.0000   1.0000   1.0000   1.0000   1.0000   1.0000   1.0000
     1.0000   1.0000   1.0000   1.0000   1.0000   1.0000   1.0000   1.0000
     1.0000   0.9838   0.0000   0.0000   0.0000   0.0000   0.0000   0.0000
     0.0000   0.0000   0.0000   0.0000   0.0000   0.0000   0.0000   0.0000
     0.0000   0.0000   0.0000   0.0000   0.0000   0.0000   0.0000   0.0000
     0.0000   0.0000   0.0000

          k = 0.1667 0.0000-0.1457 ( 25956 PWs)   bands (ev):

   -67.6733 -67.5001 -67.1212 -66.9798 -66.9585 -48.3486 -34.4442 -34.4200
   -34.4147 -34.2615 -34.2565 -34.2391 -33.8959 -33.8667 -33.8615 -33.7419
   -33.7346 -33.7306 -33.7272 -33.7184 -33.6738 -24.9056 -24.9036 -24.5795
   -22.8658 -22.8301 -14.9166 -14.8784 -14.0678 -14.0397 -13.6268 -13.6107
   -13.4871 -13.1913 -13.1598 -13.1087 -13.0380 -12.8212 -12.7935 -12.7320
   -12.7001 -12.6551 -12.3958 -12.3536 -12.2957 -12.2363 -12.1869 -12.1579
   -11.0100 -10.7725  -6.4369  -6.4007  -6.3613  -6.3524  -6.3127  -6.3023
    -4.0050  -3.9704  -2.2750  -2.2281  -1.8874  -1.4581  -1.3484  -1.1935
    -0.8152  -0.7266  -0.7194  -0.5527  -0.3976  -0.3800  -0.3023  -0.2532
     0.0994   0.2201   0.2346   0.2900   0.5761   0.6721   0.7211   0.8441
     1.1052   1.2491   1.2720   1.3758   1.4354   1.5913   1.6438   1.6993
     1.8200   1.9460   1.9797   2.1134   2.1496   2.3162   2.3342   2.3949
     2.4326   2.5100   2.5640   2.5995   2.6372   2.7357   2.7875   2.8309
     2.9667   3.0038   3.0628   3.1986   3.2172   3.2654   3.3408   3.4090
     3.4885   3.5195   3.6114   3.6248   3.6776   3.7383   3.7603   3.8580
     3.9069   3.9394   3.9859   4.0578   4.1770   4.3038   4.4791   4.5984
     9.4519   9.5645   9.7711  10.0773  10.5791  11.3913  11.6832  11.8353
    12.1310  12.3161  12.5152  12.6650  12.7371  13.0568  13.0835  13.2069
    13.3110  13.4065  13.4839  13.5696  13.6421  13.7359  13.8378  13.9925
    14.0543  14.1827  14.3346

     occupation numbers 
     1.0000   1.0000   1.0000   1.0000   1.0000   1.0000   1.0000   1.0000
     1.0000   1.0000   1.0000   1.0000   1.0000   1.0000   1.0000   1.0000
     1.0000   1.0000   1.0000   1.0000   1.0000   1.0000   1.0000   1.0000
     1.0000   1.0000   1.0000   1.0000   1.0000   1.0000   1.0000   1.0000
     1.0000   1.0000   1.0000   1.0000   1.0000   1.0000   1.0000   1.0000
     1.0000   1.0000   1.0000   1.0000   1.0000   1.0000   1.0000   1.0000
     1.0000   1.0000   1.0000   1.0000   1.0000   1.0000   1.0000   1.0000
     1.0000   1.0000   1.0000   1.0000   1.0000   1.0000   1.0000   1.0000
     1.0000   1.0000   1.0000   1.0000   1.0000   1.0000   1.0000   1.0000
     1.0000   1.0000   1.0000   1.0000   1.0000   1.0000   1.0000   1.0000
     1.0000   1.0000   1.0000   1.0000   1.0000   1.0000   1.0000   1.0000
     1.0000   1.0000   1.0000   1.0000   1.0000   1.0000   1.0000   1.0000
     1.0000   1.0000   1.0000   1.0000   1.0000   1.0000   1.0000   1.0000
     1.0000   1.0000   1.0000   1.0000   1.0000   1.0000   1.0000   1.0000
     1.0000   1.0000   1.0000   1.0000   1.0000   1.0000   1.0000   1.0000
     1.0000   1.0000   1.0000   1.0000   1.0000   1.0000   1.0000   1.0000
     1.0000   1.0000   0.0000   0.0000   0.0000   0.0000   0.0000   0.0000
     0.0000   0.0000   0.0000   0.0000   0.0000   0.0000   0.0000   0.0000
     0.0000   0.0000   0.0000   0.0000   0.0000   0.0000   0.0000   0.0000
     0.0000   0.0000   0.0000

          k = 0.1667 0.1921 0.0301 ( 25937 PWs)   bands (ev):

   -67.6733 -67.5001 -67.1212 -66.9798 -66.9585 -48.3486 -34.4442 -34.4200
   -34.4147 -34.2615 -34.2565 -34.2391 -33.8959 -33.8667 -33.8614 -33.7418
   -33.7345 -33.7306 -33.7272 -33.7184 -33.6738 -24.9056 -24.9036 -24.5794
   -22.8658 -22.8301 -14.9217 -14.8626 -14.1089 -14.0537 -13.6208 -13.5903
   -13.4885 -13.1555 -13.1239 -13.0580 -13.0136 -12.8848 -12.8398 -12.7557
   -12.7203 -12.6432 -12.4225 -12.3309 -12.2847 -12.2257 -12.2045 -12.1458
   -11.0097 -10.7713  -6.4351  -6.4027  -6.3613  -6.3513  -6.3133  -6.3028
    -3.9765  -3.9234  -2.4538  -2.3556  -1.8703  -1.4023  -1.1914  -1.1654
    -0.8397  -0.7181  -0.7123  -0.6658  -0.4003  -0.2929  -0.2275  -0.1173
     0.0405   0.1756   0.2201   0.3946   0.5084   0.6429   0.6960   0.7802
     1.0984   1.1796   1.3149   1.3716   1.4261   1.5298   1.6398   1.6965
     1.8072   1.9784   2.0028   2.0959   2.1817   2.2875   2.3585   2.4406
     2.4684   2.5518   2.5857   2.6262   2.6850   2.7729   2.7975   2.8683
     2.9564   3.0473   3.0814   3.1492   3.1704   3.2886   3.3303   3.4157
     3.4691   3.5129   3.5452   3.5851   3.6755   3.6986   3.8099   3.8399
     3.8876   3.9455   3.9814   4.0560   4.1554   4.3077   4.3682   4.6045
     9.4529   9.6123   9.8952  10.0799  10.7253  11.0295  11.4722  11.8882
    12.2188  12.3331  12.5450  12.7667  12.8591  12.9774  13.1302  13.1823
    13.3444  13.4094  13.4538  13.5605  13.6076  13.7640  13.8211  13.8894
    14.0411  14.1160  14.3672

     occupation numbers 
     1.0000   1.0000   1.0000   1.0000   1.0000   1.0000   1.0000   1.0000
     1.0000   1.0000   1.0000   1.0000   1.0000   1.0000   1.0000   1.0000
     1.0000   1.0000   1.0000   1.0000   1.0000   1.0000   1.0000   1.0000
     1.0000   1.0000   1.0000   1.0000   1.0000   1.0000   1.0000   1.0000
     1.0000   1.0000   1.0000   1.0000   1.0000   1.0000   1.0000   1.0000
     1.0000   1.0000   1.0000   1.0000   1.0000   1.0000   1.0000   1.0000
     1.0000   1.0000   1.0000   1.0000   1.0000   1.0000   1.0000   1.0000
     1.0000   1.0000   1.0000   1.0000   1.0000   1.0000   1.0000   1.0000
     1.0000   1.0000   1.0000   1.0000   1.0000   1.0000   1.0000   1.0000
     1.0000   1.0000   1.0000   1.0000   1.0000   1.0000   1.0000   1.0000
     1.0000   1.0000   1.0000   1.0000   1.0000   1.0000   1.0000   1.0000
     1.0000   1.0000   1.0000   1.0000   1.0000   1.0000   1.0000   1.0000
     1.0000   1.0000   1.0000   1.0000   1.0000   1.0000   1.0000   1.0000
     1.0000   1.0000   1.0000   1.0000   1.0000   1.0000   1.0000   1.0000
     1.0000   1.0000   1.0000   1.0000   1.0000   1.0000   1.0000   1.0000
     1.0000   1.0000   1.0000   1.0000   1.0000   1.0000   1.0000   1.0000
     1.0000   0.7860   0.0000   0.0000   0.0000   0.0000   0.0000   0.0000
     0.0000   0.0000   0.0000   0.0000   0.0000   0.0000   0.0000   0.0000
     0.0000   0.0000   0.0000   0.0000   0.0000   0.0000   0.0000   0.0000
     0.0000   0.0000   0.0000

          k = 0.1667 0.1921 0.2059 ( 25944 PWs)   bands (ev):

   -67.6733 -67.5001 -67.1212 -66.9798 -66.9585 -48.3486 -34.4442 -34.4200
   -34.4147 -34.2615 -34.2565 -34.2391 -33.8959 -33.8667 -33.8614 -33.7418
   -33.7345 -33.7306 -33.7272 -33.7184 -33.6738 -24.9056 -24.9036 -24.5794
   -22.8658 -22.8301 -14.9045 -14.8809 -14.0940 -14.0698 -13.6184 -13.5937
   -13.4848 -13.1518 -13.1190 -13.0746 -13.0031 -12.8839 -12.8434 -12.7514
   -12.7223 -12.6466 -12.4162 -12.3396 -12.2767 -12.2299 -12.1921 -12.1584
   -11.0092 -10.7721  -6.4353  -6.4028  -6.3612  -6.3512  -6.3132  -6.3027
    -3.9806  -3.9193  -2.4307  -2.3813  -1.8541  -1.3763  -1.2140  -1.1505
    -0.8353  -0.7449  -0.6932  -0.6400  -0.4132  -0.3774  -0.1971  -0.1459
     0.0613   0.1163   0.2544   0.3430   0.4985   0.6410   0.6792   0.8312
     1.1142   1.1756   1.2856   1.4046   1.4597   1.5886   1.6828   1.7703
     1.8479   1.9148   1.9966   2.0946   2.1864   2.3077   2.3449   2.4444
     2.4766   2.5229   2.5602   2.6158   2.6525   2.7321   2.8067   2.8404
     2.9427   3.0136   3.0931   3.1443   3.1999   3.2586   3.3503   3.3917
     3.4347   3.5244   3.5554   3.6134   3.6771   3.7143   3.7714   3.8310
     3.9125   3.9739   3.9852   4.0547   4.1686   4.2729   4.3847   4.6223
     9.4593   9.6121  10.0528  10.2140  10.6077  10.9144  11.2170  11.9472
    12.1684  12.2412  12.4443  12.7578  12.9042  13.0121  13.2363  13.3790
    13.4038  13.4693  13.5218  13.6087  13.6396  13.7544  13.8324  13.8691
    14.0055  14.1585  14.2896

     occupation numbers 
     1.0000   1.0000   1.0000   1.0000   1.0000   1.0000   1.0000   1.0000
     1.0000   1.0000   1.0000   1.0000   1.0000   1.0000   1.0000   1.0000
     1.0000   1.0000   1.0000   1.0000   1.0000   1.0000   1.0000   1.0000
     1.0000   1.0000   1.0000   1.0000   1.0000   1.0000   1.0000   1.0000
     1.0000   1.0000   1.0000   1.0000   1.0000   1.0000   1.0000   1.0000
     1.0000   1.0000   1.0000   1.0000   1.0000   1.0000   1.0000   1.0000
     1.0000   1.0000   1.0000   1.0000   1.0000   1.0000   1.0000   1.0000
     1.0000   1.0000   1.0000   1.0000   1.0000   1.0000   1.0000   1.0000
     1.0000   1.0000   1.0000   1.0000   1.0000   1.0000   1.0000   1.0000
     1.0000   1.0000   1.0000   1.0000   1.0000   1.0000   1.0000   1.0000
     1.0000   1.0000   1.0000   1.0000   1.0000   1.0000   1.0000   1.0000
     1.0000   1.0000   1.0000   1.0000   1.0000   1.0000   1.0000   1.0000
     1.0000   1.0000   1.0000   1.0000   1.0000   1.0000   1.0000   1.0000
     1.0000   1.0000   1.0000   1.0000   1.0000   1.0000   1.0000   1.0000
     1.0000   1.0000   1.0000   1.0000   1.0000   1.0000   1.0000   1.0000
     1.0000   1.0000   1.0000   1.0000   1.0000   1.0000   1.0000   1.0000
     1.0000   0.7927   0.0000   0.0000   0.0000   0.0000   0.0000   0.0000
     0.0000   0.0000   0.0000   0.0000   0.0000   0.0000   0.0000   0.0000
     0.0000   0.0000   0.0000   0.0000   0.0000   0.0000   0.0000   0.0000
     0.0000   0.0000   0.0000

          k = 0.1667 0.1921-0.1457 ( 25923 PWs)   bands (ev):

   -67.6733 -67.5001 -67.1212 -66.9798 -66.9585 -48.3486 -34.4442 -34.4200
   -34.4147 -34.2615 -34.2565 -34.2391 -33.8959 -33.8667 -33.8614 -33.7418
   -33.7345 -33.7306 -33.7272 -33.7184 -33.6738 -24.9056 -24.9036 -24.5794
   -22.8658 -22.8301 -14.9114 -14.8737 -14.0974 -14.0662 -13.6128 -13.6000
   -13.4851 -13.1482 -13.1268 -13.0684 -13.0055 -12.8761 -12.8521 -12.7547
   -12.7154 -12.6501 -12.4131 -12.3410 -12.2700 -12.2420 -12.1880 -12.1574
   -11.0090 -10.7721  -6.4353  -6.4028  -6.3612  -6.3513  -6.3132  -6.3027
    -3.9652  -3.9350  -2.4311  -2.3803  -1.8604  -1.3862  -1.2119  -1.1476
    -0.8218  -0.7453  -0.7024  -0.6412  -0.4029  -0.3577  -0.2211  -0.1356
     0.0555   0.1223   0.2192   0.3750   0.5308   0.6359   0.7260   0.8065
     1.0792   1.1687   1.2811   1.3913   1.4650   1.5530   1.6711   1.7706
     1.8315   1.9621   1.9898   2.1213   2.1781   2.2456   2.3575   2.4496
     2.4700   2.5343   2.5481   2.6350   2.6659   2.7505   2.7858   2.8341
     2.9368   3.0260   3.1113   3.1607   3.2153   3.2498   3.3576   3.4062
     3.4767   3.5199   3.5583   3.6213   3.6454   3.7334   3.7758   3.8395
     3.8707   3.9365   3.9709   4.0681   4.1583   4.2774   4.3882   4.6162
     9.4571   9.6031  10.0581  10.0801  10.7923  10.8301  11.3813  11.9073
    12.1675  12.3416  12.5156  12.7370  12.8265  12.9728  13.1544  13.2675
    13.3773  13.4471  13.5235  13.6001  13.6710  13.7368  13.7807  13.9793
    14.0348  14.0889  14.2608

     occupation numbers 
     1.0000   1.0000   1.0000   1.0000   1.0000   1.0000   1.0000   1.0000
     1.0000   1.0000   1.0000   1.0000   1.0000   1.0000   1.0000   1.0000
     1.0000   1.0000   1.0000   1.0000   1.0000   1.0000   1.0000   1.0000
     1.0000   1.0000   1.0000   1.0000   1.0000   1.0000   1.0000   1.0000
     1.0000   1.0000   1.0000   1.0000   1.0000   1.0000   1.0000   1.0000
     1.0000   1.0000   1.0000   1.0000   1.0000   1.0000   1.0000   1.0000
     1.0000   1.0000   1.0000   1.0000   1.0000   1.0000   1.0000   1.0000
     1.0000   1.0000   1.0000   1.0000   1.0000   1.0000   1.0000   1.0000
     1.0000   1.0000   1.0000   1.0000   1.0000   1.0000   1.0000   1.0000
     1.0000   1.0000   1.0000   1.0000   1.0000   1.0000   1.0000   1.0000
     1.0000   1.0000   1.0000   1.0000   1.0000   1.0000   1.0000   1.0000
     1.0000   1.0000   1.0000   1.0000   1.0000   1.0000   1.0000   1.0000
     1.0000   1.0000   1.0000   1.0000   1.0000   1.0000   1.0000   1.0000
     1.0000   1.0000   1.0000   1.0000   1.0000   1.0000   1.0000   1.0000
     1.0000   1.0000   1.0000   1.0000   1.0000   1.0000   1.0000   1.0000
     1.0000   1.0000   1.0000   1.0000   1.0000   1.0000   1.0000   1.0000
     1.0000   0.9600   0.0000   0.0000   0.0000   0.0000   0.0000   0.0000
     0.0000   0.0000   0.0000   0.0000   0.0000   0.0000   0.0000   0.0000
     0.0000   0.0000   0.0000   0.0000   0.0000   0.0000   0.0000   0.0000
     0.0000   0.0000   0.0000

          k = 0.3333 0.0000 0.0601 ( 25907 PWs)   bands (ev):

   -67.6733 -67.5001 -67.1212 -66.9798 -66.9585 -48.3486 -34.4440 -34.4202
   -34.4146 -34.2616 -34.2564 -34.2391 -33.8957 -33.8665 -33.8618 -33.7431
   -33.7331 -33.7310 -33.7249 -33.7197 -33.6746 -24.9066 -24.9034 -24.5794
   -22.8655 -22.8298 -14.7702 -14.7144 -14.1786 -14.1364 -13.7655 -13.7360
   -13.4212 -13.2098 -13.0736 -13.0057 -12.9805 -12.8483 -12.7947 -12.7465
   -12.7190 -12.6592 -12.4726 -12.4098 -12.3297 -12.2437 -12.2226 -12.1505
   -11.0038 -10.7818  -6.4375  -6.4083  -6.3585  -6.3496  -6.3127  -6.2955
    -3.6092  -3.5460  -2.4179  -2.3094  -1.8049  -1.5820  -1.4697  -1.1794
    -0.9720  -0.6935  -0.6237  -0.6012  -0.4373  -0.2889  -0.2070  -0.1590
     0.0244   0.1643   0.3286   0.3922   0.5468   0.6441   0.7066   0.7425
     1.0697   1.1969   1.2997   1.3568   1.4222   1.5247   1.5949   1.6434
     1.6996   1.7767   1.9220   2.0137   2.1405   2.3351   2.3871   2.4349
     2.5012   2.5796   2.6420   2.6864   2.7555   2.7902   2.8455   2.9089
     2.9749   2.9940   3.0710   3.1336   3.2169   3.2406   3.2913   3.3533
     3.3806   3.4508   3.4857   3.5776   3.6452   3.7087   3.7242   3.8032
     3.8099   3.8466   3.9919   4.0619   4.0905   4.3647   4.4381   4.4945
     9.4439   9.5728  10.0058  10.3072  11.2169  11.4830  11.9242  12.0129
    12.0828  12.2852  12.3357  12.5724  12.8118  12.9202  13.0716  13.1472
    13.2501  13.3944  13.6096  13.6500  13.7288  13.7535  13.8686  14.0505
    14.0635  14.2899  14.3612

     occupation numbers 
     1.0000   1.0000   1.0000   1.0000   1.0000   1.0000   1.0000   1.0000
     1.0000   1.0000   1.0000   1.0000   1.0000   1.0000   1.0000   1.0000
     1.0000   1.0000   1.0000   1.0000   1.0000   1.0000   1.0000   1.0000
     1.0000   1.0000   1.0000   1.0000   1.0000   1.0000   1.0000   1.0000
     1.0000   1.0000   1.0000   1.0000   1.0000   1.0000   1.0000   1.0000
     1.0000   1.0000   1.0000   1.0000   1.0000   1.0000   1.0000   1.0000
     1.0000   1.0000   1.0000   1.0000   1.0000   1.0000   1.0000   1.0000
     1.0000   1.0000   1.0000   1.0000   1.0000   1.0000   1.0000   1.0000
     1.0000   1.0000   1.0000   1.0000   1.0000   1.0000   1.0000   1.0000
     1.0000   1.0000   1.0000   1.0000   1.0000   1.0000   1.0000   1.0000
     1.0000   1.0000   1.0000   1.0000   1.0000   1.0000   1.0000   1.0000
     1.0000   1.0000   1.0000   1.0000   1.0000   1.0000   1.0000   1.0000
     1.0000   1.0000   1.0000   1.0000   1.0000   1.0000   1.0000   1.0000
     1.0000   1.0000   1.0000   1.0000   1.0000   1.0000   1.0000   1.0000
     1.0000   1.0000   1.0000   1.0000   1.0000   1.0000   1.0000   1.0000
     1.0000   1.0000   1.0000   1.0000   1.0000   1.0000   1.0000   1.0000
     1.0000   1.0000   0.0000   0.0000   0.0000   0.0000   0.0000   0.0000
     0.0000   0.0000   0.0000   0.0000   0.0000   0.0000   0.0000   0.0000
     0.0000   0.0000   0.0000   0.0000   0.0000   0.0000   0.0000   0.0000
     0.0000   0.0000   0.0000

          k = 0.3333 0.0000 0.2360 ( 25948 PWs)   bands (ev):

   -67.6733 -67.5001 -67.1212 -66.9798 -66.9585 -48.3486 -34.4440 -34.4203
   -34.4146 -34.2616 -34.2564 -34.2391 -33.8957 -33.8665 -33.8618 -33.7431
   -33.7331 -33.7310 -33.7249 -33.7197 -33.6746 -24.9066 -24.9034 -24.5795
   -22.8655 -22.8298 -14.7507 -14.7351 -14.1740 -14.1412 -13.7615 -13.7407
   -13.4193 -13.2091 -13.0644 -13.0232 -12.9720 -12.8464 -12.7899 -12.7572
   -12.7175 -12.6604 -12.4652 -12.4194 -12.3142 -12.2560 -12.2079 -12.1636
   -11.0028 -10.7829  -6.4377  -6.4084  -6.3584  -6.3495  -6.3126  -6.2955
    -3.6161  -3.5388  -2.3919  -2.3387  -1.7843  -1.6095  -1.4535  -1.1604
    -0.9851  -0.6662  -0.6287  -0.5737  -0.4532  -0.3157  -0.2206  -0.1942
     0.0737   0.1004   0.2986   0.3918   0.5353   0.6566   0.6869   0.7833
     1.1213   1.2021   1.2729   1.3749   1.3856   1.5172   1.6178   1.7027
     1.7458   1.8124   1.8646   2.0588   2.1660   2.3241   2.3773   2.3891
     2.4941   2.5426   2.6482   2.6787   2.7240   2.8131   2.8226   2.8667
     2.9655   3.0020   3.0787   3.1820   3.2054   3.2175   3.2714   3.3477
     3.4045   3.4476   3.5032   3.5755   3.6360   3.7019   3.7239   3.8014
     3.8187   3.9048   3.9635   4.0340   4.1097   4.3309   4.4586   4.5225
     9.4455   9.5619  10.0073  10.5798  10.8772  11.5882  11.7800  11.8818
    12.1938  12.2643  12.3863  12.5939  12.7993  12.8582  13.0001  13.0883
    13.4339  13.5083  13.5554  13.6216  13.6975  13.8547  13.9930  14.0545
    14.0662  14.1176  14.2930

     occupation numbers 
     1.0000   1.0000   1.0000   1.0000   1.0000   1.0000   1.0000   1.0000
     1.0000   1.0000   1.0000   1.0000   1.0000   1.0000   1.0000   1.0000
     1.0000   1.0000   1.0000   1.0000   1.0000   1.0000   1.0000   1.0000
     1.0000   1.0000   1.0000   1.0000   1.0000   1.0000   1.0000   1.0000
     1.0000   1.0000   1.0000   1.0000   1.0000   1.0000   1.0000   1.0000
     1.0000   1.0000   1.0000   1.0000   1.0000   1.0000   1.0000   1.0000
     1.0000   1.0000   1.0000   1.0000   1.0000   1.0000   1.0000   1.0000
     1.0000   1.0000   1.0000   1.0000   1.0000   1.0000   1.0000   1.0000
     1.0000   1.0000   1.0000   1.0000   1.0000   1.0000   1.0000   1.0000
     1.0000   1.0000   1.0000   1.0000   1.0000   1.0000   1.0000   1.0000
     1.0000   1.0000   1.0000   1.0000   1.0000   1.0000   1.0000   1.0000
     1.0000   1.0000   1.0000   1.0000   1.0000   1.0000   1.0000   1.0000
     1.0000   1.0000   1.0000   1.0000   1.0000   1.0000   1.0000   1.0000
     1.0000   1.0000   1.0000   1.0000   1.0000   1.0000   1.0000   1.0000
     1.0000   1.0000   1.0000   1.0000   1.0000   1.0000   1.0000   1.0000
     1.0000   1.0000   1.0000   1.0000   1.0000   1.0000   1.0000   1.0000
     1.0000   1.0000   0.0000   0.0000   0.0000   0.0000   0.0000   0.0000
     0.0000   0.0000   0.0000   0.0000   0.0000   0.0000   0.0000   0.0000
     0.0000   0.0000   0.0000   0.0000   0.0000   0.0000   0.0000   0.0000
     0.0000   0.0000   0.0000

          k = 0.3333 0.0000-0.1157 ( 25913 PWs)   bands (ev):

   -67.6733 -67.5001 -67.1212 -66.9798 -66.9585 -48.3486 -34.4440 -34.4203
   -34.4146 -34.2615 -34.2564 -34.2391 -33.8957 -33.8665 -33.8618 -33.7431
   -33.7331 -33.7310 -33.7249 -33.7197 -33.6746 -24.9066 -24.9034 -24.5794
   -22.8655 -22.8298 -14.7630 -14.7222 -14.1673 -14.1483 -13.7641 -13.7377
   -13.4208 -13.2089 -13.0672 -13.0209 -12.9712 -12.8438 -12.7924 -12.7419
   -12.7332 -12.6614 -12.4592 -12.4244 -12.3109 -12.2594 -12.2113 -12.1593
   -11.0027 -10.7828  -6.4377  -6.4084  -6.3584  -6.3495  -6.3126  -6.2955
    -3.5856  -3.5703  -2.4075  -2.3217  -1.7969  -1.5804  -1.4805  -1.1680
    -0.9776  -0.6667  -0.6304  -0.5701  -0.4282  -0.3364  -0.2316  -0.1607
     0.0182   0.1388   0.3442   0.3575   0.5773   0.6328   0.7189   0.7556
     1.1149   1.1776   1.2811   1.3661   1.4383   1.5120   1.5749   1.6808
     1.7224   1.7623   1.9345   2.0254   2.1639   2.3163   2.3428   2.4224
     2.4954   2.6038   2.6165   2.6988   2.7113   2.7822   2.8552   2.8927
     2.9671   2.9861   3.0731   3.1376   3.1921   3.2392   3.3137   3.3910
     3.4457   3.5055   3.5236   3.5682   3.6124   3.6680   3.7405   3.7646
     3.8090   3.8560   3.9200   4.0357   4.1368   4.3464   4.4461   4.5226
     9.4412   9.5595  10.0110  10.3884  11.1044  11.5297  11.9286  11.9418
    12.1526  12.3124  12.4299  12.5533  12.8146  12.8946  12.9901  13.1154
    13.2859  13.3778  13.5140  13.6202  13.6868  13.8082  13.8845  13.9869
    14.1605  14.2565  14.3637

     occupation numbers 
     1.0000   1.0000   1.0000   1.0000   1.0000   1.0000   1.0000   1.0000
     1.0000   1.0000   1.0000   1.0000   1.0000   1.0000   1.0000   1.0000
     1.0000   1.0000   1.0000   1.0000   1.0000   1.0000   1.0000   1.0000
     1.0000   1.0000   1.0000   1.0000   1.0000   1.0000   1.0000   1.0000
     1.0000   1.0000   1.0000   1.0000   1.0000   1.0000   1.0000   1.0000
     1.0000   1.0000   1.0000   1.0000   1.0000   1.0000   1.0000   1.0000
     1.0000   1.0000   1.0000   1.0000   1.0000   1.0000   1.0000   1.0000
     1.0000   1.0000   1.0000   1.0000   1.0000   1.0000   1.0000   1.0000
     1.0000   1.0000   1.0000   1.0000   1.0000   1.0000   1.0000   1.0000
     1.0000   1.0000   1.0000   1.0000   1.0000   1.0000   1.0000   1.0000
     1.0000   1.0000   1.0000   1.0000   1.0000   1.0000   1.0000   1.0000
     1.0000   1.0000   1.0000   1.0000   1.0000   1.0000   1.0000   1.0000
[...]
     atom   18 type  6   force =    -0.00059745   -0.00115004   -0.00647765
     atom   19 type  6   force =     0.00059745   -0.00115004    0.00647765
     atom   20 type  6   force =     0.00011137   -0.00024580    0.00672778
     atom   21 type  6   force =    -0.00011137   -0.00024580   -0.00672778
     atom   22 type  6   force =     0.00004855    0.00012001   -0.00310964
     atom   23 type  6   force =    -0.00004855    0.00012001    0.00310964
     atom   24 type  6   force =     0.00472691   -0.00187748   -0.00597958
     atom   25 type  6   force =    -0.00472691   -0.00187748    0.00597956
     atom   26 type  6   force =    -0.00370659    0.00081957   -0.00681298
     atom   27 type  6   force =     0.00370659    0.00081957    0.00681297
     atom   28 type  6   force =    -0.00181517    0.00250691    0.00743776
     atom   29 type  6   force =     0.00181517    0.00250691   -0.00743776
     atom   30 type  6   force =     0.00087374   -0.00227166   -0.00752662
     atom   31 type  6   force =    -0.00087374   -0.00227166    0.00752662
     atom   32 type  6   force =    -0.00271740   -0.00352153   -0.00653296
     atom   33 type  6   force =     0.00271738   -0.00352153    0.00653297
     atom   34 type  6   force =     0.00114068    0.00420678    0.00659042
     atom   35 type  6   force =    -0.00114067    0.00420678   -0.00659042
     atom   36 type  6   force =     0.00012726    0.00054749    0.01109827
     atom   37 type  6   force =    -0.00012725    0.00054749   -0.01109827
     atom   38 type  6   force =    -0.00097573   -0.00096473    0.01080536
     atom   39 type  6   force =     0.00097574   -0.00096472   -0.01080534
     atom   40 type  3   force =     0.00000000    0.00000000    0.00000000
     atom   41 type  3   force =     0.00000000    0.00000000    0.00000000
     atom   42 type  3   force =     0.00000000    0.00000000    0.00000000
     atom   43 type  3   force =     0.00000000    0.00000000    0.00000000
     atom   44 type  2   force =     0.00000000   -0.00153269   -0.00000000
     The Hubbard contrib.    to forces
     atom    1 type  4   force =     0.00000000    0.00000000    0.00000000
     atom    2 type  4   force =     0.00000000    0.00000000    0.00000000
     atom    3 type  5   force =     0.00000000    0.00000000    0.00000000
     atom    4 type  5   force =     0.00000000    0.00000000    0.00000000
     atom    5 type  5   force =     0.00000000    0.00000000    0.00000000
     atom    6 type  5   force =     0.00000000    0.00000000    0.00000000
     atom    7 type  5   force =     0.00000000    0.00000000    0.00000000
     atom    8 type  7   force =     0.00000000    0.00000000    0.00000000
     atom    9 type  7   force =     0.00000000    0.00000000    0.00000000
     atom   10 type  7   force =     0.00000000    0.00000000    0.00000000
     atom   11 type  7   force =     0.00000000    0.00000000    0.00000000
     atom   12 type  7   force =     0.00000000    0.00000000    0.00000000
     atom   13 type  7   force =     0.00000000    0.00000000    0.00000000
     atom   14 type  1   force =     0.00000000    0.00000000    0.00000000
     atom   15 type  1   force =     0.00000000    0.00000000    0.00000000
     atom   16 type  6   force =     0.00000000    0.00000000    0.00000000
     atom   17 type  6   force =     0.00000000    0.00000000    0.00000000
     atom   18 type  6   force =     0.00000000    0.00000000    0.00000000
     atom   19 type  6   force =     0.00000000    0.00000000    0.00000000
     atom   20 type  6   force =     0.00000000    0.00000000    0.00000000
     atom   21 type  6   force =     0.00000000    0.00000000    0.00000000
     atom   22 type  6   force =     0.00000000    0.00000000    0.00000000
     atom   23 type  6   force =     0.00000000    0.00000000    0.00000000
     atom   24 type  6   force =     0.00000000    0.00000000    0.00000000
     atom   25 type  6   force =     0.00000000    0.00000000    0.00000000
     atom   26 type  6   force =     0.00000000    0.00000000    0.00000000
     atom   27 type  6   force =     0.00000000    0.00000000    0.00000000
     atom   28 type  6   force =     0.00000000    0.00000000    0.00000000
     atom   29 type  6   force =     0.00000000    0.00000000    0.00000000
     atom   30 type  6   force =     0.00000000    0.00000000    0.00000000
     atom   31 type  6   force =     0.00000000    0.00000000    0.00000000
     atom   32 type  6   force =     0.00000000    0.00000000    0.00000000
     atom   33 type  6   force =     0.00000000    0.00000000    0.00000000
     atom   34 type  6   force =     0.00000000    0.00000000    0.00000000
     atom   35 type  6   force =     0.00000000    0.00000000    0.00000000
     atom   36 type  6   force =     0.00000000    0.00000000    0.00000000
     atom   37 type  6   force =     0.00000000    0.00000000    0.00000000
     atom   38 type  6   force =     0.00000000    0.00000000    0.00000000
     atom   39 type  6   force =     0.00000000    0.00000000    0.00000000
     atom   40 type  3   force =     0.00000000    0.00000000    0.00000000
     atom   41 type  3   force =     0.00000000    0.00000000    0.00000000
     atom   42 type  3   force =     0.00000000    0.00000000    0.00000000
     atom   43 type  3   force =     0.00000000    0.00000000    0.00000000
     atom   44 type  2   force =     0.00000000    0.00000000    0.00000000
     The SCF correction term to forces
     atom    1 type  4   force =     0.00000000    0.00001420    0.00000000
     atom    2 type  4   force =     0.00000000   -0.00001615    0.00000000
     atom    3 type  5   force =     0.00000000   -0.00003039   -0.00000000
     atom    4 type  5   force =    -0.00000000    0.00000707   -0.00000000
     atom    5 type  5   force =    -0.00000000   -0.00004503    0.00000000
     atom    6 type  5   force =    -0.00000000   -0.00005123   -0.00000000
     atom    7 type  5   force =    -0.00000000    0.00002616    0.00000000
     atom    8 type  7   force =    -0.00000177   -0.00000008   -0.00001460
     atom    9 type  7   force =     0.00000177   -0.00000008    0.00001460
     atom   10 type  7   force =     0.00000135   -0.00000181    0.00001902
     atom   11 type  7   force =    -0.00000135   -0.00000181   -0.00001902
     atom   12 type  7   force =     0.00000014   -0.00000478   -0.00001027
     atom   13 type  7   force =    -0.00000014   -0.00000478    0.00001027
     atom   14 type  1   force =     0.00000005    0.00000386    0.00000491
     atom   15 type  1   force =    -0.00000005    0.00000386   -0.00000491
     atom   16 type  6   force =     0.00000108    0.00000991   -0.00002416
     atom   17 type  6   force =    -0.00000108    0.00000991    0.00002416
     atom   18 type  6   force =    -0.00000228   -0.00001340    0.00002972
     atom   19 type  6   force =     0.00000228   -0.00001340   -0.00002972
     atom   20 type  6   force =     0.00000071   -0.00002518   -0.00001748
     atom   21 type  6   force =    -0.00000071   -0.00002518    0.00001748
     atom   22 type  6   force =     0.00000078    0.00001745    0.00001389
     atom   23 type  6   force =    -0.00000078    0.00001745   -0.00001389
     atom   24 type  6   force =     0.00000092   -0.00000322   -0.00001516
     atom   25 type  6   force =    -0.00000092   -0.00000322    0.00001516
     atom   26 type  6   force =    -0.00000070   -0.00000349   -0.00002147
     atom   27 type  6   force =     0.00000070   -0.00000349    0.00002147
     atom   28 type  6   force =     0.00000226   -0.00000219    0.00002365
     atom   29 type  6   force =    -0.00000226   -0.00000219   -0.00002365
     atom   30 type  6   force =     0.00000279    0.00000310   -0.00001399
     atom   31 type  6   force =    -0.00000279    0.00000310    0.00001399
     atom   32 type  6   force =    -0.00000063    0.00000377   -0.00000243
     atom   33 type  6   force =     0.00000063    0.00000377    0.00000243
     atom   34 type  6   force =    -0.00000440   -0.00000087    0.00000750
     atom   35 type  6   force =     0.00000440   -0.00000087   -0.00000750
     atom   36 type  6   force =     0.00000520    0.00000444   -0.00002818
     atom   37 type  6   force =    -0.00000520    0.00000444    0.00002818
     atom   38 type  6   force =    -0.00000809   -0.00000261   -0.00002993
     atom   39 type  6   force =     0.00000809   -0.00000261    0.00002993
     atom   40 type  3   force =     0.00000023    0.00000089   -0.00000127
     atom   41 type  3   force =    -0.00000023    0.00000089    0.00000127
     atom   42 type  3   force =     0.00000034    0.00000013   -0.00000659
     atom   43 type  3   force =    -0.00000034    0.00000013    0.00000659
     atom   44 type  2   force =     0.00000000    0.00001487    0.00000000

     DFT-D3 dispersion contribution to forces:
     atom    1 type  4   force =    -0.00000000    0.00050317    0.00000000
     atom    2 type  4   force =     0.00000000   -0.00033686    0.00000000
     atom    3 type  5   force =    -0.00000000    0.00079801   -0.00000000
     atom    4 type  5   force =    -0.00000000   -0.00119344   -0.00000000
     atom    5 type  5   force =     0.00000000   -0.00055914    0.00000000
     atom    6 type  5   force =    -0.00000000    0.00107267    0.00000000
     atom    7 type  5   force =     0.00000000   -0.00014268   -0.00000000
     atom    8 type  7   force =    -0.00001967   -0.00014739   -0.00015967
     atom    9 type  7   force =     0.00001966   -0.00014739    0.00015967
     atom   10 type  7   force =     0.00013463    0.00020686    0.00006114
     atom   11 type  7   force =    -0.00013463    0.00020686   -0.00006114
     atom   12 type  7   force =    -0.00000870    0.00015877   -0.00019707
     atom   13 type  7   force =     0.00000870    0.00015877    0.00019707
     atom   14 type  1   force =     0.00002668    0.00006022   -0.00112447
     atom   15 type  1   force =    -0.00002668    0.00006022    0.00112447
     atom   16 type  6   force =    -0.00001585   -0.00006131    0.00047991
     atom   17 type  6   force =     0.00001585   -0.00006131   -0.00047991
     atom   18 type  6   force =     0.00003479    0.00010235   -0.00043245
     atom   19 type  6   force =    -0.00003479    0.00010235    0.00043245
     atom   20 type  6   force =    -0.00007165   -0.00013604    0.00034703
     atom   21 type  6   force =     0.00007165   -0.00013604   -0.00034703
     atom   22 type  6   force =     0.00006133    0.00007095    0.00015273
     atom   23 type  6   force =    -0.00006133    0.00007095   -0.00015273
     atom   24 type  6   force =    -0.00015389    0.00097325    0.00014584
     atom   25 type  6   force =     0.00015389    0.00097325   -0.00014584
     atom   26 type  6   force =     0.00083372    0.00006701    0.00006455
     atom   27 type  6   force =    -0.00083372    0.00006701   -0.00006455
     atom   28 type  6   force =     0.00042039   -0.00063792   -0.00016458
     atom   29 type  6   force =    -0.00042039   -0.00063792    0.00016458
     atom   30 type  6   force =    -0.00028097    0.00045312    0.00020170
     atom   31 type  6   force =     0.00028097    0.00045312   -0.00020170
     atom   32 type  6   force =     0.00086445   -0.00042158    0.00040074
     atom   33 type  6   force =    -0.00086445   -0.00042158   -0.00040074
     atom   34 type  6   force =     0.00060633   -0.00046529   -0.00036685
     atom   35 type  6   force =    -0.00060633   -0.00046529    0.00036685
     atom   36 type  6   force =    -0.00002677   -0.00005279   -0.00049782
     atom   37 type  6   force =     0.00002677   -0.00005279    0.00049782
     atom   38 type  6   force =     0.00025283    0.00002763   -0.00046746
     atom   39 type  6   force =    -0.00025283    0.00002763    0.00046746
     atom   40 type  3   force =     0.00003576    0.00009471   -0.00032833
     atom   41 type  3   force =    -0.00003576    0.00009471    0.00032833
     atom   42 type  3   force =    -0.00000838   -0.00039172   -0.00027407
     atom   43 type  3   force =     0.00000838   -0.00039172    0.00027407
     atom   44 type  2   force =     0.00000000    0.00005662   -0.00000000

     Total force =     0.004154     Total SCF correction =     0.000148

     DFT-D3 dispersion Force =     0.004319
     Energy error            =      2.8E-05 Ry
     Gradient error          =      9.6E-04 Ry/Bohr

     bfgs converged in  12 scf cycles and  11 bfgs steps
     (criteria: energy <  1.0E-04 Ry, force <  1.0E-03 Ry/Bohr)

     End of BFGS Geometry Optimization

     Final energy             =   -2485.8324987064 Ry

     File ./temp/phl-ti1-ti1.bfgs deleted, as requested
Begin final coordinates

ATOMIC_POSITIONS (crystal)
K                0.0000000000        0.4934118207        0.0000000000
K                0.5000000000        0.0041199781        0.0000000000
Mg              -0.0000000000        0.3350325521        0.5000000000
Mg              -0.0000000000        0.6626048188        0.5000000000
Mg               0.5000000000        0.4931310413        0.5000000000
Mg               0.5000000000        0.8322955481        0.5000000000
Mg               0.5000000000        0.1750819734        0.5000000000
Si               0.0843867334        0.1665202877        0.2200680848
Si               0.9156132526        0.1665202877        0.7799319452
Si               0.9333745972        0.8333677609        0.7732088337
Si               0.0666254028        0.8333677609        0.2267911663
Si               0.5642584361        0.6665787268        0.2250094468
Si               0.4357415639        0.6665787268        0.7749905382
Al               0.4149891518        0.3311198050        0.7773391042
Al               0.5850108482        0.3311198050        0.2226608958
O                0.1316113330        0.1709599932        0.3826172069
O                0.8683886370        0.1709599932        0.6173828221
O                0.8701969802        0.8261080399        0.6121369503
O                0.1298030198        0.8261080399        0.3878630497
O                0.6258283053        0.6693322379        0.3870012452
O                0.3741716947        0.6693322379        0.6129987548
O                0.3607451766        0.3333062000        0.6049350759
O                0.6392548234        0.3333062000        0.3950649241
O                0.3432288990        0.2033534516        0.1618840214
O                0.6567711010        0.2033534516        0.8381159486
O                0.9976690288        0.9974609583        0.1685223156
O                0.0023309712        0.9974609583        0.8314776694
O                0.6824996125        0.7751973304        0.8339628929
O                0.3175003875        0.7751973304        0.1660371071
O                0.8153654224        0.7323039379        0.1659048430
O                0.1846345776        0.7323039379        0.8340951570
O                0.4957321933        0.5078300652        0.1607208132
O                0.5042677767        0.5078300652        0.8392792018
O                0.1438784742        0.2767405075        0.8437491995
O                0.8561215408        0.2767405075        0.1562508005
O                0.1318457465        0.5036427956        0.3939630448
O                0.8681542685        0.5036427956        0.6060369552
O                0.6229763340        0.9998172278        0.3944602010
O                0.3770236660        0.9998172278        0.6055397690
H                0.0995886314        0.4950092408        0.2981889854
H                0.9004113986        0.4950092408        0.7018110146
H                0.5887946500        0.0120200979        0.2983552061
H                0.4112053500        0.0120200979        0.7016447939
Ti              -0.0000000000        0.0029799915        0.5000000000
End final coordinates



     Writing all to output data dir ./temp/phl-ti1-ti1.save/ :
     XML data file, charge density, pseudopotentials, collected wavefunctions

     init_run     :    324.10s CPU    329.24s WALL (       1 calls)
     electrons    : 139538.25s CPU 140458.15s WALL (      12 calls)
     update_pot   :     26.20s CPU     26.47s WALL (      11 calls)
     forces       :   3153.48s CPU   3169.10s WALL (      12 calls)
     force_dftd3  :     31.35s CPU     31.44s WALL (      12 calls)

     Called by init_run:
     wfcinit      :    313.71s CPU    317.94s WALL (       1 calls)
     wfcinit:atom :      0.52s CPU      0.53s WALL (      40 calls)
     wfcinit:wfcr :    309.56s CPU    313.77s WALL (      40 calls)
     potinit      :      2.40s CPU      2.59s WALL (       1 calls)
     hinit0       :      0.77s CPU      0.86s WALL (       1 calls)

     Called by electrons:
     c_bands      : 127351.02s CPU 128067.60s WALL (     114 calls)
     sum_band     :  11181.64s CPU  11320.20s WALL (     114 calls)
     v_of_rho     :     73.21s CPU     76.62s WALL (     120 calls)
     v_h          :      4.12s CPU      4.27s WALL (     120 calls)
     v_xc         :     75.72s CPU     79.49s WALL (     132 calls)
     newd         :    809.39s CPU    875.85s WALL (     120 calls)
     PAW_pot      :    197.42s CPU    197.88s WALL (     131 calls)
     mix_rho      :     15.93s CPU     16.41s WALL (     114 calls)
     energy_dftd3 :     24.49s CPU     24.52s WALL (      12 calls)

     Called by c_bands:
     init_us_2    :    415.69s CPU    419.79s WALL (   10080 calls)
     cegterg      : 126922.65s CPU 127632.13s WALL (    4565 calls)

     Called by sum_band:
     sum_band:wei :      0.15s CPU      0.16s WALL (     114 calls)
     sum_band:loo :   9316.79s CPU   9380.06s WALL (     114 calls)
     sum_band:buf :     55.03s CPU     55.81s WALL (    4560 calls)
     sum_band:ini :    188.95s CPU    190.53s WALL (    4560 calls)
     sum_band:cal :   7385.34s CPU   7400.43s WALL (    5000 calls)
     sum_band:bec :      9.07s CPU      9.11s WALL (    5000 calls)
     addusdens    :   1850.67s CPU   1925.12s WALL (     114 calls)
                                        0.00s GPU  (     114 calls)
     addusd:skk   :      5.82s CPU      7.63s WALL (     798 calls)
                                        0.00s GPU  (     798 calls)

     Called by *egterg:
     cdiaghg      :   1576.04s CPU   1595.30s WALL (   30272 calls)
     cegterg:over :  16560.06s CPU  16608.42s WALL (   26387 calls)
     cegterg:upda :   9409.13s CPU   9453.19s WALL (   26387 calls)
     cegterg:last :  26691.10s CPU  26768.87s WALL (   12407 calls)
     cdiaghg:chol :     36.45s CPU     36.68s WALL (   30272 calls)
     cdiaghg:inve :     28.88s CPU     28.96s WALL (   30272 calls)
     cdiaghg:para :    581.88s CPU    589.73s WALL (   60544 calls)
     h_psi        :  49312.71s CPU  49688.60s WALL (   30992 calls)
     s_psi        :  20262.40s CPU  20308.88s WALL (   30992 calls)
     g_psi        :     38.00s CPU     38.16s WALL (   26387 calls)

     Called by h_psi:
     h_psi:calbec :  20155.52s CPU  20207.69s WALL (   30992 calls)
     vloc_psi     :   8586.57s CPU   8824.81s WALL (   30992 calls)
     add_vuspsi   :  20461.38s CPU  20508.66s WALL (   30992 calls)

     General routines
     calbec       :  30378.74s CPU  30452.55s WALL (   37912 calls)
     fft          :     59.03s CPU     63.05s WALL (    3179 calls)
     ffts         :      1.70s CPU      1.78s WALL (     468 calls)
     fftw         :   5015.03s CPU   5122.37s WALL ( 4928920 calls)
     interpolate  :      6.78s CPU      7.06s WALL (     240 calls)

     Parallel routines

     PAW routines
     PAW_pot      :    197.42s CPU    197.88s WALL (     131 calls)
     PAW_symme    :      0.10s CPU      0.10s WALL (     245 calls)

     PWSCF        :   1d15h56m CPU   1d16h13m WALL


   This run was terminated on:   8:14: 9   1Mar2025            

=------------------------------------------------------------------------------=
   JOB DONE.
=------------------------------------------------------------------------------=
