 INFO
nunit      1    1    1
unit   cell
celltype   primcell
shape   parapipedal
 END_INFO
 DIM-GROUP
           3           1
 PRIMVEC
   10.6079662290    0.0000000000    0.0000000000
    0.0000000000    9.2241888580    0.0000000000
   -1.7970743430    0.0000000000   10.0349875410
 CONVVEC
   10.6079662290    0.0000000000    0.0000000000
    0.0000000000    9.2241888580    0.0000000000
   -1.7970743430    0.0000000000   10.0349875410
 PRIMCOORD
          88           1
 19      0.0000000000     4.5938046340     0.0000000000    -0.0000111800    -0.0002986500     0.0000007000
 19      5.3039831150     4.5938046340     0.0000000000     0.0000111800    -0.0002986500    -0.0000007000
 19      2.6519918750     0.0051624740     0.0000000000     0.0000000000     0.0002438600     0.0000000000
 19      7.9559746720     0.0051624740     0.0000000000     0.0000000000     0.0002396300     0.0000000000
 12      4.4054446810     0.0337748840     5.0174937710    -0.0000054100    -0.0001454500    -0.0000015600
 12     -0.8985371720     0.0337748840     5.0174937710     0.0000054100    -0.0001454500     0.0000015600
 12      4.4054446810     3.0589189780     5.0174937710    -0.0000124300    -0.0000094400     0.0000231700
 12     -0.8985371720     3.0589189780     5.0174937710     0.0000124300    -0.0000094400    -0.0000231700
 12      4.4054446810     6.1419430410     5.0174937710    -0.0000293600    -0.0003321300     0.0000149000
 12     -0.8985371720     6.1419430410     5.0174937710     0.0000293600    -0.0003321300    -0.0000149000
 12      1.7534535900     7.7107073710     5.0174937710     0.0000000000     0.0000724900     0.0000000000
 12      7.0574368640     7.7107073710     5.0174937710     0.0000000000     0.0000708400     0.0000000000
 12      1.7534535900     1.5556759530     5.0174937710     0.0000000000    -0.0001359500     0.0000000000
 12      7.0574368640     1.5556759530     5.0174937710     0.0000000000    -0.0000952300     0.0000000000
 26      1.7534535900     4.5422387430     5.0174937710     0.0000000000     0.0002807400     0.0000000000
 26      7.0574368640     4.5422387430     5.0174937710     0.0000000000     0.0002737400     0.0000000000
 14      0.0472328140     1.5196332470     2.2306439740    -0.0000565800     0.0001909300    -0.0008565700
 14      5.3512160140     1.5196332470     2.2306439740    -0.0000580700     0.0001868100    -0.0008577200
 14      3.4596740270     1.5196332470     7.8043432660     0.0000565800     0.0001909300     0.0008565700
 14      8.7636571420     1.5196332470     7.8043432660     0.0000580700     0.0001868100     0.0008577200
 14      3.5635686540     7.6969562080     7.7473155760     0.0001510600     0.0001308400     0.0002411600
 14      8.8675520870     7.6969562080     7.7473155760     0.0001510000     0.0001358500     0.0002422700
 14     -0.0566616760     7.6969562080     2.2876722660    -0.0001510600     0.0001308400    -0.0002411600
 14      5.2473215980     7.6969562080     2.2876722660    -0.0001510000     0.0001358500    -0.0002422700
 14      2.5951721540     6.1591189420     2.2699364590    -0.0001936300    -0.0004761100    -0.0006492500
 14      7.8991552680     6.1591189420     2.2699364590    -0.0001917100    -0.0004815300    -0.0006448800
 14      0.9117348240     6.1591189420     7.7650513830     0.0001936300    -0.0004761100     0.0006492500
 14      6.2157177800     6.1591189420     7.7650513830     0.0001917100    -0.0004815300     0.0006448800
 13      0.8026126520     3.0529379310     7.7896369920    -0.0000073500    -0.0000781900     0.0000798200
 13      6.1065960850     3.0529379310     7.7896369920    -0.0000091000    -0.0000725200     0.0000800600
 13      2.7042939570     3.0529379310     2.2453502480     0.0000073500    -0.0000781900    -0.0000798200
 13      8.0082770710     3.0529379310     2.2453502480     0.0000091000    -0.0000725200    -0.0000800600
  8     -0.0126918950     1.4997978090     3.8617773910    -0.0000844700    -0.0000951400    -0.0007105100
  8      5.2912909760     1.4997978090     3.8617773910    -0.0000769200    -0.0001022800    -0.0007041700
  8      3.5195988010     1.4997978090     6.1732095480     0.0000844700    -0.0000951400     0.0007105100
  8      8.8235815980     1.4997978090     6.1732095480     0.0000769200    -0.0001022800     0.0007041700
  8      3.5373820550     7.6854883920     6.1294801230    -0.0000795800     0.0001720600     0.0006367000
  8      8.8413648510     7.6854883920     6.1294801230    -0.0000856400     0.0001722300     0.0006276300
  8     -0.0304749150     7.6854883920     3.9055068160     0.0000795800     0.0001720600    -0.0006367000
  8      5.2735083590     7.6854883920     3.9055068160     0.0000856400     0.0001722300    -0.0006276300
  8      2.6350798340     6.2206624070     3.8932292600     0.0001967100     0.0000280000    -0.0006216300
  8      7.9390626300     6.2206624070     3.8932292600     0.0001868300     0.0000342200    -0.0005903900
  8      0.8718275190     6.2206624070     6.1417573780    -0.0001967100     0.0000280000     0.0006216300
  8      6.1758106340     6.2206624070     6.1417573780    -0.0001868300     0.0000342200     0.0005903900
  8      0.8232954360     3.0269162360     6.0552866530    -0.0002147100    -0.0000398600    -0.0001803100
  8      6.1272783910     3.0269162360     6.0552866530    -0.0002176400    -0.0000495200    -0.0001971400
  8      2.6836115960     3.0269162360     3.9797008880     0.0002147100    -0.0000398600     0.0001803100
  8      7.9875947110     3.0269162360     3.9797008880     0.0002176400    -0.0000495200     0.0001971400
  8      1.5292416390     1.8701781500     1.6569188800     0.0001563500     0.0001119500     0.0004340300
  8      6.8332249130     1.8701781500     1.6569188800     0.0001505500     0.0001009000     0.0004393400
  8      1.9776654470     1.8701781500     8.3780683610    -0.0001563500     0.0001119500    -0.0004340300
  8      7.2816488800     1.8701781500     8.3780683610    -0.0001505500     0.0001009000    -0.0004393400
  8      4.9864221280     9.1984002770     1.6759476950     0.0001366600     0.0000263700     0.0001076500
  8     10.2904052420     9.1984002770     1.6759476950     0.0001372600     0.0000317100     0.0000924500
  8     -1.4795152370     9.1984002770     8.3590399870    -0.0001366600     0.0000263700    -0.0001076500
  8      3.8244678350     9.1984002770     8.3590399870    -0.0001372600     0.0000317100    -0.0000924500
  8      2.1215806230     7.1521114970     8.3540114950     0.0004107600    -0.0004136400    -0.0006485700
  8      7.4255640560     7.1521114970     8.3540114950     0.0004090500    -0.0004081100    -0.0006537800
  8      1.3853263300     7.1521114970     1.6809755950    -0.0004107600    -0.0004136400     0.0006485700
  8      6.6893097630     7.1521114970     1.6809755950    -0.0004090500    -0.0004081100     0.0006537800
  8      4.0357749010     6.7533344450     1.6667215170    -0.0001528900     0.0003966700     0.0006167200
  8      9.3397580160     6.7533344450     1.6667215170    -0.0001474800     0.0004016600     0.0006243400
  8     -0.5288678960     6.7533344450     8.3682661750     0.0001528900     0.0003966700    -0.0006167200
  8      4.7751150590     6.7533344450     8.3682661750     0.0001474800     0.0004016600    -0.0006243400
  8      2.3503865720     4.6880807140     1.6407394190    -0.0000822600    -0.0001191400     0.0002262600
  8      7.6543699940     4.6880807140     1.6407394190    -0.0000886900    -0.0001176500     0.0002239800
  8      1.1565203640     4.6880807140     8.3942478310     0.0000822600    -0.0001191400    -0.0002262600
  8      6.4605037860     4.6880807140     8.3942478310     0.0000886900    -0.0001176500    -0.0002239800
  8     -0.7593916170     2.5501095570     8.4402914250    -0.0000244600     0.0001818000    -0.0002612100
  8      4.5445914970     2.5501095570     8.4402914250    -0.0000335500     0.0001792800    -0.0002629600
  8      4.2662984360     2.5501095570     1.5946964180     0.0000244600     0.0001818000     0.0002612100
  8      9.5702815510     2.5501095570     1.5946964180     0.0000335500     0.0001792800     0.0002629600
  8     -0.0769577850     4.6442085070     3.9300218490     0.0002656400     0.0000623300     0.0003549400
  8      5.2270251390     4.6442085070     3.9300218490     0.0002287200     0.0000605800     0.0003333000
  8      3.5838646470     4.6442085070     6.1049651000    -0.0002656400     0.0000623300    -0.0003549400
  8      8.8878474440     4.6442085070     6.1049651000    -0.0002287200     0.0000605800    -0.0003333000
  8      2.6459822950     9.2159555320     3.9816525930     0.0001503700     0.0000308900    -0.0000148300
  8      7.9499657280     9.2159555320     3.9816525930     0.0001497400     0.0000271600    -0.0000027700
  8      0.8609247880     9.2159555320     6.0533355500    -0.0001503700     0.0000308900     0.0000148300
  8      6.1649079030     9.2159555320     6.0533355500    -0.0001497400     0.0000271600     0.0000027700
  1      0.0177797060     4.5578949770     2.9728113820    -0.0002465900    -0.0001407900    -0.0007305600
  1      5.3217629690     4.5578949770     2.9728113820    -0.0002443600    -0.0001441700    -0.0007446600
  1      3.4891272820     4.5578949770     7.0621764600     0.0002465900    -0.0001407900     0.0007305600
  1      8.7931100790     4.5578949770     7.0621764600     0.0002443600    -0.0001441700     0.0007446600
  1      2.6217763210     0.1536269750     3.0300125270    -0.0000963600     0.0001933200    -0.0000691600
  1      7.9257591170     0.1536269750     3.0300125270    -0.0000970000     0.0001937200    -0.0000696500
  1      0.8851306060     0.1536269750     7.0049747130     0.0000963600     0.0001933200     0.0000691600
  1      6.1891134130     0.1536269750     7.0049747130     0.0000970000     0.0001937200     0.0000696500
 CONVCOORD
          88           1
 19      0.0000000000     4.5938046340     0.0000000000
 19      5.3039831150     4.5938046340     0.0000000000
 19      2.6519918750     0.0051624740     0.0000000000
 19      7.9559746720     0.0051624740     0.0000000000
 12      4.4054446810     0.0337748840     5.0174937710
 12     -0.8985371720     0.0337748840     5.0174937710
 12      4.4054446810     3.0589189780     5.0174937710
 12     -0.8985371720     3.0589189780     5.0174937710
 12      4.4054446810     6.1419430410     5.0174937710
 12     -0.8985371720     6.1419430410     5.0174937710
 12      1.7534535900     7.7107073710     5.0174937710
 12      7.0574368640     7.7107073710     5.0174937710
 12      1.7534535900     1.5556759530     5.0174937710
 12      7.0574368640     1.5556759530     5.0174937710
 26      1.7534535900     4.5422387430     5.0174937710
 26      7.0574368640     4.5422387430     5.0174937710
 14      0.0472328140     1.5196332470     2.2306439740
 14      5.3512160140     1.5196332470     2.2306439740
 14      3.4596740270     1.5196332470     7.8043432660
 14      8.7636571420     1.5196332470     7.8043432660
 14      3.5635686540     7.6969562080     7.7473155760
 14      8.8675520870     7.6969562080     7.7473155760
 14     -0.0566616760     7.6969562080     2.2876722660
 14      5.2473215980     7.6969562080     2.2876722660
 14      2.5951721540     6.1591189420     2.2699364590
 14      7.8991552680     6.1591189420     2.2699364590
 14      0.9117348240     6.1591189420     7.7650513830
 14      6.2157177800     6.1591189420     7.7650513830
 13      0.8026126520     3.0529379310     7.7896369920
 13      6.1065960850     3.0529379310     7.7896369920
 13      2.7042939570     3.0529379310     2.2453502480
 13      8.0082770710     3.0529379310     2.2453502480
  8     -0.0126918950     1.4997978090     3.8617773910
  8      5.2912909760     1.4997978090     3.8617773910
  8      3.5195988010     1.4997978090     6.1732095480
  8      8.8235815980     1.4997978090     6.1732095480
  8      3.5373820550     7.6854883920     6.1294801230
  8      8.8413648510     7.6854883920     6.1294801230
  8     -0.0304749150     7.6854883920     3.9055068160
  8      5.2735083590     7.6854883920     3.9055068160
  8      2.6350798340     6.2206624070     3.8932292600
  8      7.9390626300     6.2206624070     3.8932292600
  8      0.8718275190     6.2206624070     6.1417573780
  8      6.1758106340     6.2206624070     6.1417573780
  8      0.8232954360     3.0269162360     6.0552866530
  8      6.1272783910     3.0269162360     6.0552866530
  8      2.6836115960     3.0269162360     3.9797008880
  8      7.9875947110     3.0269162360     3.9797008880
  8      1.5292416390     1.8701781500     1.6569188800
  8      6.8332249130     1.8701781500     1.6569188800
  8      1.9776654470     1.8701781500     8.3780683610
  8      7.2816488800     1.8701781500     8.3780683610
  8      4.9864221280     9.1984002770     1.6759476950
  8     10.2904052420     9.1984002770     1.6759476950
  8     -1.4795152370     9.1984002770     8.3590399870
  8      3.8244678350     9.1984002770     8.3590399870
  8      2.1215806230     7.1521114970     8.3540114950
  8      7.4255640560     7.1521114970     8.3540114950
  8      1.3853263300     7.1521114970     1.6809755950
  8      6.6893097630     7.1521114970     1.6809755950
  8      4.0357749010     6.7533344450     1.6667215170
  8      9.3397580160     6.7533344450     1.6667215170
  8     -0.5288678960     6.7533344450     8.3682661750
  8      4.7751150590     6.7533344450     8.3682661750
  8      2.3503865720     4.6880807140     1.6407394190
  8      7.6543699940     4.6880807140     1.6407394190
  8      1.1565203640     4.6880807140     8.3942478310
  8      6.4605037860     4.6880807140     8.3942478310
  8     -0.7593916170     2.5501095570     8.4402914250
  8      4.5445914970     2.5501095570     8.4402914250
  8      4.2662984360     2.5501095570     1.5946964180
  8      9.5702815510     2.5501095570     1.5946964180
  8     -0.0769577850     4.6442085070     3.9300218490
  8      5.2270251390     4.6442085070     3.9300218490
  8      3.5838646470     4.6442085070     6.1049651000
  8      8.8878474440     4.6442085070     6.1049651000
  8      2.6459822950     9.2159555320     3.9816525930
  8      7.9499657280     9.2159555320     3.9816525930
  8      0.8609247880     9.2159555320     6.0533355500
  8      6.1649079030     9.2159555320     6.0533355500
  1      0.0177797060     4.5578949770     2.9728113820
  1      5.3217629690     4.5578949770     2.9728113820
  1      3.4891272820     4.5578949770     7.0621764600
  1      8.7931100790     4.5578949770     7.0621764600
  1      2.6217763210     0.1536269750     3.0300125270
  1      7.9257591170     0.1536269750     3.0300125270
  1      0.8851306060     0.1536269750     7.0049747130
  1      6.1891134130     0.1536269750     7.0049747130
 RECIP-PRIMVEC
    0.0942687767   -0.0000000000    0.0168817350

    0.0000000000    0.1084106164   -0.0000000000

    0.0000000000    0.0000000000    0.0996513445

 RECIP-CONVVEC
    0.0942687767   -0.0000000000    0.0168817350

    0.0000000000    0.1084106164   -0.0000000000

    0.0000000000    0.0000000000    0.0996513445

 WIGNER-SEITZ-PRIMCELL
           6
 -0.5303983E+01 -0.4612094E+01  0.4228563E+01  -0.0000000E+00 -0.1000000E+01 -0.0000000E+00
 -0.5303983E+01 -0.4612094E+01 -0.4228563E+01  -0.0000000E+00 -0.1000000E+01 -0.0000000E+00
 -0.3506909E+01 -0.4612094E+01 -0.5806425E+01  -0.0000000E+00 -0.1000000E+01 -0.0000000E+00
  0.5303983E+01 -0.4612094E+01 -0.4228563E+01  -0.0000000E+00 -0.1000000E+01 -0.0000000E+00
  0.5303983E+01 -0.4612094E+01  0.4228563E+01  -0.0000000E+00 -0.1000000E+01 -0.0000000E+00
  0.3506909E+01 -0.4612094E+01  0.5806425E+01  -0.0000000E+00 -0.1000000E+01 -0.0000000E+00
           4
  0.3506909E+01 -0.4612094E+01  0.5806425E+01   0.6597878E+00 -0.7273227E-16  0.7514520E+00
  0.5303983E+01 -0.4612094E+01  0.4228563E+01   0.6597878E+00 -0.7273227E-16  0.7514520E+00
  0.5303983E+01  0.4612094E+01  0.4228563E+01   0.6597878E+00 -0.7273227E-16  0.7514520E+00
  0.3506909E+01  0.4612094E+01  0.5806425E+01   0.6597878E+00 -0.7273227E-16  0.7514520E+00
           4
  0.3506909E+01  0.4612094E+01  0.5806425E+01  -0.1762766E+00  0.2359664E-16  0.9843407E+00
 -0.5303983E+01  0.4612094E+01  0.4228563E+01  -0.1762766E+00  0.2359664E-16  0.9843407E+00
 -0.5303983E+01 -0.4612094E+01  0.4228563E+01  -0.1762766E+00  0.2359664E-16  0.9843407E+00
  0.3506909E+01 -0.4612094E+01  0.5806425E+01  -0.1762766E+00  0.2359664E-16  0.9843407E+00
           4
  0.5303983E+01 -0.4612094E+01  0.4228563E+01   0.1000000E+01  0.0000000E+00  0.0000000E+00
  0.5303983E+01 -0.4612094E+01 -0.4228563E+01   0.1000000E+01  0.0000000E+00  0.0000000E+00
  0.5303983E+01  0.4612094E+01 -0.4228563E+01   0.1000000E+01  0.0000000E+00  0.0000000E+00
  0.5303983E+01  0.4612094E+01  0.4228563E+01   0.1000000E+01  0.0000000E+00  0.0000000E+00
           4
 -0.5303983E+01  0.4612094E+01  0.4228563E+01  -0.1000000E+01 -0.0000000E+00 -0.0000000E+00
 -0.5303983E+01  0.4612094E+01 -0.4228563E+01  -0.1000000E+01 -0.0000000E+00 -0.0000000E+00
 -0.5303983E+01 -0.4612094E+01 -0.4228563E+01  -0.1000000E+01 -0.0000000E+00 -0.0000000E+00
 -0.5303983E+01 -0.4612094E+01  0.4228563E+01  -0.1000000E+01 -0.0000000E+00 -0.0000000E+00
           4
  0.5303983E+01 -0.4612094E+01 -0.4228563E+01   0.1762766E+00 -0.2766103E-16 -0.9843407E+00
 -0.3506909E+01 -0.4612094E+01 -0.5806425E+01   0.1762766E+00 -0.2766103E-16 -0.9843407E+00
 -0.3506909E+01  0.4612094E+01 -0.5806425E+01   0.1762766E+00 -0.2766103E-16 -0.9843407E+00
  0.5303983E+01  0.4612094E+01 -0.4228563E+01   0.1762766E+00 -0.2766103E-16 -0.9843407E+00
           4
 -0.3506909E+01  0.4612094E+01 -0.5806425E+01  -0.6597878E+00 -0.4831572E-15 -0.7514520E+00
 -0.3506909E+01 -0.4612094E+01 -0.5806425E+01  -0.6597878E+00 -0.4831572E-15 -0.7514520E+00
 -0.5303983E+01 -0.4612094E+01 -0.4228563E+01  -0.6597878E+00 -0.4831572E-15 -0.7514520E+00
 -0.5303983E+01  0.4612094E+01 -0.4228563E+01  -0.6597878E+00 -0.4831572E-15 -0.7514520E+00
           6
  0.3506909E+01  0.4612094E+01  0.5806425E+01   0.0000000E+00  0.1000000E+01  0.0000000E+00
  0.5303983E+01  0.4612094E+01  0.4228563E+01   0.0000000E+00  0.1000000E+01  0.0000000E+00
  0.5303983E+01  0.4612094E+01 -0.4228563E+01   0.0000000E+00  0.1000000E+01  0.0000000E+00
 -0.3506909E+01  0.4612094E+01 -0.5806425E+01   0.0000000E+00  0.1000000E+01  0.0000000E+00
 -0.5303983E+01  0.4612094E+01 -0.4228563E+01   0.0000000E+00  0.1000000E+01  0.0000000E+00
 -0.5303983E+01  0.4612094E+01  0.4228563E+01   0.0000000E+00  0.1000000E+01  0.0000000E+00
 WIGNER-SEITZ-PRIMCELL_END
 WIGNER-SEITZ-CONVCELL
           6
 -0.5303983E+01 -0.4612094E+01  0.4228563E+01  -0.0000000E+00 -0.1000000E+01 -0.0000000E+00
 -0.5303983E+01 -0.4612094E+01 -0.4228563E+01  -0.0000000E+00 -0.1000000E+01 -0.0000000E+00
 -0.3506909E+01 -0.4612094E+01 -0.5806425E+01  -0.0000000E+00 -0.1000000E+01 -0.0000000E+00
  0.5303983E+01 -0.4612094E+01 -0.4228563E+01  -0.0000000E+00 -0.1000000E+01 -0.0000000E+00
  0.5303983E+01 -0.4612094E+01  0.4228563E+01  -0.0000000E+00 -0.1000000E+01 -0.0000000E+00
  0.3506909E+01 -0.4612094E+01  0.5806425E+01  -0.0000000E+00 -0.1000000E+01 -0.0000000E+00
           4
  0.3506909E+01 -0.4612094E+01  0.5806425E+01   0.6597878E+00 -0.7273227E-16  0.7514520E+00
  0.5303983E+01 -0.4612094E+01  0.4228563E+01   0.6597878E+00 -0.7273227E-16  0.7514520E+00
  0.5303983E+01  0.4612094E+01  0.4228563E+01   0.6597878E+00 -0.7273227E-16  0.7514520E+00
  0.3506909E+01  0.4612094E+01  0.5806425E+01   0.6597878E+00 -0.7273227E-16  0.7514520E+00
           4
  0.3506909E+01  0.4612094E+01  0.5806425E+01  -0.1762766E+00  0.2359664E-16  0.9843407E+00
 -0.5303983E+01  0.4612094E+01  0.4228563E+01  -0.1762766E+00  0.2359664E-16  0.9843407E+00
 -0.5303983E+01 -0.4612094E+01  0.4228563E+01  -0.1762766E+00  0.2359664E-16  0.9843407E+00
  0.3506909E+01 -0.4612094E+01  0.5806425E+01  -0.1762766E+00  0.2359664E-16  0.9843407E+00
           4
  0.5303983E+01 -0.4612094E+01  0.4228563E+01   0.1000000E+01  0.0000000E+00  0.0000000E+00
  0.5303983E+01 -0.4612094E+01 -0.4228563E+01   0.1000000E+01  0.0000000E+00  0.0000000E+00
  0.5303983E+01  0.4612094E+01 -0.4228563E+01   0.1000000E+01  0.0000000E+00  0.0000000E+00
  0.5303983E+01  0.4612094E+01  0.4228563E+01   0.1000000E+01  0.0000000E+00  0.0000000E+00
           4
 -0.5303983E+01  0.4612094E+01  0.4228563E+01  -0.1000000E+01 -0.0000000E+00 -0.0000000E+00
 -0.5303983E+01  0.4612094E+01 -0.4228563E+01  -0.1000000E+01 -0.0000000E+00 -0.0000000E+00
 -0.5303983E+01 -0.4612094E+01 -0.4228563E+01  -0.1000000E+01 -0.0000000E+00 -0.0000000E+00
 -0.5303983E+01 -0.4612094E+01  0.4228563E+01  -0.1000000E+01 -0.0000000E+00 -0.0000000E+00
           4
  0.5303983E+01 -0.4612094E+01 -0.4228563E+01   0.1762766E+00 -0.2766103E-16 -0.9843407E+00
 -0.3506909E+01 -0.4612094E+01 -0.5806425E+01   0.1762766E+00 -0.2766103E-16 -0.9843407E+00
 -0.3506909E+01  0.4612094E+01 -0.5806425E+01   0.1762766E+00 -0.2766103E-16 -0.9843407E+00
  0.5303983E+01  0.4612094E+01 -0.4228563E+01   0.1762766E+00 -0.2766103E-16 -0.9843407E+00
           4
 -0.3506909E+01  0.4612094E+01 -0.5806425E+01  -0.6597878E+00 -0.4831572E-15 -0.7514520E+00
 -0.3506909E+01 -0.4612094E+01 -0.5806425E+01  -0.6597878E+00 -0.4831572E-15 -0.7514520E+00
 -0.5303983E+01 -0.4612094E+01 -0.4228563E+01  -0.6597878E+00 -0.4831572E-15 -0.7514520E+00
 -0.5303983E+01  0.4612094E+01 -0.4228563E+01  -0.6597878E+00 -0.4831572E-15 -0.7514520E+00
           6
  0.3506909E+01  0.4612094E+01  0.5806425E+01   0.0000000E+00  0.1000000E+01  0.0000000E+00
  0.5303983E+01  0.4612094E+01  0.4228563E+01   0.0000000E+00  0.1000000E+01  0.0000000E+00
  0.5303983E+01  0.4612094E+01 -0.4228563E+01   0.0000000E+00  0.1000000E+01  0.0000000E+00
 -0.3506909E+01  0.4612094E+01 -0.5806425E+01   0.0000000E+00  0.1000000E+01  0.0000000E+00
 -0.5303983E+01  0.4612094E+01 -0.4228563E+01   0.0000000E+00  0.1000000E+01  0.0000000E+00
 -0.5303983E+01  0.4612094E+01  0.4228563E+01   0.0000000E+00  0.1000000E+01  0.0000000E+00
 WIGNER-SEITZ-CONVCELL_END
 BRILLOUIN-ZONE-PRIMCELL
           4
 -0.5454562E-01  0.5420531E-01  0.3294394E-01  -0.9843407E+00  0.0000000E+00 -0.1762766E+00
 -0.3972316E-01  0.5420531E-01 -0.4982567E-01  -0.9843407E+00  0.0000000E+00 -0.1762766E+00
 -0.3972316E-01 -0.5420531E-01 -0.4982567E-01  -0.9843407E+00  0.0000000E+00 -0.1762766E+00
 -0.5454562E-01 -0.5420531E-01  0.3294394E-01  -0.9843407E+00  0.0000000E+00 -0.1762766E+00
           4
 -0.5454562E-01  0.5420531E-01  0.3294394E-01  -0.7514520E+00 -0.4451666E-16  0.6597878E+00
 -0.5454562E-01 -0.5420531E-01  0.3294394E-01  -0.7514520E+00 -0.4451666E-16  0.6597878E+00
 -0.3972316E-01 -0.5420531E-01  0.4982567E-01  -0.7514520E+00 -0.4451666E-16  0.6597878E+00
 -0.3972316E-01  0.5420531E-01  0.4982567E-01  -0.7514520E+00 -0.4451666E-16  0.6597878E+00
           6
  0.3972316E-01 -0.5420531E-01  0.4982567E-01   0.0000000E+00 -0.1000000E+01 -0.6467097E-15
 -0.3972316E-01 -0.5420531E-01  0.4982567E-01   0.0000000E+00 -0.1000000E+01 -0.6467097E-15
 -0.5454562E-01 -0.5420531E-01  0.3294394E-01   0.0000000E+00 -0.1000000E+01 -0.6467097E-15
 -0.3972316E-01 -0.5420531E-01 -0.4982567E-01   0.0000000E+00 -0.1000000E+01 -0.6467097E-15
  0.3972316E-01 -0.5420531E-01 -0.4982567E-01   0.0000000E+00 -0.1000000E+01 -0.6467097E-15
  0.5454562E-01 -0.5420531E-01 -0.3294394E-01   0.0000000E+00 -0.1000000E+01 -0.6467097E-15
           4
 -0.3972316E-01  0.5420531E-01 -0.4982567E-01  -0.1007058E-15 -0.2042206E-16 -0.1000000E+01
  0.3972316E-01  0.5420531E-01 -0.4982567E-01  -0.1007058E-15 -0.2042206E-16 -0.1000000E+01
  0.3972316E-01 -0.5420531E-01 -0.4982567E-01  -0.1007058E-15 -0.2042206E-16 -0.1000000E+01
 -0.3972316E-01 -0.5420531E-01 -0.4982567E-01  -0.1007058E-15 -0.2042206E-16 -0.1000000E+01
           4
 -0.3972316E-01 -0.5420531E-01  0.4982567E-01  -0.0000000E+00 -0.0000000E+00  0.1000000E+01
  0.3972316E-01 -0.5420531E-01  0.4982567E-01  -0.0000000E+00 -0.0000000E+00  0.1000000E+01
  0.3972316E-01  0.5420531E-01  0.4982567E-01  -0.0000000E+00 -0.0000000E+00  0.1000000E+01
 -0.3972316E-01  0.5420531E-01  0.4982567E-01  -0.0000000E+00 -0.0000000E+00  0.1000000E+01
           6
  0.5454562E-01  0.5420531E-01 -0.3294394E-01   0.0000000E+00  0.1000000E+01 -0.6467097E-15
  0.3972316E-01  0.5420531E-01 -0.4982567E-01   0.0000000E+00  0.1000000E+01 -0.6467097E-15
 -0.3972316E-01  0.5420531E-01 -0.4982567E-01   0.0000000E+00  0.1000000E+01 -0.6467097E-15
 -0.5454562E-01  0.5420531E-01  0.3294394E-01   0.0000000E+00  0.1000000E+01 -0.6467097E-15
 -0.3972316E-01  0.5420531E-01  0.4982567E-01   0.0000000E+00  0.1000000E+01 -0.6467097E-15
  0.3972316E-01  0.5420531E-01  0.4982567E-01   0.0000000E+00  0.1000000E+01 -0.6467097E-15
           4
  0.5454562E-01 -0.5420531E-01 -0.3294394E-01   0.7514520E+00  0.6972877E-16 -0.6597878E+00
  0.3972316E-01 -0.5420531E-01 -0.4982567E-01   0.7514520E+00  0.6972877E-16 -0.6597878E+00
  0.3972316E-01  0.5420531E-01 -0.4982567E-01   0.7514520E+00  0.6972877E-16 -0.6597878E+00
  0.5454562E-01  0.5420531E-01 -0.3294394E-01   0.7514520E+00  0.6972877E-16 -0.6597878E+00
           4
  0.3972316E-01 -0.5420531E-01  0.4982567E-01   0.9843407E+00 -0.9739475E-16  0.1762766E+00
  0.5454562E-01 -0.5420531E-01 -0.3294394E-01   0.9843407E+00 -0.9739475E-16  0.1762766E+00
  0.5454562E-01  0.5420531E-01 -0.3294394E-01   0.9843407E+00 -0.9739475E-16  0.1762766E+00
  0.3972316E-01  0.5420531E-01  0.4982567E-01   0.9843407E+00 -0.9739475E-16  0.1762766E+00
 BRILLOUIN-ZONE-PRIMCELL_END
 BRILLOUIN-ZONE-CONVCELL
           4
 -0.5454562E-01  0.5420531E-01  0.3294394E-01  -0.9843407E+00  0.0000000E+00 -0.1762766E+00
 -0.3972316E-01  0.5420531E-01 -0.4982567E-01  -0.9843407E+00  0.0000000E+00 -0.1762766E+00
 -0.3972316E-01 -0.5420531E-01 -0.4982567E-01  -0.9843407E+00  0.0000000E+00 -0.1762766E+00
 -0.5454562E-01 -0.5420531E-01  0.3294394E-01  -0.9843407E+00  0.0000000E+00 -0.1762766E+00
           4
 -0.5454562E-01  0.5420531E-01  0.3294394E-01  -0.7514520E+00 -0.4451666E-16  0.6597878E+00
 -0.5454562E-01 -0.5420531E-01  0.3294394E-01  -0.7514520E+00 -0.4451666E-16  0.6597878E+00
 -0.3972316E-01 -0.5420531E-01  0.4982567E-01  -0.7514520E+00 -0.4451666E-16  0.6597878E+00
 -0.3972316E-01  0.5420531E-01  0.4982567E-01  -0.7514520E+00 -0.4451666E-16  0.6597878E+00
           6
  0.3972316E-01 -0.5420531E-01  0.4982567E-01   0.0000000E+00 -0.1000000E+01 -0.6467097E-15
 -0.3972316E-01 -0.5420531E-01  0.4982567E-01   0.0000000E+00 -0.1000000E+01 -0.6467097E-15
 -0.5454562E-01 -0.5420531E-01  0.3294394E-01   0.0000000E+00 -0.1000000E+01 -0.6467097E-15
 -0.3972316E-01 -0.5420531E-01 -0.4982567E-01   0.0000000E+00 -0.1000000E+01 -0.6467097E-15
  0.3972316E-01 -0.5420531E-01 -0.4982567E-01   0.0000000E+00 -0.1000000E+01 -0.6467097E-15
  0.5454562E-01 -0.5420531E-01 -0.3294394E-01   0.0000000E+00 -0.1000000E+01 -0.6467097E-15
           4
 -0.3972316E-01  0.5420531E-01 -0.4982567E-01  -0.1007058E-15 -0.2042206E-16 -0.1000000E+01
  0.3972316E-01  0.5420531E-01 -0.4982567E-01  -0.1007058E-15 -0.2042206E-16 -0.1000000E+01
  0.3972316E-01 -0.5420531E-01 -0.4982567E-01  -0.1007058E-15 -0.2042206E-16 -0.1000000E+01
 -0.3972316E-01 -0.5420531E-01 -0.4982567E-01  -0.1007058E-15 -0.2042206E-16 -0.1000000E+01
           4
 -0.3972316E-01 -0.5420531E-01  0.4982567E-01  -0.0000000E+00 -0.0000000E+00  0.1000000E+01
  0.3972316E-01 -0.5420531E-01  0.4982567E-01  -0.0000000E+00 -0.0000000E+00  0.1000000E+01
  0.3972316E-01  0.5420531E-01  0.4982567E-01  -0.0000000E+00 -0.0000000E+00  0.1000000E+01
 -0.3972316E-01  0.5420531E-01  0.4982567E-01  -0.0000000E+00 -0.0000000E+00  0.1000000E+01
           6
  0.5454562E-01  0.5420531E-01 -0.3294394E-01   0.0000000E+00  0.1000000E+01 -0.6467097E-15
  0.3972316E-01  0.5420531E-01 -0.4982567E-01   0.0000000E+00  0.1000000E+01 -0.6467097E-15
 -0.3972316E-01  0.5420531E-01 -0.4982567E-01   0.0000000E+00  0.1000000E+01 -0.6467097E-15
 -0.5454562E-01  0.5420531E-01  0.3294394E-01   0.0000000E+00  0.1000000E+01 -0.6467097E-15
 -0.3972316E-01  0.5420531E-01  0.4982567E-01   0.0000000E+00  0.1000000E+01 -0.6467097E-15
  0.3972316E-01  0.5420531E-01  0.4982567E-01   0.0000000E+00  0.1000000E+01 -0.6467097E-15
           4
  0.5454562E-01 -0.5420531E-01 -0.3294394E-01   0.7514520E+00  0.6972877E-16 -0.6597878E+00
  0.3972316E-01 -0.5420531E-01 -0.4982567E-01   0.7514520E+00  0.6972877E-16 -0.6597878E+00
  0.3972316E-01  0.5420531E-01 -0.4982567E-01   0.7514520E+00  0.6972877E-16 -0.6597878E+00
  0.5454562E-01  0.5420531E-01 -0.3294394E-01   0.7514520E+00  0.6972877E-16 -0.6597878E+00
           4
  0.3972316E-01 -0.5420531E-01  0.4982567E-01   0.9843407E+00 -0.9739475E-16  0.1762766E+00
  0.5454562E-01 -0.5420531E-01 -0.3294394E-01   0.9843407E+00 -0.9739475E-16  0.1762766E+00
  0.5454562E-01  0.5420531E-01 -0.3294394E-01   0.9843407E+00 -0.9739475E-16  0.1762766E+00
  0.3972316E-01  0.5420531E-01  0.4982567E-01   0.9843407E+00 -0.9739475E-16  0.1762766E+00
 BRILLOUIN-ZONE-CONVCELL_END
 ATOMS
   19    0.0000000000    4.5938046340    0.0000000000   -0.0000111800   -0.0002986500    0.0000007000
   19    5.3039831150    4.5938046340    0.0000000000    0.0000111800   -0.0002986500   -0.0000007000
   19    2.6519918750    0.0051624740    0.0000000000    0.0000000000    0.0002438600    0.0000000000
   19    7.9559746720    0.0051624740    0.0000000000    0.0000000000    0.0002396300    0.0000000000
   12    4.4054446810    0.0337748840    5.0174937710   -0.0000054100   -0.0001454500   -0.0000015600
   12   -0.8985371720    0.0337748840    5.0174937710    0.0000054100   -0.0001454500    0.0000015600
   12    4.4054446810    3.0589189780    5.0174937710   -0.0000124300   -0.0000094400    0.0000231700
   12   -0.8985371720    3.0589189780    5.0174937710    0.0000124300   -0.0000094400   -0.0000231700
   12    4.4054446810    6.1419430410    5.0174937710   -0.0000293600   -0.0003321300    0.0000149000