 INFO
nunit      1    1    1
unit   cell
celltype   primcell
shape   parapipedal
 END_INFO
 DIM-GROUP
           3           1
 PRIMVEC
   10.6563721850    0.0000000000    0.0000000000
    0.0000000000    9.2662484340    0.0000000000
   -1.9192978810    0.0000000000   10.2488618560
 CONVVEC
   10.6563721850    0.0000000000    0.0000000000
    0.0000000000    9.2662484340    0.0000000000
   -1.9192978810    0.0000000000   10.2488618560
 PRIMCOORD
          88           1
 19      0.0000000000     4.5442377010     0.0000000000     0.0000000000    -0.0000260000     0.0000000000
 19      5.3281860930     4.5442377010     0.0000000000     0.0000000000    -0.0000259300     0.0000000000
 19      2.6640930460     0.0519079020     0.0000000000     0.0000001000    -0.0000542100     0.0000000000
 19      7.9922791390     0.0519079020     0.0000000000    -0.0000001000    -0.0000542100    -0.0000000000
 12     -0.9596465940     0.0564597610     5.1244290940     0.0000000000     0.0001745300     0.0000000000
 12      4.3685394030     0.0564597610     5.1244290940     0.0000000000     0.0001759100     0.0000000000
 12     -0.9596465940     6.1825003240     5.1244290940     0.0000000000    -0.0000541600     0.0000000000
 12      4.3685394030     6.1825003240     5.1244290940     0.0000000000    -0.0000550500     0.0000000000
 12      1.7044466760     4.5953392080     5.1244290940     0.0000013200    -0.0001271800    -0.0000000900
 12      7.0326330780     4.5953392080     5.1244290940    -0.0000013200    -0.0001271800     0.0000000900
 12      1.7044466760     7.7421107520     5.1244290940     0.0000002700     0.0000019700    -0.0000001100
 12      7.0326330780     7.7421107520     5.1244290940    -0.0000002700     0.0000019700     0.0000001100
 12      1.7044466760     1.5797663530     5.1244290940     0.0000014500     0.0000058100    -0.0000002300
 12      7.0326330780     1.5797663530     5.1244290940    -0.0000014500     0.0000058100     0.0000002300
 14      0.0377703110     1.5122547000     2.3077266210     0.0000766100     0.0000676400    -0.0000394700
 14      5.3659565640     1.5122547000     2.3077266210     0.0000766300     0.0000673100    -0.0000393800
 14      3.3711227560     1.5122547000     7.9411321810    -0.0000766300     0.0000673100     0.0000393800
 14      8.6993088480     1.5122547000     7.9411321810    -0.0000766100     0.0000676400     0.0000394700
 14      3.5145502190     7.7300974310     7.8644014120     0.0000650900    -0.0000513900    -0.0000339000
 14      8.8427363110     7.7300974310     7.8644014120     0.0000652300    -0.0000514600    -0.0000336200
 14     -0.1056567940     7.7300974310     2.3844567850    -0.0000652300    -0.0000514600     0.0000336200
 14      5.2225292140     7.7300974310     2.3844567850    -0.0000650900    -0.0000513900     0.0000339000
 14      2.5581473540     6.1770583950     2.3697034260    -0.0000614400     0.0000129700     0.0000687900
 14      7.8863337560     6.1770583950     2.3697034260    -0.0000614400     0.0000131500     0.0000686400
 14      0.8507455170     6.1770583950     7.8791547720     0.0000614400     0.0000131500    -0.0000686400
 14      6.1789317690     6.1770583950     7.8791547720     0.0000614400     0.0000129700    -0.0000687900
 13      0.7045750450     3.0644359880     7.9109095180    -0.0000007500     0.0000677800     0.0000665100
 13      6.0327612970     3.0644359880     7.9109095180    -0.0000003400     0.0000677100     0.0000665100
 13      2.7043184570     3.0644359880     2.3379486700     0.0000003400     0.0000677100    -0.0000665100
 13      8.0325042300     3.0644359880     2.3379486700     0.0000007500     0.0000677800    -0.0000665100
  8     -0.0169409670     1.4614445330     3.9366699020     0.0000724900    -0.0001119100     0.0000058300
  8      5.3112452860     1.4614445330     3.9366699020     0.0000721200    -0.0001122600     0.0000068900
  8      3.4258340340     1.4614445330     6.3121889010    -0.0000721200    -0.0001122600    -0.0000068900
  8      8.7540201260     1.4614445330     6.3121889010    -0.0000724900    -0.0001119100    -0.0000058300
  8      3.4949252040     7.7334516190     6.2437978560     0.0000065300    -0.0000123700    -0.0000440600
  8      8.8231112960     7.7334516190     6.2437978560     0.0000064700    -0.0000130300    -0.0000444300
  8     -0.0860319520     7.7334516190     4.0050606390    -0.0000064700    -0.0000130300     0.0000444300
  8      5.2421541840     7.7334516190     4.0050606390    -0.0000065300    -0.0000123700     0.0000440600
  8      2.5866017450     6.2066893560     3.9981170760     0.0000348100    -0.0000035600     0.0000499500
  8      7.9147878370     6.2066893560     3.9981170760     0.0000345000    -0.0000031200     0.0000510900
  8      0.8222911730     6.2066893560     6.2507417260    -0.0000345000    -0.0000031200    -0.0000510900
  8      6.1504775740     6.2066893560     6.2507417260    -0.0000348100    -0.0000035600    -0.0000499500
  8      0.7679377190     3.0880354270     6.1639442590     0.0000579400     0.0000524800     0.0000580000
  8      6.0961241310     3.0880354270     6.1639442590     0.0000592500     0.0000526600     0.0000586000
  8      2.6409556800     3.0880354270     4.0849136210    -0.0000592500     0.0000526600    -0.0000586000
  8      7.9691420930     3.0880354270     4.0849136210    -0.0000579400     0.0000524800    -0.0000580000
  8      1.5141653260     1.8996477380     1.7310581030     0.0001087700    -0.0000062200     0.0000360200
  8      6.8423512590     1.8996477380     1.7310581030     0.0001079200    -0.0000068000     0.0000367400
  8      1.8947279510     1.8996477380     8.5177996340    -0.0001079200    -0.0000068000    -0.0000367400
  8      7.2229143530     1.8996477380     8.5177996340    -0.0001087700    -0.0000062200    -0.0000360200
  8     -0.3062486370     9.2324701690     1.7392006700    -0.0000256900     0.0000396300     0.0000004100
  8      5.0219372310     9.2324701690     1.7392006700    -0.0000249800     0.0000405300     0.0000018500
  8      3.7151418260     9.2324701690     8.5096578250     0.0000249800     0.0000405300    -0.0000018500
  8      9.0433275980     9.2324701690     8.5096578250     0.0000256900     0.0000396300    -0.0000004100
  8      2.0904889770     7.1319104370     8.4643409350     0.0000450300    -0.0000147600     0.0000349600
  8      7.4186750690     7.1319104370     8.4643409350     0.0000448400    -0.0000152000     0.0000350300
  8      1.3184043650     7.1319104370     1.7845172530    -0.0000448400    -0.0000152000    -0.0000350300
  8      6.6465904580     7.1319104370     1.7845172530    -0.0000450300    -0.0000147600    -0.0000349600
  8      3.9750806330     6.8288814470     1.7736597830    -0.0001056900     0.0000080400    -0.0000708600
  8      9.3032667260     6.8288814470     1.7736597830    -0.0001053800     0.0000080900    -0.0000727100
  8     -0.5661874240     6.8288814470     8.4751987120     0.0001053800     0.0000080900     0.0000727100
  8      4.7619987440     6.8288814470     8.4751987120     0.0001056900     0.0000080400     0.0000708600
  8      2.3734468080     4.7017704570     1.7222657070    -0.0000585200    -0.0000411900     0.0000532100
  8      7.7016332200     4.7017704570     1.7222657070    -0.0000588100    -0.0000419400     0.0000513400
  8      1.0354460360     4.7017704570     8.5265926340     0.0000588100    -0.0000419400    -0.0000513400
  8      6.3636322890     4.7017704570     8.5265926340     0.0000585200    -0.0000411900    -0.0000532100
  8     -0.8545258090     2.5403183880     8.5606339110     0.0000242900     0.0000331200    -0.0000851800
  8      4.4736603580     2.5403183880     8.5606339110     0.0000240900     0.0000320100    -0.0000866600
  8      4.2634193380     2.5403183880     1.6882245830    -0.0000240900     0.0000320100     0.0000866600
  8      9.5916051110     2.5403183880     1.6882245830    -0.0000242900     0.0000331200     0.0000851800
  8     -0.0332108380     4.7407835220     4.0332875620    -0.0000726900     0.0000357800    -0.0001158700
  8      5.2949753290     4.7407835220     4.0332875620    -0.0000729800     0.0000348600    -0.0001144600
  8      3.4421040480     4.7407835220     6.2155709330     0.0000729800     0.0000348600     0.0001144600
  8      8.7702901400     4.7407835220     6.2155709330     0.0000726900     0.0000357800     0.0001158700
  8      2.6087531960     9.2621182440     4.0924909740    -0.0001622000    -0.0000368200     0.0000039700
  8      7.9369389800     9.2621182440     4.0924909740    -0.0001637100    -0.0000374800     0.0000024700
  8      0.8001402480     9.2621182440     6.1563675210     0.0001637100    -0.0000374800    -0.0000024700
  8      6.1283265000     9.2621182440     6.1563675210     0.0001622000    -0.0000368200    -0.0000039700
  1     -0.0248384800     4.5626619770     3.0837403190    -0.0000518800    -0.0000091100    -0.0000723500
  1      5.3033478900     4.5626619770     3.0837403190    -0.0000519500    -0.0000091200    -0.0000725900
  1      3.4337318070     4.5626619770     7.1651181750     0.0000519500    -0.0000091200     0.0000725900
  1      8.7619182190     4.5626619770     7.1651181750     0.0000518800    -0.0000091100     0.0000723500
  1      2.5764252510     0.1239350720     3.1350297850    -0.0000220300    -0.0000272700    -0.0000193000
  1      7.9046113430     0.1239350720     3.1350297850    -0.0000221500    -0.0000273600    -0.0000191300
  1      0.8324680340     0.1239350720     7.1138287100     0.0000221500    -0.0000273600     0.0000191300
  1      6.1606541260     0.1239350720     7.1138287100     0.0000220300    -0.0000272700     0.0000193000
 26     -0.9596465940     3.1091312460     5.1244290940     0.0000000000     0.0000780400     0.0000000000
 26      4.3685394030     3.1091312460     5.1244290940     0.0000000000     0.0000771000     0.0000000000
 CONVCOORD
          88           1
 19      0.0000000000     4.5442377010     0.0000000000
 19      5.3281860930     4.5442377010     0.0000000000
 19      2.6640930460     0.0519079020     0.0000000000
 19      7.9922791390     0.0519079020     0.0000000000
 12     -0.9596465940     0.0564597610     5.1244290940
 12      4.3685394030     0.0564597610     5.1244290940
 12     -0.9596465940     6.1825003240     5.1244290940
 12      4.3685394030     6.1825003240     5.1244290940
 12      1.7044466760     4.5953392080     5.1244290940
 12      7.0326330780     4.5953392080     5.1244290940
 12      1.7044466760     7.7421107520     5.1244290940
 12      7.0326330780     7.7421107520     5.1244290940
 12      1.7044466760     1.5797663530     5.1244290940
 12      7.0326330780     1.5797663530     5.1244290940
 14      0.0377703110     1.5122547000     2.3077266210
 14      5.3659565640     1.5122547000     2.3077266210
 14      3.3711227560     1.5122547000     7.9411321810
 14      8.6993088480     1.5122547000     7.9411321810
 14      3.5145502190     7.7300974310     7.8644014120
 14      8.8427363110     7.7300974310     7.8644014120
 14     -0.1056567940     7.7300974310     2.3844567850
 14      5.2225292140     7.7300974310     2.3844567850
 14      2.5581473540     6.1770583950     2.3697034260
 14      7.8863337560     6.1770583950     2.3697034260
 14      0.8507455170     6.1770583950     7.8791547720
 14      6.1789317690     6.1770583950     7.8791547720
 13      0.7045750450     3.0644359880     7.9109095180
 13      6.0327612970     3.0644359880     7.9109095180
 13      2.7043184570     3.0644359880     2.3379486700
 13      8.0325042300     3.0644359880     2.3379486700
  8     -0.0169409670     1.4614445330     3.9366699020
  8      5.3112452860     1.4614445330     3.9366699020
  8      3.4258340340     1.4614445330     6.3121889010
  8      8.7540201260     1.4614445330     6.3121889010
  8      3.4949252040     7.7334516190     6.2437978560
  8      8.8231112960     7.7334516190     6.2437978560
  8     -0.0860319520     7.7334516190     4.0050606390
  8      5.2421541840     7.7334516190     4.0050606390
  8      2.5866017450     6.2066893560     3.9981170760
  8      7.9147878370     6.2066893560     3.9981170760
  8      0.8222911730     6.2066893560     6.2507417260
  8      6.1504775740     6.2066893560     6.2507417260
  8      0.7679377190     3.0880354270     6.1639442590
  8      6.0961241310     3.0880354270     6.1639442590
  8      2.6409556800     3.0880354270     4.0849136210
  8      7.9691420930     3.0880354270     4.0849136210
  8      1.5141653260     1.8996477380     1.7310581030
  8      6.8423512590     1.8996477380     1.7310581030
  8      1.8947279510     1.8996477380     8.5177996340
  8      7.2229143530     1.8996477380     8.5177996340
  8     -0.3062486370     9.2324701690     1.7392006700
  8      5.0219372310     9.2324701690     1.7392006700
  8      3.7151418260     9.2324701690     8.5096578250
  8      9.0433275980     9.2324701690     8.5096578250
  8      2.0904889770     7.1319104370     8.4643409350
  8      7.4186750690     7.1319104370     8.4643409350
  8      1.3184043650     7.1319104370     1.7845172530
  8      6.6465904580     7.1319104370     1.7845172530
  8      3.9750806330     6.8288814470     1.7736597830
  8      9.3032667260     6.8288814470     1.7736597830
  8     -0.5661874240     6.8288814470     8.4751987120
  8      4.7619987440     6.8288814470     8.4751987120
  8      2.3734468080     4.7017704570     1.7222657070
  8      7.7016332200     4.7017704570     1.7222657070
  8      1.0354460360     4.7017704570     8.5265926340
  8      6.3636322890     4.7017704570     8.5265926340
  8     -0.8545258090     2.5403183880     8.5606339110
  8      4.4736603580     2.5403183880     8.5606339110
  8      4.2634193380     2.5403183880     1.6882245830
  8      9.5916051110     2.5403183880     1.6882245830
  8     -0.0332108380     4.7407835220     4.0332875620
  8      5.2949753290     4.7407835220     4.0332875620
  8      3.4421040480     4.7407835220     6.2155709330
  8      8.7702901400     4.7407835220     6.2155709330
  8      2.6087531960     9.2621182440     4.0924909740
  8      7.9369389800     9.2621182440     4.0924909740
  8      0.8001402480     9.2621182440     6.1563675210
  8      6.1283265000     9.2621182440     6.1563675210
  1     -0.0248384800     4.5626619770     3.0837403190
  1      5.3033478900     4.5626619770     3.0837403190
  1      3.4337318070     4.5626619770     7.1651181750
  1      8.7619182190     4.5626619770     7.1651181750
  1      2.5764252510     0.1239350720     3.1350297850
  1      7.9046113430     0.1239350720     3.1350297850
  1      0.8324680340     0.1239350720     7.1138287100
  1      6.1606541260     0.1239350720     7.1138287100
 26     -0.9596465940     3.1091312460     5.1244290940
 26      4.3685394030     3.1091312460     5.1244290940
 RECIP-PRIMVEC
    0.0938405662   -0.0000000000    0.0175734635

    0.0000000000    0.1079185398   -0.0000000000

    0.0000000000    0.0000000000    0.0975718098

 RECIP-CONVVEC
    0.0938405662   -0.0000000000    0.0175734635

    0.0000000000    0.1079185398   -0.0000000000

    0.0000000000    0.0000000000    0.0975718098

 WIGNER-SEITZ-PRIMCELL
           6
 -0.5328186E+01 -0.4633124E+01 -0.4306338E+01   0.0000000E+00 -0.1000000E+01 -0.0000000E+00
 -0.3408888E+01 -0.4633124E+01 -0.5942524E+01   0.0000000E+00 -0.1000000E+01 -0.0000000E+00
  0.5328186E+01 -0.4633124E+01 -0.4306338E+01   0.0000000E+00 -0.1000000E+01 -0.0000000E+00
  0.5328186E+01 -0.4633124E+01  0.4306338E+01   0.0000000E+00 -0.1000000E+01 -0.0000000E+00
  0.3408888E+01 -0.4633124E+01  0.5942524E+01   0.0000000E+00 -0.1000000E+01 -0.0000000E+00
 -0.5328186E+01 -0.4633124E+01  0.4306338E+01   0.0000000E+00 -0.1000000E+01 -0.0000000E+00
           4
  0.3408888E+01 -0.4633124E+01  0.5942524E+01   0.6487488E+00 -0.7382551E-16  0.7610026E+00
  0.5328186E+01 -0.4633124E+01  0.4306338E+01   0.6487488E+00 -0.7382551E-16  0.7610026E+00
  0.5328186E+01  0.4633124E+01  0.4306338E+01   0.6487488E+00 -0.7382551E-16  0.7610026E+00
  0.3408888E+01  0.4633124E+01  0.5942524E+01   0.6487488E+00 -0.7382551E-16  0.7610026E+00
           4
 -0.5328186E+01  0.4633124E+01  0.4306338E+01  -0.1840695E+00 -0.0000000E+00  0.9829132E+00
 -0.5328186E+01 -0.4633124E+01  0.4306338E+01  -0.1840695E+00 -0.0000000E+00  0.9829132E+00
  0.3408888E+01 -0.4633124E+01  0.5942524E+01  -0.1840695E+00 -0.0000000E+00  0.9829132E+00
  0.3408888E+01  0.4633124E+01  0.5942524E+01  -0.1840695E+00 -0.0000000E+00  0.9829132E+00
           4
  0.5328186E+01 -0.4633124E+01  0.4306338E+01   0.1000000E+01  0.9585092E-16 -0.1031246E-15
  0.5328186E+01 -0.4633124E+01 -0.4306338E+01   0.1000000E+01  0.9585092E-16 -0.1031246E-15
  0.5328186E+01  0.4633124E+01 -0.4306338E+01   0.1000000E+01  0.9585092E-16 -0.1031246E-15
  0.5328186E+01  0.4633124E+01  0.4306338E+01   0.1000000E+01  0.9585092E-16 -0.1031246E-15
           4
 -0.5328186E+01  0.4633124E+01  0.4306338E+01  -0.1000000E+01  0.9585092E-16 -0.1031246E-15
 -0.5328186E+01  0.4633124E+01 -0.4306338E+01  -0.1000000E+01  0.9585092E-16 -0.1031246E-15
 -0.5328186E+01 -0.4633124E+01 -0.4306338E+01  -0.1000000E+01  0.9585092E-16 -0.1031246E-15
 -0.5328186E+01 -0.4633124E+01  0.4306338E+01  -0.1000000E+01  0.9585092E-16 -0.1031246E-15
           4
  0.5328186E+01 -0.4633124E+01 -0.4306338E+01   0.1840695E+00 -0.9287172E-16 -0.9829132E+00
 -0.3408888E+01 -0.4633124E+01 -0.5942524E+01   0.1840695E+00 -0.9287172E-16 -0.9829132E+00
 -0.3408888E+01  0.4633124E+01 -0.5942524E+01   0.1840695E+00 -0.9287172E-16 -0.9829132E+00
  0.5328186E+01  0.4633124E+01 -0.4306338E+01   0.1840695E+00 -0.9287172E-16 -0.9829132E+00
           4
 -0.5328186E+01  0.4633124E+01 -0.4306338E+01  -0.6487488E+00 -0.2574701E-15 -0.7610026E+00
 -0.3408888E+01  0.4633124E+01 -0.5942524E+01  -0.6487488E+00 -0.2574701E-15 -0.7610026E+00
 -0.3408888E+01 -0.4633124E+01 -0.5942524E+01  -0.6487488E+00 -0.2574701E-15 -0.7610026E+00
 -0.5328186E+01 -0.4633124E+01 -0.4306338E+01  -0.6487488E+00 -0.2574701E-15 -0.7610026E+00
           6
  0.3408888E+01  0.4633124E+01  0.5942524E+01   0.0000000E+00  0.1000000E+01  0.0000000E+00
  0.5328186E+01  0.4633124E+01  0.4306338E+01   0.0000000E+00  0.1000000E+01  0.0000000E+00
  0.5328186E+01  0.4633124E+01 -0.4306338E+01   0.0000000E+00  0.1000000E+01  0.0000000E+00
 -0.3408888E+01  0.4633124E+01 -0.5942524E+01   0.0000000E+00  0.1000000E+01  0.0000000E+00
 -0.5328186E+01  0.4633124E+01 -0.4306338E+01   0.0000000E+00  0.1000000E+01  0.0000000E+00
 -0.5328186E+01  0.4633124E+01  0.4306338E+01   0.0000000E+00  0.1000000E+01  0.0000000E+00
 WIGNER-SEITZ-PRIMCELL_END
 WIGNER-SEITZ-CONVCELL
           6
 -0.5328186E+01 -0.4633124E+01 -0.4306338E+01   0.0000000E+00 -0.1000000E+01 -0.0000000E+00
 -0.3408888E+01 -0.4633124E+01 -0.5942524E+01   0.0000000E+00 -0.1000000E+01 -0.0000000E+00
  0.5328186E+01 -0.4633124E+01 -0.4306338E+01   0.0000000E+00 -0.1000000E+01 -0.0000000E+00
  0.5328186E+01 -0.4633124E+01  0.4306338E+01   0.0000000E+00 -0.1000000E+01 -0.0000000E+00
  0.3408888E+01 -0.4633124E+01  0.5942524E+01   0.0000000E+00 -0.1000000E+01 -0.0000000E+00
 -0.5328186E+01 -0.4633124E+01  0.4306338E+01   0.0000000E+00 -0.1000000E+01 -0.0000000E+00
           4
  0.3408888E+01 -0.4633124E+01  0.5942524E+01   0.6487488E+00 -0.7382551E-16  0.7610026E+00
  0.5328186E+01 -0.4633124E+01  0.4306338E+01   0.6487488E+00 -0.7382551E-16  0.7610026E+00
  0.5328186E+01  0.4633124E+01  0.4306338E+01   0.6487488E+00 -0.7382551E-16  0.7610026E+00
  0.3408888E+01  0.4633124E+01  0.5942524E+01   0.6487488E+00 -0.7382551E-16  0.7610026E+00
           4
 -0.5328186E+01  0.4633124E+01  0.4306338E+01  -0.1840695E+00 -0.0000000E+00  0.9829132E+00
 -0.5328186E+01 -0.4633124E+01  0.4306338E+01  -0.1840695E+00 -0.0000000E+00  0.9829132E+00
  0.3408888E+01 -0.4633124E+01  0.5942524E+01  -0.1840695E+00 -0.0000000E+00  0.9829132E+00
  0.3408888E+01  0.4633124E+01  0.5942524E+01  -0.1840695E+00 -0.0000000E+00  0.9829132E+00
           4
  0.5328186E+01 -0.4633124E+01  0.4306338E+01   0.1000000E+01  0.9585092E-16 -0.1031246E-15
  0.5328186E+01 -0.4633124E+01 -0.4306338E+01   0.1000000E+01  0.9585092E-16 -0.1031246E-15
  0.5328186E+01  0.4633124E+01 -0.4306338E+01   0.1000000E+01  0.9585092E-16 -0.1031246E-15
  0.5328186E+01  0.4633124E+01  0.4306338E+01   0.1000000E+01  0.9585092E-16 -0.1031246E-15
           4
 -0.5328186E+01  0.4633124E+01  0.4306338E+01  -0.1000000E+01  0.9585092E-16 -0.1031246E-15
 -0.5328186E+01  0.4633124E+01 -0.4306338E+01  -0.1000000E+01  0.9585092E-16 -0.1031246E-15
 -0.5328186E+01 -0.4633124E+01 -0.4306338E+01  -0.1000000E+01  0.9585092E-16 -0.1031246E-15
 -0.5328186E+01 -0.4633124E+01  0.4306338E+01  -0.1000000E+01  0.9585092E-16 -0.1031246E-15
           4
  0.5328186E+01 -0.4633124E+01 -0.4306338E+01   0.1840695E+00 -0.9287172E-16 -0.9829132E+00
 -0.3408888E+01 -0.4633124E+01 -0.5942524E+01   0.1840695E+00 -0.9287172E-16 -0.9829132E+00
 -0.3408888E+01  0.4633124E+01 -0.5942524E+01   0.1840695E+00 -0.9287172E-16 -0.9829132E+00
  0.5328186E+01  0.4633124E+01 -0.4306338E+01   0.1840695E+00 -0.9287172E-16 -0.9829132E+00
           4
 -0.5328186E+01  0.4633124E+01 -0.4306338E+01  -0.6487488E+00 -0.2574701E-15 -0.7610026E+00
 -0.3408888E+01  0.4633124E+01 -0.5942524E+01  -0.6487488E+00 -0.2574701E-15 -0.7610026E+00
 -0.3408888E+01 -0.4633124E+01 -0.5942524E+01  -0.6487488E+00 -0.2574701E-15 -0.7610026E+00
 -0.5328186E+01 -0.4633124E+01 -0.4306338E+01  -0.6487488E+00 -0.2574701E-15 -0.7610026E+00
           6
  0.3408888E+01  0.4633124E+01  0.5942524E+01   0.0000000E+00  0.1000000E+01  0.0000000E+00
  0.5328186E+01  0.4633124E+01  0.4306338E+01   0.0000000E+00  0.1000000E+01  0.0000000E+00
  0.5328186E+01  0.4633124E+01 -0.4306338E+01   0.0000000E+00  0.1000000E+01  0.0000000E+00
 -0.3408888E+01  0.4633124E+01 -0.5942524E+01   0.0000000E+00  0.1000000E+01  0.0000000E+00
 -0.5328186E+01  0.4633124E+01 -0.4306338E+01   0.0000000E+00  0.1000000E+01  0.0000000E+00
 -0.5328186E+01  0.4633124E+01  0.4306338E+01   0.0000000E+00  0.1000000E+01  0.0000000E+00
 WIGNER-SEITZ-CONVCELL_END
 BRILLOUIN-ZONE-PRIMCELL
           4
 -0.5441090E-01  0.5395927E-01  0.3121244E-01  -0.9829132E+00 -0.4934547E-16 -0.1840695E+00
 -0.3942966E-01  0.5395927E-01 -0.4878590E-01  -0.9829132E+00 -0.4934547E-16 -0.1840695E+00
 -0.3942966E-01 -0.5395927E-01 -0.4878590E-01  -0.9829132E+00 -0.4934547E-16 -0.1840695E+00
 -0.5441090E-01 -0.5395927E-01  0.3121244E-01  -0.9829132E+00 -0.4934547E-16 -0.1840695E+00
           4
 -0.3942966E-01  0.5395927E-01  0.4878590E-01  -0.7610026E+00  0.5993746E-16  0.6487488E+00
 -0.5441090E-01  0.5395927E-01  0.3121244E-01  -0.7610026E+00  0.5993746E-16  0.6487488E+00
 -0.5441090E-01 -0.5395927E-01  0.3121244E-01  -0.7610026E+00  0.5993746E-16  0.6487488E+00
 -0.3942966E-01 -0.5395927E-01  0.4878590E-01  -0.7610026E+00  0.5993746E-16  0.6487488E+00
           6
  0.3942966E-01 -0.5395927E-01  0.4878590E-01   0.0000000E+00 -0.1000000E+01  0.6258782E-15
 -0.3942966E-01 -0.5395927E-01  0.4878590E-01   0.0000000E+00 -0.1000000E+01  0.6258782E-15
 -0.5441090E-01 -0.5395927E-01  0.3121244E-01   0.0000000E+00 -0.1000000E+01  0.6258782E-15
 -0.3942966E-01 -0.5395927E-01 -0.4878590E-01   0.0000000E+00 -0.1000000E+01  0.6258782E-15
  0.3942966E-01 -0.5395927E-01 -0.4878590E-01   0.0000000E+00 -0.1000000E+01  0.6258782E-15
  0.5441090E-01 -0.5395927E-01 -0.3121244E-01   0.0000000E+00 -0.1000000E+01  0.6258782E-15
           4
 -0.3942966E-01 -0.5395927E-01 -0.4878590E-01   0.2236342E-16  0.0000000E+00 -0.1000000E+01
 -0.3942966E-01  0.5395927E-01 -0.4878590E-01   0.2236342E-16  0.0000000E+00 -0.1000000E+01
  0.3942966E-01  0.5395927E-01 -0.4878590E-01   0.2236342E-16  0.0000000E+00 -0.1000000E+01
  0.3942966E-01 -0.5395927E-01 -0.4878590E-01   0.2236342E-16  0.0000000E+00 -0.1000000E+01
           4
  0.3942966E-01 -0.5395927E-01  0.4878590E-01  -0.5719121E-16 -0.0000000E+00  0.1000000E+01
  0.3942966E-01  0.5395927E-01  0.4878590E-01  -0.5719121E-16 -0.0000000E+00  0.1000000E+01
 -0.3942966E-01  0.5395927E-01  0.4878590E-01  -0.5719121E-16 -0.0000000E+00  0.1000000E+01
 -0.3942966E-01 -0.5395927E-01  0.4878590E-01  -0.5719121E-16 -0.0000000E+00  0.1000000E+01
           6
  0.5441090E-01  0.5395927E-01 -0.3121244E-01  -0.0000000E+00  0.1000000E+01  0.6258782E-15
  0.3942966E-01  0.5395927E-01 -0.4878590E-01  -0.0000000E+00  0.1000000E+01  0.6258782E-15
 -0.3942966E-01  0.5395927E-01 -0.4878590E-01  -0.0000000E+00  0.1000000E+01  0.6258782E-15
 -0.5441090E-01  0.5395927E-01  0.3121244E-01  -0.0000000E+00  0.1000000E+01  0.6258782E-15
 -0.3942966E-01  0.5395927E-01  0.4878590E-01  -0.0000000E+00  0.1000000E+01  0.6258782E-15
  0.3942966E-01  0.5395927E-01  0.4878590E-01  -0.0000000E+00  0.1000000E+01  0.6258782E-15
           4
  0.5441090E-01  0.5395927E-01 -0.3121244E-01   0.7610026E+00 -0.1740215E-15 -0.6487488E+00
  0.5441090E-01 -0.5395927E-01 -0.3121244E-01   0.7610026E+00 -0.1740215E-15 -0.6487488E+00
  0.3942966E-01 -0.5395927E-01 -0.4878590E-01   0.7610026E+00 -0.1740215E-15 -0.6487488E+00
  0.3942966E-01  0.5395927E-01 -0.4878590E-01   0.7610026E+00 -0.1740215E-15 -0.6487488E+00
           4
  0.3942966E-01 -0.5395927E-01  0.4878590E-01   0.9829132E+00 -0.2205451E-15  0.1840695E+00
  0.5441090E-01 -0.5395927E-01 -0.3121244E-01   0.9829132E+00 -0.2205451E-15  0.1840695E+00
  0.5441090E-01  0.5395927E-01 -0.3121244E-01   0.9829132E+00 -0.2205451E-15  0.1840695E+00
  0.3942966E-01  0.5395927E-01  0.4878590E-01   0.9829132E+00 -0.2205451E-15  0.1840695E+00
 BRILLOUIN-ZONE-PRIMCELL_END
 BRILLOUIN-ZONE-CONVCELL
           4
 -0.5441090E-01  0.5395927E-01  0.3121244E-01  -0.9829132E+00 -0.4934547E-16 -0.1840695E+00
 -0.3942966E-01  0.5395927E-01 -0.4878590E-01  -0.9829132E+00 -0.4934547E-16 -0.1840695E+00
 -0.3942966E-01 -0.5395927E-01 -0.4878590E-01  -0.9829132E+00 -0.4934547E-16 -0.1840695E+00
 -0.5441090E-01 -0.5395927E-01  0.3121244E-01  -0.9829132E+00 -0.4934547E-16 -0.1840695E+00
           4
 -0.3942966E-01  0.5395927E-01  0.4878590E-01  -0.7610026E+00  0.5993746E-16  0.6487488E+00
 -0.5441090E-01  0.5395927E-01  0.3121244E-01  -0.7610026E+00  0.5993746E-16  0.6487488E+00
 -0.5441090E-01 -0.5395927E-01  0.3121244E-01  -0.7610026E+00  0.5993746E-16  0.6487488E+00
 -0.3942966E-01 -0.5395927E-01  0.4878590E-01  -0.7610026E+00  0.5993746E-16  0.6487488E+00
           6
  0.3942966E-01 -0.5395927E-01  0.4878590E-01   0.0000000E+00 -0.1000000E+01  0.6258782E-15
 -0.3942966E-01 -0.5395927E-01  0.4878590E-01   0.0000000E+00 -0.1000000E+01  0.6258782E-15
 -0.5441090E-01 -0.5395927E-01  0.3121244E-01   0.0000000E+00 -0.1000000E+01  0.6258782E-15
 -0.3942966E-01 -0.5395927E-01 -0.4878590E-01   0.0000000E+00 -0.1000000E+01  0.6258782E-15
  0.3942966E-01 -0.5395927E-01 -0.4878590E-01   0.0000000E+00 -0.1000000E+01  0.6258782E-15
  0.5441090E-01 -0.5395927E-01 -0.3121244E-01   0.0000000E+00 -0.1000000E+01  0.6258782E-15
           4
 -0.3942966E-01 -0.5395927E-01 -0.4878590E-01   0.2236342E-16  0.0000000E+00 -0.1000000E+01
 -0.3942966E-01  0.5395927E-01 -0.4878590E-01   0.2236342E-16  0.0000000E+00 -0.1000000E+01
  0.3942966E-01  0.5395927E-01 -0.4878590E-01   0.2236342E-16  0.0000000E+00 -0.1000000E+01
  0.3942966E-01 -0.5395927E-01 -0.4878590E-01   0.2236342E-16  0.0000000E+00 -0.1000000E+01
           4
  0.3942966E-01 -0.5395927E-01  0.4878590E-01  -0.5719121E-16 -0.0000000E+00  0.1000000E+01
  0.3942966E-01  0.5395927E-01  0.4878590E-01  -0.5719121E-16 -0.0000000E+00  0.1000000E+01
 -0.3942966E-01  0.5395927E-01  0.4878590E-01  -0.5719121E-16 -0.0000000E+00  0.1000000E+01
 -0.3942966E-01 -0.5395927E-01  0.4878590E-01  -0.5719121E-16 -0.0000000E+00  0.1000000E+01
           6
  0.5441090E-01  0.5395927E-01 -0.3121244E-01  -0.0000000E+00  0.1000000E+01  0.6258782E-15
  0.3942966E-01  0.5395927E-01 -0.4878590E-01  -0.0000000E+00  0.1000000E+01  0.6258782E-15
 -0.3942966E-01  0.5395927E-01 -0.4878590E-01  -0.0000000E+00  0.1000000E+01  0.6258782E-15
 -0.5441090E-01  0.5395927E-01  0.3121244E-01  -0.0000000E+00  0.1000000E+01  0.6258782E-15
 -0.3942966E-01  0.5395927E-01  0.4878590E-01  -0.0000000E+00  0.1000000E+01  0.6258782E-15
  0.3942966E-01  0.5395927E-01  0.4878590E-01  -0.0000000E+00  0.1000000E+01  0.6258782E-15
           4
  0.5441090E-01  0.5395927E-01 -0.3121244E-01   0.7610026E+00 -0.1740215E-15 -0.6487488E+00
  0.5441090E-01 -0.5395927E-01 -0.3121244E-01   0.7610026E+00 -0.1740215E-15 -0.6487488E+00
  0.3942966E-01 -0.5395927E-01 -0.4878590E-01   0.7610026E+00 -0.1740215E-15 -0.6487488E+00
  0.3942966E-01  0.5395927E-01 -0.4878590E-01   0.7610026E+00 -0.1740215E-15 -0.6487488E+00
           4
  0.3942966E-01 -0.5395927E-01  0.4878590E-01   0.9829132E+00 -0.2205451E-15  0.1840695E+00
  0.5441090E-01 -0.5395927E-01 -0.3121244E-01   0.9829132E+00 -0.2205451E-15  0.1840695E+00
  0.5441090E-01  0.5395927E-01 -0.3121244E-01   0.9829132E+00 -0.2205451E-15  0.1840695E+00
  0.3942966E-01  0.5395927E-01  0.4878590E-01   0.9829132E+00 -0.2205451E-15  0.1840695E+00
 BRILLOUIN-ZONE-CONVCELL_END
 ATOMS
   19    0.0000000000    4.5442377010    0.0000000000    0.0000000000   -0.0000260000    0.0000000000
   19    5.3281860930    4.5442377010    0.0000000000    0.0000000000   -0.0000259300    0.0000000000
   19    2.6640930460    0.0519079020    0.0000000000    0.0000001000   -0.0000542100    0.0000000000
   19    7.9922791390    0.0519079020    0.0000000000   -0.0000001000   -0.0000542100   -0.0000000000
   12   -0.9596465940    0.0564597610    5.1244290940    0.0000000000    0.0001745300    0.0000000000
   12    4.3685394030    0.0564597610    5.1244290940    0.0000000000    0.0001759100    0.0000000000
   12   -0.9596465940    6.1825003240    5.1244290940    0.0000000000   -0.0000541600    0.0000000000
   12    4.3685394030    6.1825003240    5.1244290940    0.0000000000   -0.0000550500    0.0000000000
   12    1.7044466760    4.5953392080    5.1244290940    0.0000013200   -0.0001271800   -0.0000000900