
     Program PWSCF v.7.3.1 starts on 25Mar2025 at  5:12:28 

     This program is part of the open-source Quantum ESPRESSO suite
     for quantum simulation of materials; please cite
         "P. Giannozzi et al., J. Phys.:Condens. Matter 21 395502 (2009);
         "P. Giannozzi et al., J. Phys.:Condens. Matter 29 465901 (2017);
         "P. Giannozzi et al., J. Chem. Phys. 152 154105 (2020);
          URL http://www.quantum-espresso.org", 
     in publications or presentations arising from this work. More details at
     http://www.quantum-espresso.org/quote

     Parallel version (MPI), running on     6 processors

     MPI processes distributed on     1 nodes
     3836 MiB available memory on the printing compute node when the environment starts

     Reading input from relax.in

     Current dimensions of program PWSCF are:
     Max number of different atomic species (ntypx) = 10
     Max number of k-points (npk) =  40000
     Max angular momentum in pseudopotentials (lmaxx) =  4

     File ./temp/phl-fe1-fe2x2.update deleted, as requested
     file Al.pbe-n-kjpaw_psl.1.0.0.UPF: wavefunction(s)  3S 3P renormalized
     file Fe.pbe-spn-kjpaw_psl.1.0.0.UPF: wavefunction(s)  3P 3D renormalized
     file Fe.pbe-spn-kjpaw_psl.1.0.0.UPF: wavefunction(s)  3P 3D renormalized
     file H.pbe-kjpaw_psl.1.0.0.UPF: wavefunction(s)  1S renormalized
     file K.pbe-spn-kjpaw_psl.1.0.0.UPF: wavefunction(s)  3S renormalized
     file Mg.pbe-spnl-kjpaw_psl.1.0.0.UPF: wavefunction(s)  2P renormalized
     file O.pbe-n-kjpaw_psl.1.0.0.UPF: wavefunction(s)  2S 2P renormalized
     file Si.pbe-n-kjpaw_psl.1.0.0.UPF: wavefunction(s)  3S 3P renormalized

     R & G space division:  proc/nbgrp/npool/nimage =       6
     Subspace diagonalization in iterative solution of the eigenvalue problem:
     one sub-group per band group will be used
     custom distributed-memory algorithm (size of sub-group:  2*  2 procs)


     Parallelization info
     --------------------
     sticks:   dense  smooth     PW     G-vecs:    dense   smooth      PW
     Min        2245    1123    295               202099    71463    9652
     Max        2246    1124    296               202100    71464    9654
     Sum       13471    6741   1775              1212597   428781   57919

     Using Slab Decomposition



     bravais-lattice index     =          -12
     lattice parameter (alat)  =      20.1376  a.u.
     unit-cell volume          =    6829.4530 (a.u.)^3
     number of atoms/cell      =           88
     number of atomic types    =            8
     number of electrons       =       524.00
     number of Kohn-Sham states=          314
     kinetic-energy cutoff     =      60.0000  Ry
     charge density cutoff     =     480.0000  Ry
     scf convergence threshold =      1.0E-08
     mixing beta               =       0.7000
     number of iterations used =            8  plain     mixing
     energy convergence thresh.=      1.0E-06
     force convergence thresh. =      1.0E-03
     Exchange-correlation= SLA  PW   PBX  PBC
                           (   1   4   3   4   0   0   0)
     nstep                     =           50


     celldm(1)=  20.137625  celldm(2)=   0.869550  celldm(3)=   0.978478
     celldm(4)=   0.000000  celldm(5)=  -0.184070  celldm(6)=   0.000000

     crystal axes: (cart. coord. in units of alat)
               a(1) = (   1.000000   0.000000   0.000000 )  
               a(2) = (   0.000000   0.869550   0.000000 )  
               a(3) = (  -0.180108   0.000000   0.961759 )  

     reciprocal axes: (cart. coord. in units 2 pi/alat)
               b(1) = (  1.000000 -0.000000  0.187270 )  
               b(2) = (  0.000000  1.150019 -0.000000 )  
               b(3) = (  0.000000  0.000000  1.039761 )  


     PseudoPot. # 1 for Al read from file:
     ./../../../pseudos/Al.pbe-n-kjpaw_psl.1.0.0.UPF
     MD5 check sum: 502b6b27b9c6270cab5dd1084b96fa6d
     Pseudo is Projector augmented-wave + core cor, Zval =  3.0
     Generated using &quot;atomic&quot; code by A. Dal Corso  v.6.3
     Shape of augmentation charge: PSQ
     Using radial grid of 1135 points,  6 beta functions with: 
                l(1) =   0
                l(2) =   0
                l(3) =   1
                l(4) =   1
                l(5) =   2
                l(6) =   2
     Q(r) pseudized with 0 coefficients 


     PseudoPot. # 2 for Fe read from file:
     ./../../../pseudos/Fe.pbe-spn-kjpaw_psl.1.0.0.UPF
     MD5 check sum: fc81f059e5c5069939230b1155715ae8
     Pseudo is Projector augmented-wave + core cor, Zval = 16.0
     Generated using &quot;atomic&quot; code by A. Dal Corso  v.6.3
     Shape of augmentation charge: PSQ
     Using radial grid of 1191 points,  6 beta functions with: 
                l(1) =   0
                l(2) =   0
                l(3) =   1
                l(4) =   1
                l(5) =   2
                l(6) =   2
     Q(r) pseudized with 0 coefficients 


     PseudoPot. # 3 for Fe read from file:
     ./../../../pseudos/Fe.pbe-spn-kjpaw_psl.1.0.0.UPF
     MD5 check sum: fc81f059e5c5069939230b1155715ae8
     Pseudo is Projector augmented-wave + core cor, Zval = 16.0
     Generated using &quot;atomic&quot; code by A. Dal Corso  v.6.3
     Shape of augmentation charge: PSQ
     Using radial grid of 1191 points,  6 beta functions with: 
                l(1) =   0
                l(2) =   0
                l(3) =   1
                l(4) =   1
                l(5) =   2
                l(6) =   2
     Q(r) pseudized with 0 coefficients 


     PseudoPot. # 4 for H  read from file:
     ./../../../pseudos/H.pbe-kjpaw_psl.1.0.0.UPF
     MD5 check sum: d81a744832360e4a8af0b0b5b123bc2a
     Pseudo is Projector augmented-wave, Zval =  1.0
     Generated using &quot;atomic&quot; code by A. Dal Corso  v.6.3MaX
     Shape of augmentation charge: PSQ
     Using radial grid of  929 points,  2 beta functions with: 
                l(1) =   0
                l(2) =   0
     Q(r) pseudized with 0 coefficients 


     PseudoPot. # 5 for K  read from file:
     ./../../../pseudos/K.pbe-spn-kjpaw_psl.1.0.0.UPF
     MD5 check sum: 34cc42130a09071ebe376fd42eb21491
     Pseudo is Projector augmented-wave + core cor, Zval =  9.0
     Generated using &quot;atomic&quot; code by A. Dal Corso  v.6.2.2
     Shape of augmentation charge: PSQ
     Using radial grid of 1165 points,  6 beta functions with: 
                l(1) =   0
                l(2) =   0
                l(3) =   1
                l(4) =   1
                l(5) =   2
                l(6) =   2
     Q(r) pseudized with 0 coefficients 


     PseudoPot. # 6 for Mg read from file:
     ./../../../pseudos/Mg.pbe-spnl-kjpaw_psl.1.0.0.UPF
     MD5 check sum: fda14e0d92a6a9a5ebed782e5a4b3067
     Pseudo is Projector augmented-wave + core cor, Zval = 10.0
     Generated using &quot;atomic&quot; code by A. Dal Corso  v.6.3
     Shape of augmentation charge: PSQ
     Using radial grid of 1129 points,  4 beta functions with: 
                l(1) =   0
                l(2) =   0
                l(3) =   1
                l(4) =   1
     Q(r) pseudized with 0 coefficients 


     PseudoPot. # 7 for O  read from file:
     ./../../../pseudos/O.pbe-n-kjpaw_psl.1.0.0.UPF
     MD5 check sum: e99d9cef9b487d1ca56f5b95ecd0fd7a
     Pseudo is Projector augmented-wave + core cor, Zval =  6.0
     Generated using &quot;atomic&quot; code by A. Dal Corso  v.6.3
     Shape of augmentation charge: PSQ
     Using radial grid of 1095 points,  4 beta functions with: 
                l(1) =   0
                l(2) =   0
                l(3) =   1
                l(4) =   1
     Q(r) pseudized with 0 coefficients 


     PseudoPot. # 8 for Si read from file:
     ./../../../pseudos/Si.pbe-n-kjpaw_psl.1.0.0.UPF
     MD5 check sum: c39c59da582df4a0d9f10159256ea34e
     Pseudo is Projector augmented-wave + core cor, Zval =  4.0
     Generated using &quot;atomic&quot; code by A. Dal Corso  v.6.3
     Shape of augmentation charge: PSQ
     Using radial grid of 1141 points,  6 beta functions with: 
                l(1) =   0
                l(2) =   0
                l(3) =   1
                l(4) =   1
                l(5) =   2
                l(6) =   2
     Q(r) pseudized with 0 coefficients 


     atomic species   valence    mass     pseudopotential
     Al                3.00    26.98154     Al( 1.00)
     Fe1              16.00    55.84500     Fe( 1.00)
     Fe2              16.00    55.84500     Fe( 1.00)
     H                 1.00     1.00794     H ( 1.00)
     K                 9.00    39.09830     K ( 1.00)
     Mg               10.00    24.30500     Mg( 1.00)
     O                 6.00    15.99940     O ( 1.00)
     Si                4.00    28.08550     Si( 1.00)

     Starting magnetic structure 
     atomic species   magnetization
     Al              0.000
     Fe1             0.300
     Fe2            -0.300
     H               0.000
     K               0.000
     Mg              0.000
     O               0.000
     Si              0.000

      2 Sym. Ops. (no inversion) found


                                    s                        frac. trans.

      isym =  1     identity                                     

 cryst.   s( 1) = (     1          0          0      )
                  (     0          1          0      )
                  (     0          0          1      )

 cart.    s( 1) = (  1.0000000  0.0000000  0.0000000 )
                  (  0.0000000  1.0000000  0.0000000 )
                  (  0.0000000  0.0000000  1.0000000 )


      isym =  2     180 deg rotation - cart. axis [0,1,0]        

 cryst.   s( 2) = (    -1          0          0      )
                  (     0          1          0      )
                  (     0          0         -1      )

 cart.    s( 2) = ( -1.0000000  0.0000000 -0.0000000 )
                  (  0.0000000  1.0000000  0.0000000 )
                  (  0.0000000  0.0000000 -1.0000000 )


     point group C_2  (2)   
     there are  2 classes
     the character table:

       E     C2   
A      1.00  1.00
B      1.00 -1.00

     the symmetry operations in each class and the name of the first element:

     E        1
          identity                                               
     C2       2
          180 deg rotation - cart. axis [0,1,0]                  

   Cartesian axes

     site n.     atom                  positions (alat units)
         1        K      tau(   1) = (   0.0000000   0.4264341   0.0000000  )
         2        K      tau(   2) = (   0.5000000   0.4264341   0.0000000  )
         3        K      tau(   3) = (   0.2500000   0.0048711   0.0000000  )
         4        K      tau(   4) = (   0.7500000   0.0048711   0.0000000  )
         5        Mg     tau(   5) = (  -0.0900539   0.0052982   0.4808795  )
         6        Mg     tau(   6) = (   0.4099461   0.0052982   0.4808795  )
         7        Mg     tau(   7) = (  -0.0900539   0.5801697   0.4808795  )
         8        Mg     tau(   8) = (   0.4099461   0.5801697   0.4808795  )
         9        Mg     tau(   9) = (   0.1599461   0.4312295   0.4808795  )
        10        Mg     tau(  10) = (   0.6599461   0.4312295   0.4808795  )
        11        Mg     tau(  11) = (   0.1599461   0.7265245   0.4808795  )
        12        Mg     tau(  12) = (   0.6599461   0.7265245   0.4808795  )
        13        Mg     tau(  13) = (   0.1599461   0.1482463   0.4808795  )
        14        Mg     tau(  14) = (   0.6599461   0.1482463   0.4808795  )
        15        Si     tau(  15) = (   0.0035443   0.1419109   0.2165584  )
        16        Si     tau(  16) = (   0.5035443   0.1419109   0.2165584  )
        17        Si     tau(  17) = (   0.3163478   0.1419109   0.7452006  )
        18        Si     tau(  18) = (   0.8163478   0.1419109   0.7452006  )
        19        Si     tau(  19) = (   0.3298072   0.7253971   0.7380001  )
        20        Si     tau(  20) = (   0.8298072   0.7253971   0.7380001  )
        21        Si     tau(  21) = (  -0.0099150   0.7253971   0.2237588  )
        22        Si     tau(  22) = (   0.4900850   0.7253971   0.2237588  )
        23        Si     tau(  23) = (   0.2400579   0.5796590   0.2223744  )
        24        Si     tau(  24) = (   0.7400580   0.5796590   0.2223744  )
        25        Si     tau(  25) = (   0.0798342   0.5796590   0.7393846  )
        26        Si     tau(  26) = (   0.5798342   0.5796590   0.7393846  )
        27        Al     tau(  27) = (   0.0661175   0.2875686   0.7423645  )
        28        Al     tau(  28) = (   0.5661175   0.2875686   0.7423645  )
        29        Al     tau(  29) = (   0.2537747   0.2875686   0.2193945  )
        30        Al     tau(  30) = (   0.7537747   0.2875686   0.2193945  )
        31        O      tau(  31) = (  -0.0015899   0.1371429   0.3694194  )
        32        O      tau(  32) = (   0.4984102   0.1371429   0.3694194  )
        33        O      tau(  33) = (   0.3214820   0.1371429   0.5923396  )
        34        O      tau(  34) = (   0.8214820   0.1371429   0.5923396  )
        35        O      tau(  35) = (   0.3279656   0.7257119   0.5859217  )
        36        O      tau(  36) = (   0.8279656   0.7257119   0.5859217  )
        37        O      tau(  37) = (  -0.0080734   0.7257119   0.3758373  )
        38        O      tau(  38) = (   0.4919266   0.7257119   0.3758373  )
        39        O      tau(  39) = (   0.2427281   0.5824396   0.3751857  )
        40        O      tau(  40) = (   0.7427281   0.5824396   0.3751857  )
        41        O      tau(  41) = (   0.0771641   0.5824396   0.5865733  )
        42        O      tau(  42) = (   0.5771641   0.5824396   0.5865733  )
        43        O      tau(  43) = (   0.0720635   0.2897832   0.5784282  )
        44        O      tau(  44) = (   0.5720636   0.2897832   0.5784282  )
        45        O      tau(  45) = (   0.2478287   0.2897832   0.3833307  )
        46        O      tau(  46) = (   0.7478287   0.2897832   0.3833307  )
        47        O      tau(  47) = (   0.1420901   0.1782641   0.1624435  )
        48        O      tau(  48) = (   0.6420901   0.1782641   0.1624435  )
        49        O      tau(  49) = (   0.1778021   0.1782641   0.7993154  )
        50        O      tau(  50) = (   0.6778021   0.1782641   0.7993154  )
        51        O      tau(  51) = (  -0.0287386   0.8663807   0.1632076  )
        52        O      tau(  52) = (   0.4712614   0.8663807   0.1632076  )
        53        O      tau(  53) = (   0.3486308   0.8663807   0.7985513  )
        54        O      tau(  54) = (   0.8486307   0.8663807   0.7985513  )
        55        O      tau(  55) = (   0.1961724   0.6692629   0.7942988  )
        56        O      tau(  56) = (   0.6961724   0.6692629   0.7942988  )
        57        O      tau(  57) = (   0.1237198   0.6692629   0.1674602  )
        58        O      tau(  58) = (   0.6237198   0.6692629   0.1674602  )
        59        O      tau(  59) = (   0.3730238   0.6408265   0.1664413  )
        60        O      tau(  60) = (   0.8730238   0.6408265   0.1664413  )
        61        O      tau(  61) = (  -0.0531316   0.6408265   0.7953177  )
        62        O      tau(  62) = (   0.4468684   0.6408265   0.7953177  )
        63        O      tau(  63) = (   0.2227255   0.4412170   0.1616184  )
        64        O      tau(  64) = (   0.7227256   0.4412170   0.1616184  )
        65        O      tau(  65) = (   0.0971666   0.4412170   0.8001405  )
        66        O      tau(  66) = (   0.5971666   0.4412170   0.8001405  )
        67        O      tau(  67) = (  -0.0801894   0.2383850   0.8033350  )
        68        O      tau(  68) = (   0.4198106   0.2383850   0.8033350  )
        69        O      tau(  69) = (   0.4000816   0.2383850   0.1584240  )
        70        O      tau(  70) = (   0.9000816   0.2383850   0.1584240  )
        71        O      tau(  71) = (  -0.0031166   0.4448781   0.3784861  )
        72        O      tau(  72) = (   0.4968834   0.4448781   0.3784861  )
        73        O      tau(  73) = (   0.3230088   0.4448781   0.5832729  )
        74        O      tau(  74) = (   0.8230088   0.4448781   0.5832729  )
        75        O      tau(  75) = (   0.2448068   0.8691629   0.3840418  )
        76        O      tau(  76) = (   0.7448067   0.8691629   0.3840418  )
        77        O      tau(  77) = (   0.0750854   0.8691629   0.5777172  )
        78        O      tau(  78) = (   0.5750855   0.8691629   0.5777172  )
        79        H      tau(  79) = (  -0.0023309   0.4281630   0.2893800  )
        80        H      tau(  80) = (   0.4976691   0.4281630   0.2893800  )
        81        H      tau(  81) = (   0.3222231   0.4281630   0.6723789  )
        82        H      tau(  82) = (   0.8222232   0.4281630   0.6723789  )
        83        H      tau(  83) = (   0.2417731   0.0116301   0.2941931  )
        84        H      tau(  84) = (   0.7417731   0.0116301   0.2941931  )
        85        H      tau(  85) = (   0.0781191   0.0116301   0.6675659  )
        86        H      tau(  86) = (   0.5781191   0.0116301   0.6675659  )
        87        Fe1    tau(  87) = (  -0.0900539   0.2917628   0.4808795  )
        88        Fe2    tau(  88) = (   0.4099461   0.2917628   0.4808795  )

     --------------------------------------------
     DFT-D3 Dispersion Correction (3-body terms):
     --------------------------------------------
       Reference C6 values for interpolation: 

         atom   Coordination number   C6
         H          0.912             6.05
         H          0.000            15.18
         O          0.000            31.01
         O          0.993            25.63
         O          1.989            20.74
         Mg         0.000          1366.75
         Mg         0.963           902.54
         Mg         1.950           351.12
         Al         0.000          1081.08
         Al         0.965           875.51
         Al         1.931           513.50
         Al         2.915           307.19
         Si         0.000           635.71
         Si         0.951           540.53
         Si         1.944           466.25
         Si         2.941           443.01
         Si         3.868           299.55
         K          0.000          9967.00
         K          0.977           676.04
         Fe1        0.000           982.67
         Fe1        1.648           409.99
         Fe1        9.138           219.01
         Fe2        0.000           982.67
         Fe2        1.648           409.99
         Fe2        9.138           219.01

       Values used:

         atom   Coordination number  R0_AB[au]  C6      C8
         K         11.862            4.007    676.04 129074.98
         K         11.862            4.007    676.04 129074.98
         K         12.276            4.007    676.04 129074.98
         K         12.276            4.007    676.04 129074.98
         Mg        11.315            3.292    351.12  31436.69
         Mg        11.315            3.292    351.12  31436.69
         Mg        11.304            3.292    351.12  31436.69
         Mg        11.304            3.292    351.12  31436.69
         Mg        11.206            3.292    351.12  31436.69
         Mg        11.206            3.292    351.12  31436.69
         Mg        11.579            3.292    351.12  31436.69
         Mg        11.579            3.292    351.12  31436.69
         Mg        11.376            3.292    351.12  31436.69
         Mg        11.376            3.292    351.12  31436.69
         Si         6.557            3.583    299.55  21425.58
         Si         6.557            3.583    299.55  21425.58
         Si         6.557            3.583    299.55  21425.58
         Si         6.557            3.583    299.55  21425.58
         Si         6.265            3.583    299.55  21425.58
         Si         6.265            3.583    299.55  21425.58
         Si         6.265            3.583    299.55  21425.58
         Si         6.265            3.583    299.55  21425.58
         Si         6.297            3.583    299.55  21425.58
         Si         6.297            3.583    299.55  21425.58
         Si         6.297            3.583    299.55  21425.58
         Si         6.297            3.583    299.55  21425.58
         Al         7.242            3.789    307.19  29441.29
         Al         7.242            3.789    307.19  29441.29
         Al         7.242            3.789    307.19  29441.29
         Al         7.242            3.789    307.19  29441.29
         O          3.467            2.345     20.74    418.58
         O          3.467            2.345     20.74    418.58
         O          3.467            2.345     20.74    418.58
         O          3.467            2.345     20.74    418.58
         O          3.908            2.345     20.74    418.58
         O          3.908            2.345     20.74    418.58
         O          3.908            2.345     20.74    418.58
         O          3.908            2.345     20.74    418.58
         O          3.897            2.345     20.74    418.58
         O          3.897            2.345     20.74    418.58
         O          3.897            2.345     20.74    418.58
         O          3.897            2.345     20.74    418.58
         O          3.832            2.345     20.74    418.58
         O          3.832            2.345     20.74    418.58
         O          3.832            2.345     20.74    418.58
         O          3.832            2.345     20.74    418.58
         O          3.142            2.345     20.74    418.58
         O          3.142            2.345     20.74    418.58
         O          3.142            2.345     20.74    418.58
         O          3.142            2.345     20.74    418.58
         O          3.077            2.345     20.74    418.58
         O          3.077            2.345     20.74    418.58
         O          3.077            2.345     20.74    418.58
         O          3.077            2.345     20.74    418.58
         O          2.881            2.345     20.74    418.58
         O          2.881            2.345     20.74    418.58
         O          2.881            2.345     20.74    418.58
         O          2.881            2.345     20.74    418.58
         O          2.874            2.345     20.74    418.58
         O          2.874            2.345     20.74    418.58
         O          2.874            2.345     20.74    418.58
         O          2.874            2.345     20.74    418.58
         O          3.081            2.345     20.74    418.58
         O          3.081            2.345     20.74    418.58
         O          3.081            2.345     20.74    418.58
         O          3.081            2.345     20.74    418.58
         O          3.178            2.345     20.74    418.58
         O          3.178            2.345     20.74    418.58
         O          3.178            2.345     20.74    418.58
         O          3.178            2.345     20.74    418.58
         O          3.635            2.345     20.74    418.58
         O          3.635            2.345     20.74    418.58
         O          3.635            2.345     20.74    418.58
         O          3.635            2.345     20.74    418.58
         O          3.982            2.345     20.74    418.58
         O          3.982            2.345     20.74    418.58
         O          3.982            2.345     20.74    418.58
         O          3.982            2.345     20.74    418.58
         H          1.230            2.062      6.08     73.47
         H          1.230            2.062      6.08     73.47
         H          1.230            2.062      6.08     73.47
         H          1.230            2.062      6.08     73.47
         H          1.236            2.062      6.08     73.45
         H          1.236            2.062      6.08     73.45
         H          1.236            2.062      6.08     73.45
         H          1.236            2.062      6.08     73.45
         Fe1        7.262            3.252    219.01  20487.87
         Fe2        7.262            3.252    219.01  20487.87

         Molecular C6 ( Ry / a.u.^6 ) =    661236.48


   Crystallographic axes

     site n.     atom                  positions (cryst. coord.)
         1        K      tau(   1) = (  0.0000000  0.4904075  0.0000000  )
         2        K      tau(   2) = (  0.5000000  0.4904075  0.0000000  )
         3        K      tau(   3) = (  0.2500000  0.0056018  0.0000000  )
         4        K      tau(   4) = (  0.7500000  0.0056018  0.0000000  )
         5        Mg     tau(   5) = (  0.0000002  0.0060931  0.4999998  )
         6        Mg     tau(   6) = (  0.5000002  0.0060931  0.4999998  )
         7        Mg     tau(   7) = (  0.0000002  0.6672064  0.4999998  )
         8        Mg     tau(   8) = (  0.5000002  0.6672064  0.4999998  )
         9        Mg     tau(   9) = (  0.2500002  0.4959223  0.4999998  )
        10        Mg     tau(  10) = (  0.7500002  0.4959223  0.4999998  )
        11        Mg     tau(  11) = (  0.2500002  0.8355173  0.4999998  )
        12        Mg     tau(  12) = (  0.7500002  0.8355173  0.4999998  )
        13        Mg     tau(  13) = (  0.2500002  0.1704861  0.4999998  )
        14        Mg     tau(  14) = (  0.7500002  0.1704861  0.4999998  )
        15        Si     tau(  15) = (  0.0440991  0.1632003  0.2251691  )
        16        Si     tau(  16) = (  0.5440992  0.1632003  0.2251691  )
        17        Si     tau(  17) = (  0.4559013  0.1632003  0.7748306  )
        18        Si     tau(  18) = (  0.9559013  0.1632003  0.7748306  )
        19        Si     tau(  19) = (  0.4680122  0.8342208  0.7673439  )
        20        Si     tau(  20) = (  0.9680122  0.8342208  0.7673439  )
        21        Si     tau(  21) = (  0.0319883  0.8342208  0.2326558  )
        22        Si     tau(  22) = (  0.5319883  0.8342208  0.2326558  )
        23        Si     tau(  23) = (  0.2817019  0.6666191  0.2312163  )
        24        Si     tau(  24) = (  0.7817019  0.6666191  0.2312163  )
        25        Si     tau(  25) = (  0.2182985  0.6666191  0.7687834  )
        26        Si     tau(  26) = (  0.7182985  0.6666191  0.7687834  )
        27        Al     tau(  27) = (  0.2051398  0.3307095  0.7718818  )
        28        Al     tau(  28) = (  0.7051398  0.3307095  0.7718818  )
        29        Al     tau(  29) = (  0.2948606  0.3307095  0.2281179  )
        30        Al     tau(  30) = (  0.7948606  0.3307095  0.2281179  )
        31        O      tau(  31) = (  0.0675912  0.1577170  0.3841080  )
        32        O      tau(  32) = (  0.5675912  0.1577170  0.3841080  )
        33        O      tau(  33) = (  0.4324092  0.1577170  0.6158917  )
        34        O      tau(  34) = (  0.9324092  0.1577170  0.6158917  )
        35        O      tau(  35) = (  0.4376909  0.8345828  0.6092187  )
        36        O      tau(  36) = (  0.9376909  0.8345828  0.6092187  )
        37        O      tau(  37) = (  0.0623095  0.8345828  0.3907810  )
        38        O      tau(  38) = (  0.5623095  0.8345828  0.3907810  )
        39        O      tau(  39) = (  0.3129889  0.6698169  0.3901035  )
        40        O      tau(  40) = (  0.8129889  0.6698169  0.3901035  )
        41        O      tau(  41) = (  0.1870115  0.6698169  0.6098962  )
        42        O      tau(  42) = (  0.6870115  0.6698169  0.6098962  )
        43        O      tau(  43) = (  0.1803856  0.3332563  0.6014272  )
        44        O      tau(  44) = (  0.6803856  0.3332563  0.6014272  )
        45        O      tau(  45) = (  0.3196149  0.3332563  0.3985724  )
        46        O      tau(  46) = (  0.8196149  0.3332563  0.3985724  )
        47        O      tau(  47) = (  0.1725108  0.2050072  0.1689025  )
        48        O      tau(  48) = (  0.6725108  0.2050072  0.1689025  )
        49        O      tau(  49) = (  0.3274896  0.2050072  0.8310971  )
        50        O      tau(  50) = (  0.8274896  0.2050072  0.8310971  )
        51        O      tau(  51) = (  0.0018252  0.9963547  0.1696970  )
        52        O      tau(  52) = (  0.5018252  0.9963547  0.1696970  )
        53        O      tau(  53) = (  0.4981752  0.9963547  0.8303027  )
        54        O      tau(  54) = (  0.9981751  0.9963547  0.8303027  )
        55        O      tau(  55) = (  0.3449205  0.7696654  0.8258811  )
        56        O      tau(  56) = (  0.8449205  0.7696654  0.8258811  )
        57        O      tau(  57) = (  0.1550800  0.7696654  0.1741186  )
        58        O      tau(  58) = (  0.6550800  0.7696654  0.1741186  )
        59        O      tau(  59) = (  0.4041932  0.7369629  0.1730592  )
        60        O      tau(  60) = (  0.9041932  0.7369629  0.1730592  )
        61        O      tau(  61) = (  0.0958072  0.7369629  0.8269405  )
        62        O      tau(  62) = (  0.5958073  0.7369629  0.8269405  )
        63        O      tau(  63) = (  0.2529918  0.5074082  0.1680446  )
        64        O      tau(  64) = (  0.7529918  0.5074082  0.1680446  )
        65        O      tau(  65) = (  0.2470086  0.5074082  0.8319551  )
        66        O      tau(  66) = (  0.7470086  0.5074082  0.8319551  )
        67        O      tau(  67) = (  0.0702508  0.2741475  0.8352765  )
        68        O      tau(  68) = (  0.5702508  0.2741475  0.8352765  )
        69        O      tau(  69) = (  0.4297496  0.2741475  0.1647231  )
        70        O      tau(  70) = (  0.9297496  0.2741475  0.1647231  )
        71        O      tau(  71) = (  0.0677623  0.5116184  0.3935352  )
        72        O      tau(  72) = (  0.5677623  0.5116184  0.3935352  )
        73        O      tau(  73) = (  0.4322381  0.5116184  0.6064645  )
        74        O      tau(  74) = (  0.9322381  0.5116184  0.6064645  )
        75        O      tau(  75) = (  0.3167261  0.9995543  0.3993118  )
        76        O      tau(  76) = (  0.8167261  0.9995543  0.3993118  )
        77        O      tau(  77) = (  0.1832743  0.9995543  0.6006879  )
        78        O      tau(  78) = (  0.6832743  0.9995543  0.6006879  )
        79        H      tau(  79) = (  0.0518611  0.4923958  0.3008861  )
        80        H      tau(  80) = (  0.5518612  0.4923958  0.3008861  )
        81        H      tau(  81) = (  0.4481393  0.4923958  0.6991135  )
        82        H      tau(  82) = (  0.9481393  0.4923958  0.6991135  )
        83        H      tau(  83) = (  0.2968665  0.0133749  0.3058905  )
        84        H      tau(  84) = (  0.7968665  0.0133749  0.3058905  )
        85        H      tau(  85) = (  0.2031339  0.0133749  0.6941091  )
        86        H      tau(  86) = (  0.7031339  0.0133749  0.6941091  )
        87        Fe1    tau(  87) = (  0.0000002  0.3355329  0.4999998  )
        88        Fe2    tau(  88) = (  0.5000002  0.3355329  0.4999998  )

     number of k points=    10  Gaussian smearing, width (Ry)=  0.0010
                       cart. coord. in units 2pi/alat
        k(    1) = (   0.0000000   0.0000000   0.0000000), wk =   0.0370370
        k(    2) = (   0.0000000   0.0000000   0.3465871), wk =   0.0740741
        k(    3) = (   0.0000000   0.3833398   0.0000000), wk =   0.0740741
        k(    4) = (   0.0000000   0.3833398   0.3465871), wk =   0.1481481
        k(    5) = (   0.3333333   0.0000000   0.0624232), wk =   0.0740741
        k(    6) = (   0.3333333   0.0000000   0.4090103), wk =   0.0740741
        k(    7) = (   0.3333333   0.0000000  -0.2841639), wk =   0.0740741
        k(    8) = (   0.3333333   0.3833398   0.0624232), wk =   0.1481481
        k(    9) = (   0.3333333   0.3833398   0.4090103), wk =   0.1481481
        k(   10) = (   0.3333333   0.3833398  -0.2841639), wk =   0.1481481

                       cryst. coord.
        k(    1) = (   0.0000000   0.0000000   0.0000000), wk =   0.0370370
        k(    2) = (   0.0000000   0.0000000   0.3333333), wk =   0.0740741
        k(    3) = (   0.0000000   0.3333333   0.0000000), wk =   0.0740741
        k(    4) = (   0.0000000   0.3333333   0.3333333), wk =   0.1481481
        k(    5) = (   0.3333333   0.0000000   0.0000000), wk =   0.0740741
        k(    6) = (   0.3333333   0.0000000   0.3333333), wk =   0.0740741
        k(    7) = (   0.3333333   0.0000000  -0.3333333), wk =   0.0740741
        k(    8) = (   0.3333333   0.3333333   0.0000000), wk =   0.1481481
        k(    9) = (   0.3333333   0.3333333   0.3333333), wk =   0.1481481
        k(   10) = (   0.3333333   0.3333333  -0.3333333), wk =   0.1481481

     Dense  grid:  1212597 G-vectors     FFT dimensions: ( 144, 125, 144)

     Smooth grid:   428781 G-vectors     FFT dimensions: ( 100,  90, 100)

     Dynamical RAM for                 wfc:      42.80 MB

     Dynamical RAM for     wfc (w. buffer):     898.81 MB

     Dynamical RAM for           str. fact:      24.67 MB

     Dynamical RAM for           local pot:       0.00 MB

     Dynamical RAM for          nlocal pot:     119.40 MB

     Dynamical RAM for                qrad:      14.06 MB

     Dynamical RAM for          rho,v,vnew:      38.28 MB

     Dynamical RAM for               rhoin:      12.76 MB

     Dynamical RAM for            rho*nmix:      98.68 MB

     Dynamical RAM for           G-vectors:      12.11 MB

     Dynamical RAM for          h,s,v(r/c):       4.51 MB

     Dynamical RAM for          <psi|beta>:       4.20 MB

     Dynamical RAM for                 psi:      85.60 MB

     Dynamical RAM for                hpsi:      85.60 MB

     Dynamical RAM for                spsi:      85.60 MB

     Dynamical RAM for      wfcinit/wfcrot:     102.85 MB

     Dynamical RAM for           addusdens:     724.69 MB

     Dynamical RAM for          addusforce:    1014.95 MB

     Estimated static dynamical RAM per process >       1.14 GB

     Estimated max dynamical RAM per process >       2.23 GB

     Estimated total dynamical RAM >      13.37 GB

     Check: negative core charge=   -0.000004
     Generating pointlists ...
     new r_m :   0.0677 (alat units)  1.3628 (a.u.) for type    1
     new r_m :   0.0781 (alat units)  1.5718 (a.u.) for type    2
     new r_m :   0.0781 (alat units)  1.5718 (a.u.) for type    3
     new r_m :   0.0374 (alat units)  0.7531 (a.u.) for type    4
     new r_m :   0.1076 (alat units)  2.1677 (a.u.) for type    5
     new r_m :   0.0786 (alat units)  1.5837 (a.u.) for type    6
     new r_m :   0.0374 (alat units)  0.7531 (a.u.) for type    7
     new r_m :   0.0627 (alat units)  1.2634 (a.u.) for type    8

     Initial potential from superposition of free atoms

     starting charge     523.8985, renormalised to     524.0000
     Starting wfcs are  366 randomized atomic wfcs
     Checking if some PAW data can be deallocated... 
       PAW data deallocated on    5 nodes for type:  1
       PAW data deallocated on    5 nodes for type:  2
       PAW data deallocated on    5 nodes for type:  3
       PAW data deallocated on    5 nodes for type:  4
       PAW data deallocated on    5 nodes for type:  5
       PAW data deallocated on    5 nodes for type:  6
       PAW data deallocated on    2 nodes for type:  7
       PAW data deallocated on    4 nodes for type:  8

     total cpu time spent up to now is      550.1 secs

     Self-consistent Calculation

     iteration #  1     ecut=    60.00 Ry     beta= 0.70
     Davidson diagonalization with overlap

---- Real-time Memory Report at c_bands before calling an iterative solver
          1279 MiB given to the printing process from OS
             0 MiB allocation reported by mallinfo(arena+hblkhd)
          2371 MiB available memory on the node where the printing process lives
------------------
     ethr =  1.00E-02,  avg # of iterations =  6.0

     negative rho (up, down):  1.355E-04 1.650E-04

     total cpu time spent up to now is     2365.0 secs

     total energy              =   -5247.33832830 Ry
     estimated scf accuracy    <      24.96613206 Ry

     total magnetization       =     0.14 Bohr mag/cell
     absolute magnetization    =     8.08 Bohr mag/cell

     iteration #  2     ecut=    60.00 Ry     beta= 0.70
     Davidson diagonalization with overlap

---- Real-time Memory Report at c_bands before calling an iterative solver
          1883 MiB given to the printing process from OS
             0 MiB allocation reported by mallinfo(arena+hblkhd)
          3830 MiB available memory on the node where the printing process lives
------------------
     ethr =  4.76E-03,  avg # of iterations =  5.0

     negative rho (up, down):  2.903E-04 0.000E+00

     total cpu time spent up to now is     5169.0 secs

     total energy              =   -5256.15862538 Ry
     estimated scf accuracy    <      28.76310927 Ry

     total magnetization       =    -2.00 Bohr mag/cell
     absolute magnetization    =     6.76 Bohr mag/cell

     iteration #  3     ecut=    60.00 Ry     beta= 0.70
     Davidson diagonalization with overlap

---- Real-time Memory Report at c_bands before calling an iterative solver
          1888 MiB given to the printing process from OS
             0 MiB allocation reported by mallinfo(arena+hblkhd)
          3807 MiB available memory on the node where the printing process lives
------------------
     ethr =  4.76E-03,  avg # of iterations =  5.7

     negative rho (up, down):  1.334E-04 0.000E+00

     total cpu time spent up to now is     6640.1 secs

     total energy              =   -5259.41951936 Ry
     estimated scf accuracy    <      55.58848826 Ry

     total magnetization       =    -0.00 Bohr mag/cell
     absolute magnetization    =     1.34 Bohr mag/cell

     iteration #  4     ecut=    60.00 Ry     beta= 0.70
     Davidson diagonalization with overlap

---- Real-time Memory Report at c_bands before calling an iterative solver
          1893 MiB given to the printing process from OS
             0 MiB allocation reported by mallinfo(arena+hblkhd)
          3808 MiB available memory on the node where the printing process lives
------------------
     ethr =  4.76E-03,  avg # of iterations =  3.7

     negative rho (up, down):  2.636E-04 9.093E-05

     total cpu time spent up to now is     8106.2 secs

     total energy              =   -5260.92355313 Ry
     estimated scf accuracy    <       5.09981923 Ry

     total magnetization       =    -0.38 Bohr mag/cell
     absolute magnetization    =     9.24 Bohr mag/cell

     iteration #  5     ecut=    60.00 Ry     beta= 0.70
     Davidson diagonalization with overlap

---- Real-time Memory Report at c_bands before calling an iterative solver
          1897 MiB given to the printing process from OS
             0 MiB allocation reported by mallinfo(arena+hblkhd)
          3745 MiB available memory on the node where the printing process lives
------------------
     ethr =  9.73E-04,  avg # of iterations = 10.0

     negative rho (up, down):  2.849E-04 3.268E-04

     total cpu time spent up to now is     9888.2 secs

     total energy              =   -5261.91609923 Ry
     estimated scf accuracy    <       3.01065534 Ry

     total magnetization       =     2.00 Bohr mag/cell
     absolute magnetization    =     7.95 Bohr mag/cell

     iteration #  6     ecut=    60.00 Ry     beta= 0.70
     Davidson diagonalization with overlap

---- Real-time Memory Report at c_bands before calling an iterative solver
          1902 MiB given to the printing process from OS
             0 MiB allocation reported by mallinfo(arena+hblkhd)
          3770 MiB available memory on the node where the printing process lives
------------------
     ethr =  5.75E-04,  avg # of iterations =  5.9

     negative rho (up, down):  3.660E-04 2.453E-04

     total cpu time spent up to now is    11474.0 secs

     total energy              =   -5262.20033329 Ry
     estimated scf accuracy    <       1.59947431 Ry

     total magnetization       =    -2.00 Bohr mag/cell
     absolute magnetization    =     8.12 Bohr mag/cell

     iteration #  7     ecut=    60.00 Ry     beta= 0.70
     Davidson diagonalization with overlap

---- Real-time Memory Report at c_bands before calling an iterative solver
          1907 MiB given to the printing process from OS
             0 MiB allocation reported by mallinfo(arena+hblkhd)
          3768 MiB available memory on the node where the printing process lives
------------------
     ethr =  3.05E-04,  avg # of iterations = 11.2

     negative rho (up, down):  4.087E-04 3.090E-04

     total cpu time spent up to now is    13399.7 secs

     total energy              =   -5262.46182075 Ry
     estimated scf accuracy    <       0.17431287 Ry

     total magnetization       =    -0.00 Bohr mag/cell
     absolute magnetization    =     8.67 Bohr mag/cell

     iteration #  8     ecut=    60.00 Ry     beta= 0.70
     Davidson diagonalization with overlap

---- Real-time Memory Report at c_bands before calling an iterative solver
          1912 MiB given to the printing process from OS
             0 MiB allocation reported by mallinfo(arena+hblkhd)
          3770 MiB available memory on the node where the printing process lives
------------------
     c_bands:  3 eigenvalues not converged
     c_bands:  2 eigenvalues not converged
     c_bands:  1 eigenvalues not converged
     c_bands:  1 eigenvalues not converged
     c_bands:  2 eigenvalues not converged
     c_bands:  1 eigenvalues not converged
     c_bands:  4 eigenvalues not converged
     c_bands:  1 eigenvalues not converged
     c_bands:  2 eigenvalues not converged
     c_bands:  2 eigenvalues not converged
     c_bands:  5 eigenvalues not converged
     c_bands:  1 eigenvalues not converged
     c_bands:  1 eigenvalues not converged
     ethr =  3.33E-05,  avg # of iterations = 18.6

     negative rho (up, down):  4.007E-04 3.113E-04

     total cpu time spent up to now is    16776.5 secs

     total energy              =   -5262.50326215 Ry
     estimated scf accuracy    <       0.19917218 Ry

     total magnetization       =    -0.00 Bohr mag/cell
     absolute magnetization    =     8.10 Bohr mag/cell

     iteration #  9     ecut=    60.00 Ry     beta= 0.70
     Davidson diagonalization with overlap

---- Real-time Memory Report at c_bands before calling an iterative solver
          1917 MiB given to the printing process from OS
             0 MiB allocation reported by mallinfo(arena+hblkhd)
          3770 MiB available memory on the node where the printing process lives
------------------
     c_bands:  2 eigenvalues not converged
     ethr =  3.33E-05,  avg # of iterations =  5.5

     negative rho (up, down):  3.975E-04 3.196E-04

     total cpu time spent up to now is    18233.0 secs

     total energy              =   -5262.50021484 Ry
     estimated scf accuracy    <       0.05269309 Ry

     total magnetization       =     0.00 Bohr mag/cell
     absolute magnetization    =     8.09 Bohr mag/cell

     iteration # 10     ecut=    60.00 Ry     beta= 0.70
     Davidson diagonalization with overlap

---- Real-time Memory Report at c_bands before calling an iterative solver
          1922 MiB given to the printing process from OS
             0 MiB allocation reported by mallinfo(arena+hblkhd)
          3705 MiB available memory on the node where the printing process lives
------------------
     c_bands:  4 eigenvalues not converged
     c_bands:  1 eigenvalues not converged
     c_bands:  3 eigenvalues not converged
     c_bands:  2 eigenvalues not converged
     c_bands:  2 eigenvalues not converged
     c_bands:  2 eigenvalues not converged
     c_bands:  3 eigenvalues not converged
     c_bands:  2 eigenvalues not converged
     c_bands:  4 eigenvalues not converged
     c_bands:  2 eigenvalues not converged
     c_bands:  2 eigenvalues not converged
     c_bands:  1 eigenvalues not converged
     ethr =  1.01E-05,  avg # of iterations = 16.4

     negative rho (up, down):  4.005E-04 3.264E-04

     total cpu time spent up to now is    20722.2 secs

     total energy              =   -5262.52658257 Ry
     estimated scf accuracy    <       0.02545193 Ry

     total magnetization       =     0.00 Bohr mag/cell
     absolute magnetization    =     8.07 Bohr mag/cell

     iteration # 11     ecut=    60.00 Ry     beta= 0.70
     Davidson diagonalization with overlap

---- Real-time Memory Report at c_bands before calling an iterative solver
          1922 MiB given to the printing process from OS
             0 MiB allocation reported by mallinfo(arena+hblkhd)
          3731 MiB available memory on the node where the printing process lives
------------------
     c_bands:  3 eigenvalues not converged
     c_bands:  1 eigenvalues not converged
     c_bands:  5 eigenvalues not converged
     c_bands:  3 eigenvalues not converged
     c_bands:  3 eigenvalues not converged
     c_bands:  2 eigenvalues not converged
     c_bands:  2 eigenvalues not converged
     c_bands:  3 eigenvalues not converged
     c_bands:  1 eigenvalues not converged
     c_bands:  1 eigenvalues not converged
     c_bands:  1 eigenvalues not converged
     c_bands:  1 eigenvalues not converged
     c_bands:  2 eigenvalues not converged
     c_bands:  1 eigenvalues not converged
     ethr =  4.86E-06,  avg # of iterations = 17.6

     negative rho (up, down):  4.015E-04 3.428E-04

     total cpu time spent up to now is    22639.6 secs

     total energy              =   -5262.52729282 Ry
     estimated scf accuracy    <       0.01529660 Ry

     total magnetization       =     0.00 Bohr mag/cell
     absolute magnetization    =     8.07 Bohr mag/cell

     iteration # 12     ecut=    60.00 Ry     beta= 0.70
     Davidson diagonalization with overlap

---- Real-time Memory Report at c_bands before calling an iterative solver
          1922 MiB given to the printing process from OS
             0 MiB allocation reported by mallinfo(arena+hblkhd)
          3733 MiB available memory on the node where the printing process lives
------------------
     c_bands:  1 eigenvalues not converged
     c_bands:  1 eigenvalues not converged
     c_bands:  1 eigenvalues not converged
     c_bands:  1 eigenvalues not converged
     c_bands:  2 eigenvalues not converged
     ethr =  2.92E-06,  avg # of iterations = 13.2

     negative rho (up, down):  3.987E-04 3.589E-04

     total cpu time spent up to now is    24291.6 secs

     total energy              =   -5262.52851883 Ry
     estimated scf accuracy    <       0.00834824 Ry

     total magnetization       =    -0.00 Bohr mag/cell
     absolute magnetization    =     8.08 Bohr mag/cell

     iteration # 13     ecut=    60.00 Ry     beta= 0.70
     Davidson diagonalization with overlap

---- Real-time Memory Report at c_bands before calling an iterative solver
          1922 MiB given to the printing process from OS
             0 MiB allocation reported by mallinfo(arena+hblkhd)
          3732 MiB available memory on the node where the printing process lives
------------------
     c_bands:  1 eigenvalues not converged
     c_bands:  1 eigenvalues not converged
     c_bands:  2 eigenvalues not converged
     c_bands:  1 eigenvalues not converged
     ethr =  1.59E-06,  avg # of iterations =  9.0

     negative rho (up, down):  3.971E-04 3.630E-04

     total cpu time spent up to now is    26028.1 secs

     total energy              =   -5262.52954834 Ry
     estimated scf accuracy    <       0.00637607 Ry

     total magnetization       =    -0.00 Bohr mag/cell
     absolute magnetization    =     8.08 Bohr mag/cell

     iteration # 14     ecut=    60.00 Ry     beta= 0.70
     Davidson diagonalization with overlap

---- Real-time Memory Report at c_bands before calling an iterative solver
          1922 MiB given to the printing process from OS
             0 MiB allocation reported by mallinfo(arena+hblkhd)
          3731 MiB available memory on the node where the printing process lives
------------------
     ethr =  1.22E-06,  avg # of iterations =  2.0

     negative rho (up, down):  3.947E-04 3.622E-04

     total cpu time spent up to now is    27512.7 secs

     total energy              =   -5262.52983879 Ry
     estimated scf accuracy    <       0.00532725 Ry

     total magnetization       =     0.00 Bohr mag/cell
     absolute magnetization    =     8.08 Bohr mag/cell

     iteration # 15     ecut=    60.00 Ry     beta= 0.70
     Davidson diagonalization with overlap

---- Real-time Memory Report at c_bands before calling an iterative solver
          1922 MiB given to the printing process from OS
             0 MiB allocation reported by mallinfo(arena+hblkhd)
          3734 MiB available memory on the node where the printing process lives
------------------
     ethr =  1.02E-06,  avg # of iterations =  2.0

     negative rho (up, down):  3.807E-04 3.821E-04

     total cpu time spent up to now is    28957.2 secs

     total energy              =   -5262.52749364 Ry
     estimated scf accuracy    <       0.00542861 Ry

     total magnetization       =     0.00 Bohr mag/cell
     absolute magnetization    =     8.08 Bohr mag/cell

     iteration # 16     ecut=    60.00 Ry     beta= 0.70
     Davidson diagonalization with overlap

---- Real-time Memory Report at c_bands before calling an iterative solver
          1922 MiB given to the printing process from OS
             0 MiB allocation reported by mallinfo(arena+hblkhd)
          3735 MiB available memory on the node where the printing process lives
------------------
     ethr =  1.02E-06,  avg # of iterations =  5.7

     negative rho (up, down):  3.806E-04 3.825E-04

     total cpu time spent up to now is    31786.8 secs

     total energy              =   -5262.52913528 Ry
     estimated scf accuracy    <       0.01022667 Ry

     total magnetization       =    -0.00 Bohr mag/cell
     absolute magnetization    =     8.07 Bohr mag/cell

     iteration # 17     ecut=    60.00 Ry     beta= 0.70
     Davidson diagonalization with overlap

---- Real-time Memory Report at c_bands before calling an iterative solver
          1922 MiB given to the printing process from OS
             0 MiB allocation reported by mallinfo(arena+hblkhd)
          3740 MiB available memory on the node where the printing process lives
------------------
     ethr =  1.02E-06,  avg # of iterations =  2.0

     negative rho (up, down):  3.808E-04 3.826E-04

     total cpu time spent up to now is    33209.9 secs

     total energy              =   -5262.52742341 Ry
     estimated scf accuracy    <       0.00402032 Ry

     total magnetization       =    -0.00 Bohr mag/cell
     absolute magnetization    =     8.07 Bohr mag/cell

     iteration # 18     ecut=    60.00 Ry     beta= 0.70
     Davidson diagonalization with overlap

---- Real-time Memory Report at c_bands before calling an iterative solver
          1922 MiB given to the printing process from OS
             0 MiB allocation reported by mallinfo(arena+hblkhd)
          3738 MiB available memory on the node where the printing process lives
------------------
     ethr =  7.67E-07,  avg # of iterations =  4.2

     negative rho (up, down):  3.809E-04 3.804E-04

     total cpu time spent up to now is    35349.6 secs

     total energy              =   -5262.52889850 Ry
     estimated scf accuracy    <       0.00024317 Ry

     total magnetization       =     0.00 Bohr mag/cell
     absolute magnetization    =     8.07 Bohr mag/cell

     iteration # 19     ecut=    60.00 Ry     beta= 0.70
     Davidson diagonalization with overlap

---- Real-time Memory Report at c_bands before calling an iterative solver
          1922 MiB given to the printing process from OS
             0 MiB allocation reported by mallinfo(arena+hblkhd)
          3739 MiB available memory on the node where the printing process lives
------------------
     ethr =  4.64E-08,  avg # of iterations =  6.2

     negative rho (up, down):  3.803E-04 3.801E-04

     total cpu time spent up to now is    37879.4 secs

     total energy              =   -5262.52905390 Ry
     estimated scf accuracy    <       0.00001964 Ry

     total magnetization       =     0.00 Bohr mag/cell
     absolute magnetization    =     8.07 Bohr mag/cell

     iteration # 20     ecut=    60.00 Ry     beta= 0.70
     Davidson diagonalization with overlap

---- Real-time Memory Report at c_bands before calling an iterative solver
          1922 MiB given to the printing process from OS
             0 MiB allocation reported by mallinfo(arena+hblkhd)
          3736 MiB available memory on the node where the printing process lives
------------------
     ethr =  3.75E-09,  avg # of iterations =  6.8

     negative rho (up, down):  3.801E-04 3.798E-04

     total cpu time spent up to now is    40676.0 secs

     total energy              =   -5262.52907007 Ry
     estimated scf accuracy    <       0.00001196 Ry

     total magnetization       =     0.00 Bohr mag/cell
     absolute magnetization    =     8.07 Bohr mag/cell

     iteration # 21     ecut=    60.00 Ry     beta= 0.70
     Davidson diagonalization with overlap

---- Real-time Memory Report at c_bands before calling an iterative solver
          1922 MiB given to the printing process from OS
             0 MiB allocation reported by mallinfo(arena+hblkhd)
          3730 MiB available memory on the node where the printing process lives
------------------
     ethr =  2.28E-09,  avg # of iterations =  2.6

     negative rho (up, down):  3.799E-04 3.798E-04

     total cpu time spent up to now is    42261.7 secs

     total energy              =   -5262.52907062 Ry
     estimated scf accuracy    <       0.00000228 Ry

     total magnetization       =     0.00 Bohr mag/cell
     absolute magnetization    =     8.07 Bohr mag/cell

     iteration # 22     ecut=    60.00 Ry     beta= 0.70
     Davidson diagonalization with overlap

---- Real-time Memory Report at c_bands before calling an iterative solver
          1922 MiB given to the printing process from OS
             0 MiB allocation reported by mallinfo(arena+hblkhd)
          3729 MiB available memory on the node where the printing process lives
------------------
     ethr =  4.35E-10,  avg # of iterations =  7.7

     negative rho (up, down):  3.798E-04 3.798E-04

     total cpu time spent up to now is    45975.3 secs

     total energy              =   -5262.52907248 Ry
     estimated scf accuracy    <       0.00000680 Ry

     total magnetization       =    -0.00 Bohr mag/cell
     absolute magnetization    =     8.07 Bohr mag/cell

     iteration # 23     ecut=    60.00 Ry     beta= 0.70
     Davidson diagonalization with overlap

---- Real-time Memory Report at c_bands before calling an iterative solver
          1922 MiB given to the printing process from OS
             0 MiB allocation reported by mallinfo(arena+hblkhd)
          3728 MiB available memory on the node where the printing process lives
------------------
     ethr =  4.35E-10,  avg # of iterations =  4.0

     negative rho (up, down):  3.798E-04 3.797E-04

     total cpu time spent up to now is    47737.8 secs

     total energy              =   -5262.52907230 Ry
     estimated scf accuracy    <       0.00000132 Ry

     total magnetization       =     0.00 Bohr mag/cell
     absolute magnetization    =     8.07 Bohr mag/cell

     iteration # 24     ecut=    60.00 Ry     beta= 0.70
     Davidson diagonalization with overlap

---- Real-time Memory Report at c_bands before calling an iterative solver
          1922 MiB given to the printing process from OS
             0 MiB allocation reported by mallinfo(arena+hblkhd)
          3737 MiB available memory on the node where the printing process lives
------------------
     ethr =  2.52E-10,  avg # of iterations =  5.9

     negative rho (up, down):  3.798E-04 3.797E-04

     total cpu time spent up to now is    50532.8 secs

     total energy              =   -5262.52907321 Ry
     estimated scf accuracy    <       0.00000073 Ry

     total magnetization       =     0.00 Bohr mag/cell
     absolute magnetization    =     8.07 Bohr mag/cell

     iteration # 25     ecut=    60.00 Ry     beta= 0.70
     Davidson diagonalization with overlap

---- Real-time Memory Report at c_bands before calling an iterative solver
          1922 MiB given to the printing process from OS
             0 MiB allocation reported by mallinfo(arena+hblkhd)
          3729 MiB available memory on the node where the printing process lives
------------------
     ethr =  1.40E-10,  avg # of iterations =  1.8

     negative rho (up, down):  3.798E-04 3.797E-04

     total cpu time spent up to now is    51897.5 secs

     total energy              =   -5262.52907318 Ry
     estimated scf accuracy    <       0.00000024 Ry

     total magnetization       =     0.00 Bohr mag/cell
     absolute magnetization    =     8.07 Bohr mag/cell

     iteration # 26     ecut=    60.00 Ry     beta= 0.70
     Davidson diagonalization with overlap

---- Real-time Memory Report at c_bands before calling an iterative solver
          1922 MiB given to the printing process from OS
             0 MiB allocation reported by mallinfo(arena+hblkhd)
          3727 MiB available memory on the node where the printing process lives
------------------
     ethr =  4.61E-11,  avg # of iterations =  2.9

     negative rho (up, down):  3.797E-04 3.797E-04

     total cpu time spent up to now is    53602.9 secs

     total energy              =   -5262.52907325 Ry
     estimated scf accuracy    <       0.00000002 Ry

     total magnetization       =     0.00 Bohr mag/cell
     absolute magnetization    =     8.07 Bohr mag/cell

     iteration # 27     ecut=    60.00 Ry     beta= 0.70
     Davidson diagonalization with overlap

---- Real-time Memory Report at c_bands before calling an iterative solver
          1922 MiB given to the printing process from OS
             0 MiB allocation reported by mallinfo(arena+hblkhd)
          3731 MiB available memory on the node where the printing process lives
------------------
     ethr =  4.39E-12,  avg # of iterations = 14.3

     negative rho (up, down):  3.797E-04 3.797E-04

     total cpu time spent up to now is    58476.3 secs

     total energy              =   -5262.52907328 Ry
     estimated scf accuracy    <       0.00000005 Ry

     total magnetization       =    -0.00 Bohr mag/cell
     absolute magnetization    =     8.07 Bohr mag/cell

     iteration # 28     ecut=    60.00 Ry     beta= 0.70
     Davidson diagonalization with overlap

---- Real-time Memory Report at c_bands before calling an iterative solver
          1922 MiB given to the printing process from OS
             0 MiB allocation reported by mallinfo(arena+hblkhd)
          3741 MiB available memory on the node where the printing process lives
------------------
     ethr =  4.39E-12,  avg # of iterations =  2.0

     negative rho (up, down):  3.797E-04 3.797E-04

     total cpu time spent up to now is    59990.6 secs

     total energy              =   -5262.52907327 Ry
     estimated scf accuracy    <       0.00000001 Ry

     total magnetization       =    -0.00 Bohr mag/cell
     absolute magnetization    =     8.07 Bohr mag/cell

     iteration # 29     ecut=    60.00 Ry     beta= 0.70
     Davidson diagonalization with overlap

---- Real-time Memory Report at c_bands before calling an iterative solver
          1922 MiB given to the printing process from OS
             0 MiB allocation reported by mallinfo(arena+hblkhd)
          3740 MiB available memory on the node where the printing process lives
------------------
     ethr =  2.60E-12,  avg # of iterations =  6.0

     negative rho (up, down):  3.797E-04 3.797E-04

     total cpu time spent up to now is    62926.6 secs

     total energy              =   -5262.52907328 Ry
     estimated scf accuracy    <       0.00000001 Ry

     total magnetization       =    -0.00 Bohr mag/cell
     absolute magnetization    =     8.07 Bohr mag/cell

     iteration # 30     ecut=    60.00 Ry     beta= 0.70
     Davidson diagonalization with overlap

---- Real-time Memory Report at c_bands before calling an iterative solver
          1922 MiB given to the printing process from OS
             0 MiB allocation reported by mallinfo(arena+hblkhd)
          3744 MiB available memory on the node where the printing process lives
------------------
     ethr =  2.51E-12,  avg # of iterations =  2.0

     negative rho (up, down):  3.797E-04 3.797E-04

     total cpu time spent up to now is    64357.4 secs

     total energy              =   -5262.52907328 Ry
     estimated scf accuracy    <       0.00000001 Ry

     total magnetization       =    -0.00 Bohr mag/cell
     absolute magnetization    =     8.07 Bohr mag/cell

     iteration # 31     ecut=    60.00 Ry     beta= 0.70
     Davidson diagonalization with overlap

---- Real-time Memory Report at c_bands before calling an iterative solver
          1922 MiB given to the printing process from OS
             0 MiB allocation reported by mallinfo(arena+hblkhd)
          3744 MiB available memory on the node where the printing process lives
------------------
     ethr =  2.51E-12,  avg # of iterations =  2.0

     negative rho (up, down):  3.797E-04 3.797E-04

     Magnetic moment per site  (integrated on atomic sphere of radius R)
     atom   1 (R=0.108)  charge=  7.5453  magn=  0.0000
     atom   2 (R=0.108)  charge=  7.5453  magn= -0.0000
     atom   3 (R=0.108)  charge=  7.5493  magn= -0.0000
     atom   4 (R=0.108)  charge=  7.5493  magn= -0.0000
     atom   5 (R=0.079)  charge=  8.1103  magn= -0.0003
     atom   6 (R=0.079)  charge=  8.1103  magn=  0.0003
     atom   7 (R=0.079)  charge=  8.1071  magn= -0.0001
     atom   8 (R=0.079)  charge=  8.1071  magn=  0.0001
     atom   9 (R=0.079)  charge=  8.1096  magn= -0.0000
     atom  10 (R=0.079)  charge=  8.1096  magn= -0.0000
     atom  11 (R=0.079)  charge=  8.1058  magn= -0.0000
     atom  12 (R=0.079)  charge=  8.1058  magn= -0.0000
     atom  13 (R=0.079)  charge=  8.1127  magn= -0.0000
     atom  14 (R=0.079)  charge=  8.1127  magn= -0.0000
     atom  15 (R=0.063)  charge=  0.5514  magn=  0.0008
     atom  16 (R=0.063)  charge=  0.5514  magn= -0.0008
     atom  17 (R=0.063)  charge=  0.5514  magn= -0.0008
     atom  18 (R=0.063)  charge=  0.5514  magn=  0.0008
     atom  19 (R=0.063)  charge=  0.5437  magn=  0.0000
     atom  20 (R=0.063)  charge=  0.5437  magn= -0.0000
     atom  21 (R=0.063)  charge=  0.5437  magn= -0.0000
     atom  22 (R=0.063)  charge=  0.5437  magn=  0.0000
     atom  23 (R=0.063)  charge=  0.5433  magn= -0.0000
     atom  24 (R=0.063)  charge=  0.5433  magn=  0.0000
     atom  25 (R=0.063)  charge=  0.5433  magn=  0.0000
     atom  26 (R=0.063)  charge=  0.5433  magn= -0.0000
     atom  27 (R=0.068)  charge=  0.3428  magn=  0.0013
     atom  28 (R=0.068)  charge=  0.3428  magn= -0.0013
     atom  29 (R=0.068)  charge=  0.3428  magn= -0.0013
     atom  30 (R=0.068)  charge=  0.3428  magn=  0.0013
     atom  31 (R=0.037)  charge=  1.9373  magn=  0.0151
     atom  32 (R=0.037)  charge=  1.9373  magn= -0.0151
     atom  33 (R=0.037)  charge=  1.9373  magn= -0.0151
     atom  34 (R=0.037)  charge=  1.9373  magn=  0.0151
     atom  35 (R=0.037)  charge=  1.9406  magn= -0.0004
     atom  36 (R=0.037)  charge=  1.9406  magn=  0.0004
     atom  37 (R=0.037)  charge=  1.9406  magn=  0.0004
     atom  38 (R=0.037)  charge=  1.9406  magn= -0.0004
     atom  39 (R=0.037)  charge=  1.9398  magn=  0.0003
     atom  40 (R=0.037)  charge=  1.9398  magn= -0.0003
     atom  41 (R=0.037)  charge=  1.9398  magn= -0.0003
     atom  42 (R=0.037)  charge=  1.9398  magn=  0.0003
     atom  43 (R=0.037)  charge=  1.9320  magn=  0.0273
     atom  44 (R=0.037)  charge=  1.9320  magn= -0.0273
     atom  45 (R=0.037)  charge=  1.9320  magn= -0.0273
     atom  46 (R=0.037)  charge=  1.9320  magn=  0.0273
     atom  47 (R=0.037)  charge=  1.9408  magn= -0.0003
     atom  48 (R=0.037)  charge=  1.9408  magn=  0.0003
     atom  49 (R=0.037)  charge=  1.9408  magn=  0.0003
     atom  50 (R=0.037)  charge=  1.9408  magn= -0.0003
     atom  51 (R=0.037)  charge=  1.9456  magn=  0.0008
     atom  52 (R=0.037)  charge=  1.9456  magn= -0.0008
     atom  53 (R=0.037)  charge=  1.9456  magn= -0.0008
     atom  54 (R=0.037)  charge=  1.9456  magn=  0.0008
     atom  55 (R=0.037)  charge=  1.9462  magn= -0.0001
     atom  56 (R=0.037)  charge=  1.9462  magn=  0.0001
     atom  57 (R=0.037)  charge=  1.9462  magn=  0.0001
     atom  58 (R=0.037)  charge=  1.9462  magn= -0.0001
     atom  59 (R=0.037)  charge=  1.9455  magn= -0.0001
     atom  60 (R=0.037)  charge=  1.9455  magn=  0.0001
     atom  61 (R=0.037)  charge=  1.9455  magn=  0.0001
     atom  62 (R=0.037)  charge=  1.9455  magn= -0.0001
     atom  63 (R=0.037)  charge=  1.9393  magn= -0.0003
     atom  64 (R=0.037)  charge=  1.9393  magn=  0.0003
     atom  65 (R=0.037)  charge=  1.9393  magn=  0.0003
     atom  66 (R=0.037)  charge=  1.9393  magn= -0.0003
     atom  67 (R=0.037)  charge=  1.9413  magn= -0.0001
     atom  68 (R=0.037)  charge=  1.9413  magn=  0.0001
     atom  69 (R=0.037)  charge=  1.9413  magn=  0.0001
     atom  70 (R=0.037)  charge=  1.9413  magn= -0.0001
     atom  71 (R=0.037)  charge=  1.9377  magn=  0.0205
     atom  72 (R=0.037)  charge=  1.9377  magn= -0.0204
     atom  73 (R=0.037)  charge=  1.9377  magn= -0.0204
     atom  74 (R=0.037)  charge=  1.9377  magn=  0.0205
     atom  75 (R=0.037)  charge=  1.9429  magn=  0.0002
     atom  76 (R=0.037)  charge=  1.9429  magn= -0.0002
     atom  77 (R=0.037)  charge=  1.9429  magn= -0.0002
     atom  78 (R=0.037)  charge=  1.9429  magn=  0.0002
     atom  79 (R=0.037)  charge=  0.3996  magn=  0.0001
     atom  80 (R=0.037)  charge=  0.3996  magn= -0.0001
     atom  81 (R=0.037)  charge=  0.3996  magn= -0.0001
     atom  82 (R=0.037)  charge=  0.3996  magn=  0.0001
     atom  83 (R=0.037)  charge=  0.4002  magn= -0.0000
     atom  84 (R=0.037)  charge=  0.4002  magn=  0.0000
     atom  85 (R=0.037)  charge=  0.4002  magn=  0.0000
     atom  86 (R=0.037)  charge=  0.4002  magn= -0.0000
     atom  87 (R=0.078)  charge= 13.2618  magn=  3.2769
     atom  88 (R=0.078)  charge= 13.2618  magn= -3.2769

     total cpu time spent up to now is    65778.0 secs

     End of self-consistent calculation

 ------ SPIN UP ------------


          k = 0.0000 0.0000 0.0000 ( 53615 PWs)   bands (ev):

   -81.5398 -77.4147 -67.8961 -67.8961 -67.8683 -67.8682 -67.6853 -67.6851
   -67.5447 -67.5447 -67.3811 -67.3810 -48.5393 -47.2245 -47.0237 -43.8308
   -43.4856 -43.4004 -34.6647 -34.6633 -34.6476 -34.6441 -34.6397 -34.6371
   -34.6275 -34.6256 -34.6249 -34.6232 -34.6035 -34.6032 -34.4505 -34.4501
   -34.4407 -34.4405 -34.4204 -34.4202 -34.3045 -34.3044 -34.2959 -34.2958
   -34.2884 -34.2884 -34.1444 -34.1442 -34.1309 -34.1308 -34.1235 -34.1233
   -23.4854 -23.4849 -23.4621 -23.4616 -15.2377 -15.1935 -14.8674 -14.8348
   -14.6114 -14.5819 -14.3240 -14.2865 -14.0584 -14.0330 -13.7923 -13.7773
   -13.6200 -13.5154 -13.4493 -13.3547 -13.3253 -13.2857 -13.2281 -13.2254
   -13.1647 -13.1500 -13.1108 -13.1086 -13.0836 -13.0698 -13.0489 -13.0446
   -12.9579 -12.9384 -12.8716 -12.8360 -12.8027 -12.7799 -12.7118 -12.6869
   -12.6521 -12.6051 -12.5403 -12.5197 -12.4452 -12.3825 -12.3512 -12.3028
   -11.7644 -11.6885 -11.5237 -11.4494  -7.0397  -7.0329  -7.0092  -7.0023
    -6.9579  -6.9552  -6.9515  -6.9424  -6.9410  -6.9395  -6.9359  -6.9336
    -4.4976  -4.4570  -3.5357  -3.4781  -3.0316  -2.9710  -2.6298  -2.5482
    -2.0175  -1.9434  -1.8676  -1.5494  -1.4894  -1.4438  -1.3872  -1.3648
    -1.2749  -1.2199  -1.1298  -1.1097  -0.9724  -0.9088  -0.8432  -0.8415
    -0.7773  -0.5904  -0.5538  -0.5225  -0.4450  -0.4095  -0.3743  -0.3176
    -0.2042  -0.2031  -0.1783  -0.1120  -0.0036   0.1706   0.1803   0.2113
     0.2514   0.3048   0.3260   0.3484   0.4606   0.4797   0.4949   0.6267
     0.6900   0.6964   0.7899   0.8292   0.8631   0.9055   0.9248   1.0230
     1.1648   1.2005   1.2535   1.2584   1.2608   1.2854   1.3031   1.4216
     1.4280   1.4862   1.4897   1.5738   1.5865   1.6261   1.6752   1.8501
     1.8675   1.8982   1.8996   1.9469   1.9855   2.0161   2.0407   2.1555
     2.1608   2.1875   2.2556   2.2765   2.3508   2.3752   2.3846   2.3899
     2.4251   2.4769   2.4911   2.5202   2.5530   2.5802   2.5812   2.6251
     2.6314   2.6388   2.7055   2.7719   2.7764   2.8078   2.8135   2.8327
     2.8560   2.8896   2.9068   2.9511   2.9965   3.0095   3.0620   3.0819
     3.0918   3.1277   3.1329   3.1609   3.1637   3.1750   3.2126   3.2234
     3.2240   3.2798   3.3097   3.3216   3.3346   3.3572   3.3751   3.4180
     3.4526   3.5024   3.5212   3.5415   3.5429   3.6043   3.6303   3.6314
     3.6627   3.6749   3.6977   3.8306   3.8768   3.9415   4.0632   4.1106
     4.9886   5.1063   6.0213   6.4733   6.7125   7.8550   8.6150   8.6359
     8.7198   9.6395  10.0994  10.2313  10.7298  10.7589  10.8550  11.1636
    11.2609  11.3798  11.5475  11.5714  11.5952  11.6645  11.8097  12.0978
    12.1403  12.1799  12.2444  12.3358  12.4413  12.6026  12.6175  12.7202
    12.7723  12.8021  12.8221  12.8700  12.9549  12.9994  13.1141  13.1259
    13.1622  13.2169  13.2689  13.3827  13.4348  13.4503  13.4862  13.5083
    13.5301  13.5442  13.5530  13.6323  13.6559  13.6758  13.7140  13.8480
    13.9444  13.9583

     occupation numbers 
     1.0000   1.0000   1.0000   1.0000   1.0000   1.0000   1.0000   1.0000
     1.0000   1.0000   1.0000   1.0000   1.0000   1.0000   1.0000   1.0000
     1.0000   1.0000   1.0000   1.0000   1.0000   1.0000   1.0000   1.0000
     1.0000   1.0000   1.0000   1.0000   1.0000   1.0000   1.0000   1.0000
     1.0000   1.0000   1.0000   1.0000   1.0000   1.0000   1.0000   1.0000
     1.0000   1.0000   1.0000   1.0000   1.0000   1.0000   1.0000   1.0000
     1.0000   1.0000   1.0000   1.0000   1.0000   1.0000   1.0000   1.0000
     1.0000   1.0000   1.0000   1.0000   1.0000   1.0000   1.0000   1.0000
     1.0000   1.0000   1.0000   1.0000   1.0000   1.0000   1.0000   1.0000
     1.0000   1.0000   1.0000   1.0000   1.0000   1.0000   1.0000   1.0000
     1.0000   1.0000   1.0000   1.0000   1.0000   1.0000   1.0000   1.0000
     1.0000   1.0000   1.0000   1.0000   1.0000   1.0000   1.0000   1.0000
     1.0000   1.0000   1.0000   1.0000   1.0000   1.0000   1.0000   1.0000
     1.0000   1.0000   1.0000   1.0000   1.0000   1.0000   1.0000   1.0000
     1.0000   1.0000   1.0000   1.0000   1.0000   1.0000   1.0000   1.0000
     1.0000   1.0000   1.0000   1.0000   1.0000   1.0000   1.0000   1.0000
     1.0000   1.0000   1.0000   1.0000   1.0000   1.0000   1.0000   1.0000
     1.0000   1.0000   1.0000   1.0000   1.0000   1.0000   1.0000   1.0000
     1.0000   1.0000   1.0000   1.0000   1.0000   1.0000   1.0000   1.0000
     1.0000   1.0000   1.0000   1.0000   1.0000   1.0000   1.0000   1.0000
     1.0000   1.0000   1.0000   1.0000   1.0000   1.0000   1.0000   1.0000
     1.0000   1.0000   1.0000   1.0000   1.0000   1.0000   1.0000   1.0000
     1.0000   1.0000   1.0000   1.0000   1.0000   1.0000   1.0000   1.0000
     1.0000   1.0000   1.0000   1.0000   1.0000   1.0000   1.0000   1.0000
     1.0000   1.0000   1.0000   1.0000   1.0000   1.0000   1.0000   1.0000
     1.0000   1.0000   1.0000   1.0000   1.0000   1.0000   1.0000   1.0000
     1.0000   1.0000   1.0000   1.0000   1.0000   1.0000   1.0000   1.0000
     1.0000   1.0000   1.0000   1.0000   1.0000   1.0000   1.0000   1.0000
     1.0000   1.0000   1.0000   1.0000   1.0000   1.0000   1.0000   1.0000
     1.0000   1.0000   1.0000   1.0000   1.0000   1.0000   1.0000   1.0000
     1.0000   1.0000   1.0000   1.0000   1.0000   1.0000   1.0000   1.0000
     1.0000   1.0000   1.0000   1.0000   1.0000   1.0000   1.0000   1.0000
     1.0000   1.0000   1.0000   1.0000   1.0000   1.0000   0.0000   0.0000
     0.0000   0.0000   0.0000   0.0000   0.0000   0.0000   0.0000   0.0000
     0.0000   0.0000   0.0000   0.0000   0.0000   0.0000   0.0000   0.0000
     0.0000   0.0000   0.0000   0.0000   0.0000   0.0000   0.0000   0.0000
     0.0000   0.0000   0.0000   0.0000   0.0000   0.0000   0.0000   0.0000
     0.0000   0.0000   0.0000   0.0000   0.0000   0.0000   0.0000   0.0000
     0.0000   0.0000   0.0000   0.0000   0.0000   0.0000   0.0000   0.0000
     0.0000   0.0000

          k = 0.0000 0.0000 0.3466 ( 53569 PWs)   bands (ev):

   -81.5398 -77.4147 -67.8961 -67.8961 -67.8683 -67.8682 -67.6853 -67.6851
   -67.5447 -67.5447 -67.3811 -67.3810 -48.5393 -47.2245 -47.0237 -43.8308
   -43.4856 -43.4004 -34.6647 -34.6633 -34.6476 -34.6441 -34.6396 -34.6371
   -34.6275 -34.6256 -34.6249 -34.6232 -34.6034 -34.6032 -34.4505 -34.4501
   -34.4407 -34.4405 -34.4204 -34.4202 -34.3045 -34.3044 -34.2959 -34.2958
   -34.2884 -34.2883 -34.1444 -34.1442 -34.1309 -34.1307 -34.1235 -34.1233
   -23.4854 -23.4849 -23.4621 -23.4616 -15.2279 -15.2038 -14.8605 -14.8421
   -14.6047 -14.5887 -14.3149 -14.2961 -14.0553 -14.0362 -13.7926 -13.7769
   -13.6117 -13.5291 -13.4444 -13.3550 -13.3231 -13.2839 -13.2244 -13.2194
   -13.1699 -13.1641 -13.1093 -13.1048 -13.0842 -13.0675 -13.0552 -13.0384
   -12.9567 -12.9345 -12.8706 -12.8386 -12.8009 -12.7876 -12.7074 -12.6749
   -12.6566 -12.6140 -12.5420 -12.5178 -12.4404 -12.3765 -12.3562 -12.3081
   -11.7643 -11.6877 -11.5246 -11.4499  -7.0397  -7.0329  -7.0092  -7.0023
    -6.9578  -6.9552  -6.9515  -6.9424  -6.9410  -6.9394  -6.9358  -6.9335
    -4.4943  -4.4606  -3.5215  -3.4926  -3.0179  -2.9866  -2.6109  -2.5700
    -1.9937  -1.9322  -1.8799  -1.5401  -1.4826  -1.4458  -1.3913  -1.3609
    -1.2720  -1.2323  -1.1289  -1.0998  -0.9558  -0.9141  -0.8497  -0.8226
    -0.7924  -0.6001  -0.5347  -0.5125  -0.4589  -0.4539  -0.3827  -0.3413
    -0.2433  -0.2274  -0.1501  -0.0940  -0.0451   0.1595   0.1725   0.2108
     0.2488   0.2780   0.3221   0.3345   0.4573   0.5096   0.5181   0.6088
     0.7044   0.7329   0.8061   0.8424   0.9085   0.9229   0.9550   0.9853
     1.1462   1.1604   1.1968   1.2643   1.2814   1.3365   1.3607   1.3811
     1.4240   1.4458   1.5603   1.6078   1.6387   1.6409   1.7739   1.8434
     1.8775   1.8931   1.9146   1.9429   1.9747   1.9987   2.0678   2.1209
     2.1453   2.1839   2.2163   2.2678   2.2935   2.3503   2.3714   2.3815
     2.3916   2.4354   2.4999   2.5312   2.5439   2.5494   2.5647   2.5907
     2.6198   2.6817   2.7357   2.7615   2.7946   2.8077   2.8368   2.8523
     2.8569   2.8823   2.9205   2.9510   2.9802   3.0481   3.0549   3.0773
     3.0954   3.1286   3.1390   3.1512   3.1724   3.1746   3.2114   3.2254
     3.2665   3.2850   3.3052   3.3345   3.3486   3.3561   3.3624   3.4066
     3.4199   3.4386   3.4749   3.5223   3.5606   3.5850   3.6088   3.6517
     3.6695   3.6873   3.7171   3.8440   3.9161   3.9450   4.0631   4.1071
     4.9863   5.1061   6.0208   6.4728   6.7149   7.8545   8.6135   8.6417
     9.0137   9.6162   9.7705  10.1136  10.6553  10.8763  10.9681  11.1153
    11.2016  11.3619  11.3787  11.6867  11.6988  11.7213  11.7434  12.1478
    12.1843  12.1984  12.3003  12.3171  12.4538  12.6163  12.6675  12.7037
    12.7860  12.8349  12.8879  12.9111  12.9474  12.9837  13.0348  13.1095
    13.1133  13.1871  13.3015  13.3128  13.3239  13.4302  13.4700  13.4928
    13.5159  13.5469  13.5733  13.6156  13.7333  13.7418  13.7619  13.7930
    13.8997  13.9555

     occupation numbers 
     1.0000   1.0000   1.0000   1.0000   1.0000   1.0000   1.0000   1.0000
     1.0000   1.0000   1.0000   1.0000   1.0000   1.0000   1.0000   1.0000
     1.0000   1.0000   1.0000   1.0000   1.0000   1.0000   1.0000   1.0000
     1.0000   1.0000   1.0000   1.0000   1.0000   1.0000   1.0000   1.0000
     1.0000   1.0000   1.0000   1.0000   1.0000   1.0000   1.0000   1.0000
     1.0000   1.0000   1.0000   1.0000   1.0000   1.0000   1.0000   1.0000
     1.0000   1.0000   1.0000   1.0000   1.0000   1.0000   1.0000   1.0000
     1.0000   1.0000   1.0000   1.0000   1.0000   1.0000   1.0000   1.0000
     1.0000   1.0000   1.0000   1.0000   1.0000   1.0000   1.0000   1.0000
     1.0000   1.0000   1.0000   1.0000   1.0000   1.0000   1.0000   1.0000
     1.0000   1.0000   1.0000   1.0000   1.0000   1.0000   1.0000   1.0000
     1.0000   1.0000   1.0000   1.0000   1.0000   1.0000   1.0000   1.0000
     1.0000   1.0000   1.0000   1.0000   1.0000   1.0000   1.0000   1.0000
     1.0000   1.0000   1.0000   1.0000   1.0000   1.0000   1.0000   1.0000
     1.0000   1.0000   1.0000   1.0000   1.0000   1.0000   1.0000   1.0000
     1.0000   1.0000   1.0000   1.0000   1.0000   1.0000   1.0000   1.0000
     1.0000   1.0000   1.0000   1.0000   1.0000   1.0000   1.0000   1.0000
     1.0000   1.0000   1.0000   1.0000   1.0000   1.0000   1.0000   1.0000
     1.0000   1.0000   1.0000   1.0000   1.0000   1.0000   1.0000   1.0000
     1.0000   1.0000   1.0000   1.0000   1.0000   1.0000   1.0000   1.0000
     1.0000   1.0000   1.0000   1.0000   1.0000   1.0000   1.0000   1.0000
     1.0000   1.0000   1.0000   1.0000   1.0000   1.0000   1.0000   1.0000
     1.0000   1.0000   1.0000   1.0000   1.0000   1.0000   1.0000   1.0000
     1.0000   1.0000   1.0000   1.0000   1.0000   1.0000   1.0000   1.0000
     1.0000   1.0000   1.0000   1.0000   1.0000   1.0000   1.0000   1.0000
     1.0000   1.0000   1.0000   1.0000   1.0000   1.0000   1.0000   1.0000
     1.0000   1.0000   1.0000   1.0000   1.0000   1.0000   1.0000   1.0000
     1.0000   1.0000   1.0000   1.0000   1.0000   1.0000   1.0000   1.0000
     1.0000   1.0000   1.0000   1.0000   1.0000   1.0000   1.0000   1.0000
     1.0000   1.0000   1.0000   1.0000   1.0000   1.0000   1.0000   1.0000
     1.0000   1.0000   1.0000   1.0000   1.0000   1.0000   1.0000   1.0000
     1.0000   1.0000   1.0000   1.0000   1.0000   1.0000   1.0000   1.0000
     1.0000   1.0000   1.0000   1.0000   1.0000   1.0000   0.0000   0.0000
     0.0000   0.0000   0.0000   0.0000   0.0000   0.0000   0.0000   0.0000
     0.0000   0.0000   0.0000   0.0000   0.0000   0.0000   0.0000   0.0000
     0.0000   0.0000   0.0000   0.0000   0.0000   0.0000   0.0000   0.0000
     0.0000   0.0000   0.0000   0.0000   0.0000   0.0000   0.0000   0.0000
     0.0000   0.0000   0.0000   0.0000   0.0000   0.0000   0.0000   0.0000
     0.0000   0.0000   0.0000   0.0000   0.0000   0.0000   0.0000   0.0000
     0.0000   0.0000

          k = 0.0000 0.3833 0.0000 ( 53593 PWs)   bands (ev):

   -81.5398 -77.4147 -67.8961 -67.8961 -67.8683 -67.8682 -67.6853 -67.6851
   -67.5447 -67.5447 -67.3811 -67.3810 -48.5393 -47.2245 -47.0237 -43.8308
   -43.4856 -43.4004 -34.6647 -34.6633 -34.6475 -34.6442 -34.6397 -34.6371
   -34.6275 -34.6256 -34.6249 -34.6232 -34.6035 -34.6032 -34.4505 -34.4501
   -34.4407 -34.4405 -34.4204 -34.4202 -34.3045 -34.3044 -34.2959 -34.2958
   -34.2884 -34.2884 -34.1444 -34.1442 -34.1309 -34.1307 -34.1235 -34.1233
   -23.4854 -23.4849 -23.4621 -23.4616 -15.2324 -15.1885 -14.8665 -14.8336
   -14.6110 -14.5815 -14.3597 -14.3180 -14.0626 -14.0378 -13.7923 -13.7774
   -13.5290 -13.4369 -13.4101 -13.3481 -13.3325 -13.2911 -13.2489 -13.2126
   -13.1665 -13.1557 -13.1541 -13.1326 -13.1142 -13.0964 -13.0739 -13.0518
   -12.9491 -12.9423 -12.8624 -12.8328 -12.8110 -12.7773 -12.7003 -12.6916
   -12.6478 -12.6096 -12.5400 -12.5196 -12.4404 -12.3811 -12.3484 -12.3016
   -11.7627 -11.6884 -11.5239 -11.4488  -7.0403  -7.0314  -7.0094  -7.0040
    -6.9568  -6.9548  -6.9505  -6.9422  -6.9422  -6.9395  -6.9367  -6.9336
    -4.4565  -4.4147  -3.5472  -3.4874  -3.0458  -2.9841  -2.7844  -2.6996
    -1.9617  -1.9185  -1.8445  -1.6124  -1.4838  -1.4293  -1.2682  -1.2661
    -1.1949  -1.1571  -1.1337  -1.1285  -0.9104  -0.9031  -0.8751  -0.8567
    -0.8115  -0.5388  -0.5113  -0.5049  -0.4404  -0.4170  -0.3543  -0.3298
    -0.2817  -0.2167  -0.2163  -0.0556  -0.0024   0.1243   0.1675   0.2102
[...]
     atom   57 type  7   force =     0.00000001    0.00000123   -0.00001197
     atom   58 type  7   force =     0.00000087    0.00000151   -0.00001218
     atom   59 type  7   force =     0.00000068   -0.00000095   -0.00001261
     atom   60 type  7   force =     0.00000164   -0.00000099   -0.00001129
     atom   61 type  7   force =    -0.00000164   -0.00000099    0.00001129
     atom   62 type  7   force =    -0.00000068   -0.00000095    0.00001261
     atom   63 type  7   force =    -0.00000107   -0.00000611   -0.00000962
     atom   64 type  7   force =     0.00000024   -0.00000569   -0.00000839
     atom   65 type  7   force =    -0.00000024   -0.00000569    0.00000839
     atom   66 type  7   force =     0.00000107   -0.00000611    0.00000962
     atom   67 type  7   force =     0.00000681    0.00000751    0.00000755
     atom   68 type  7   force =     0.00000711    0.00000746    0.00000718
     atom   69 type  7   force =    -0.00000711    0.00000746   -0.00000718
     atom   70 type  7   force =    -0.00000681    0.00000751   -0.00000755
     atom   71 type  7   force =    -0.00000088   -0.00000033    0.00000361
     atom   72 type  7   force =    -0.00000094   -0.00000235    0.00000222
     atom   73 type  7   force =     0.00000094   -0.00000235   -0.00000222
     atom   74 type  7   force =     0.00000088   -0.00000033   -0.00000361
     atom   75 type  7   force =     0.00000127   -0.00000029    0.00000407
     atom   76 type  7   force =     0.00000338   -0.00000002    0.00000608
     atom   77 type  7   force =    -0.00000338   -0.00000002   -0.00000608
     atom   78 type  7   force =    -0.00000127   -0.00000029   -0.00000407
     atom   79 type  4   force =    -0.00000015    0.00000021    0.00000153
     atom   80 type  4   force =    -0.00000015   -0.00000010    0.00000079
     atom   81 type  4   force =     0.00000015   -0.00000010   -0.00000079
     atom   82 type  4   force =     0.00000015    0.00000021   -0.00000153
     atom   83 type  4   force =     0.00000022   -0.00000028    0.00000222
     atom   84 type  4   force =     0.00000041   -0.00000028    0.00000246
     atom   85 type  4   force =    -0.00000041   -0.00000028   -0.00000246
     atom   86 type  4   force =    -0.00000022   -0.00000028   -0.00000222
     atom   87 type  2   force =     0.00000000   -0.00000794   -0.00000000
     atom   88 type  3   force =    -0.00000000   -0.00001111    0.00000000

     DFT-D3 dispersion contribution to forces:
     atom    1 type  5   force =     0.00000002    0.00118388   -0.00000000
     atom    2 type  5   force =     0.00000002    0.00118388   -0.00000000
     atom    3 type  5   force =     0.00000000   -0.00079008    0.00000000
     atom    4 type  5   force =     0.00000000   -0.00079008    0.00000000
     atom    5 type  6   force =    -0.00000000    0.00044534   -0.00000000
     atom    6 type  6   force =    -0.00000000    0.00044534   -0.00000000
     atom    7 type  6   force =    -0.00000000   -0.00130700   -0.00000000
     atom    8 type  6   force =    -0.00000000   -0.00130700   -0.00000000
     atom    9 type  6   force =     0.00000000   -0.00048774   -0.00000000
     atom   10 type  6   force =     0.00000000   -0.00048774   -0.00000000
     atom   11 type  6   force =     0.00000000    0.00113745   -0.00000000
     atom   12 type  6   force =     0.00000000    0.00113745   -0.00000000
     atom   13 type  6   force =     0.00000000   -0.00032633   -0.00000000
     atom   14 type  6   force =     0.00000000   -0.00032633   -0.00000000
     atom   15 type  8   force =    -0.00003848   -0.00005114   -0.00012272
     atom   16 type  8   force =    -0.00003848   -0.00005114   -0.00012272
     atom   17 type  8   force =     0.00003848   -0.00005114    0.00012272
     atom   18 type  8   force =     0.00003848   -0.00005114    0.00012272
     atom   19 type  8   force =     0.00004755    0.00002087    0.00025721
     atom   20 type  8   force =     0.00004755    0.00002087    0.00025721
     atom   21 type  8   force =    -0.00004755    0.00002087   -0.00025721
     atom   22 type  8   force =    -0.00004755    0.00002087   -0.00025721
     atom   23 type  8   force =     0.00001770    0.00025901   -0.00025571
     atom   24 type  8   force =     0.00001770    0.00025901   -0.00025571
     atom   25 type  8   force =    -0.00001770    0.00025901    0.00025571
     atom   26 type  8   force =    -0.00001770    0.00025901    0.00025571
     atom   27 type  1   force =    -0.00019900    0.00003783   -0.00101962
     atom   28 type  1   force =    -0.00019900    0.00003783   -0.00101962
     atom   29 type  1   force =     0.00019900    0.00003783    0.00101963
     atom   30 type  1   force =     0.00019900    0.00003783    0.00101963
     atom   31 type  7   force =    -0.00005475    0.00012410    0.00050022
     atom   32 type  7   force =    -0.00005475    0.00012410    0.00050022
     atom   33 type  7   force =     0.00005475    0.00012410   -0.00050022
     atom   34 type  7   force =     0.00005475    0.00012410   -0.00050022
     atom   35 type  7   force =     0.00000349    0.00000478   -0.00039206
     atom   36 type  7   force =     0.00000349    0.00000478   -0.00039206
     atom   37 type  7   force =    -0.00000349    0.00000478    0.00039206
     atom   38 type  7   force =    -0.00000349    0.00000478    0.00039206
     atom   39 type  7   force =    -0.00002071   -0.00000199    0.00039687
     atom   40 type  7   force =    -0.00002071   -0.00000199    0.00039687
     atom   41 type  7   force =     0.00002071   -0.00000199   -0.00039688
     atom   42 type  7   force =     0.00002071   -0.00000199   -0.00039688
     atom   43 type  7   force =    -0.00007860   -0.00001539    0.00002647
     atom   44 type  7   force =    -0.00007860   -0.00001539    0.00002647
     atom   45 type  7   force =     0.00007860   -0.00001539   -0.00002647
     atom   46 type  7   force =     0.00007860   -0.00001539   -0.00002647
     atom   47 type  7   force =    -0.00019971    0.00103034    0.00026155
     atom   48 type  7   force =    -0.00019971    0.00103034    0.00026155
     atom   49 type  7   force =     0.00019971    0.00103034   -0.00026155
     atom   50 type  7   force =     0.00019971    0.00103034   -0.00026155
     atom   51 type  7   force =     0.00087486    0.00006613    0.00021271
     atom   52 type  7   force =     0.00087486    0.00006613    0.00021271
     atom   53 type  7   force =    -0.00087487    0.00006613   -0.00021271
     atom   54 type  7   force =    -0.00087487    0.00006612   -0.00021271
     atom   55 type  7   force =     0.00032353   -0.00045128    0.00001877
     atom   56 type  7   force =     0.00032353   -0.00045128    0.00001877
     atom   57 type  7   force =    -0.00032353   -0.00045130   -0.00001876
     atom   58 type  7   force =    -0.00032353   -0.00045130   -0.00001876
     atom   59 type  7   force =    -0.00013480    0.00020433   -0.00005307
     atom   60 type  7   force =    -0.00013480    0.00020433   -0.00005307
     atom   61 type  7   force =     0.00013480    0.00020432    0.00005308
     atom   62 type  7   force =     0.00013480    0.00020432    0.00005308
     atom   63 type  7   force =     0.00095986   -0.00042680    0.00039091
     atom   64 type  7   force =     0.00095986   -0.00042680    0.00039091
     atom   65 type  7   force =    -0.00095986   -0.00042680   -0.00039090
     atom   66 type  7   force =    -0.00095986   -0.00042680   -0.00039090
     atom   67 type  7   force =     0.00069083   -0.00058715   -0.00043158
     atom   68 type  7   force =     0.00069083   -0.00058715   -0.00043158
     atom   69 type  7   force =    -0.00069083   -0.00058715    0.00043158
     atom   70 type  7   force =    -0.00069083   -0.00058715    0.00043158
     atom   71 type  7   force =    -0.00010649   -0.00017175   -0.00036894
     atom   72 type  7   force =    -0.00010649   -0.00017175   -0.00036894
     atom   73 type  7   force =     0.00010649   -0.00017175    0.00036894
     atom   74 type  7   force =     0.00010649   -0.00017175    0.00036894
     atom   75 type  7   force =     0.00002189   -0.00000312   -0.00052609
     atom   76 type  7   force =     0.00002189   -0.00000312   -0.00052609
     atom   77 type  7   force =    -0.00002189   -0.00000312    0.00052609
     atom   78 type  7   force =    -0.00002189   -0.00000312    0.00052609
     atom   79 type  4   force =    -0.00010075    0.00013589   -0.00010615
     atom   80 type  4   force =    -0.00010075    0.00013589   -0.00010615
     atom   81 type  4   force =     0.00010075    0.00013589    0.00010615
     atom   82 type  4   force =     0.00010075    0.00013589    0.00010615
     atom   83 type  4   force =     0.00010468   -0.00043876   -0.00030294
     atom   84 type  4   force =     0.00010468   -0.00043876   -0.00030294
     atom   85 type  4   force =    -0.00010468   -0.00043876    0.00030293
     atom   86 type  4   force =    -0.00010468   -0.00043876    0.00030293
     atom   87 type  2   force =    -0.00000000    0.00067274   -0.00000000
     atom   88 type  3   force =    -0.00000000    0.00067274   -0.00000000

     Total force =     0.000917     Total SCF correction =     0.000084

     DFT-D3 dispersion Force =     0.006422

     BFGS Geometry Optimization
     Energy error            =      0.0E+00 Ry
     Gradient error          =      1.8E-04 Ry/Bohr

     bfgs converged in   1 scf cycles and   0 bfgs steps
     (criteria: energy <  1.0E-06 Ry, force <  1.0E-03 Ry/Bohr)

     End of BFGS Geometry Optimization

     Final energy             =   -5262.5290732810 Ry
Begin final coordinates

ATOMIC_POSITIONS (crystal)
K                0.0000000000        0.4904074970        0.0000000000
K                0.5000000000        0.4904074970        0.0000000000
K                0.2500000000        0.0056018250        0.0000000000
K                0.7500000000        0.0056018250        0.0000000000
Mg               0.0000001880        0.0060930550        0.4999998210
Mg               0.5000001790        0.0060930550        0.4999998210
Mg               0.0000001880        0.6672064070        0.4999998210
Mg               0.5000001790        0.6672064070        0.4999998210
Mg               0.2500002090        0.4959222970        0.4999998210
Mg               0.7500002380        0.4959222970        0.4999998210
Mg               0.2500002090        0.8355172870        0.4999998210
Mg               0.7500002380        0.8355172870        0.4999998210
Mg               0.2500002090        0.1704860780        0.4999998210
Mg               0.7500002380        0.1704860780        0.4999998210
Si               0.0440991370        0.1632003190        0.2251690630
Si               0.5440991520        0.1632003190        0.2251690630
Si               0.4559012650        0.1632003190        0.7748306390
Si               0.9559012650        0.1632003190        0.7748306390
Si               0.4680121540        0.8342208270        0.7673438790
Si               0.9680121540        0.8342208270        0.7673438790
Si               0.0319882710        0.8342208270        0.2326557640
Si               0.5319882630        0.8342208270        0.2326557640
Si               0.2817018930        0.6666191220        0.2312162520
Si               0.7817019220        0.6666191220        0.2312162520
Si               0.2182984800        0.6666191220        0.7687833910
Si               0.7182984950        0.6666191220        0.7687833910
Al               0.2051398010        0.3307094570        0.7718817590
Al               0.7051398160        0.3307094570        0.7718817590
Al               0.2948606310        0.3307094570        0.2281178830
Al               0.7948606010        0.3307094570        0.2281178830
O                0.0675911750        0.1577169600        0.3841080070
O                0.5675911900        0.1577169600        0.3841080070
O                0.4324092270        0.1577169600        0.6158916950
O                0.9324092270        0.1577169600        0.6158916950
O                0.4376909140        0.8345828060        0.6092186570
O                0.9376909140        0.8345828060        0.6092186570
O                0.0623095000        0.8345828060        0.3907810150
O                0.5623095040        0.8345828060        0.3907810150
O                0.3129889370        0.6698168520        0.3901035190
O                0.8129889370        0.6698168520        0.3901035190
O                0.1870114510        0.6698168520        0.6098961830
O                0.6870114800        0.6698168520        0.6098961830
O                0.1803855600        0.3332562740        0.6014271970
O                0.6803855900        0.3332562740        0.6014271970
O                0.3196148570        0.3332562740        0.3985724150
O                0.8196148870        0.3332562740        0.3985724150
O                0.1725108180        0.2050072100        0.1689024720
O                0.6725108030        0.2050072100        0.1689024720
O                0.3274895850        0.2050072100        0.8310971260
O                0.8274896140        0.2050072100        0.8310971260
O                0.0018252340        0.9963546990        0.1696969570
O                0.5018252130        0.9963546990        0.1696969570
O                0.4981751740        0.9963546990        0.8303027150
O                0.9981751440        0.9963546990        0.8303027150
O                0.3449204560        0.7696653600        0.8258810640
O                0.8449204560        0.7696653600        0.8258810640
O                0.1550799610        0.7696653600        0.1741185780
O                0.6550799610        0.7696653600        0.1741185780
O                0.4041931630        0.7369629140        0.1730591950
O                0.9041931630        0.7369629140        0.1730591950
O                0.0958072470        0.7369629140        0.8269404770
O                0.5958072540        0.7369629140        0.8269404770
O                0.2529917660        0.5074082020        0.1680445820
O                0.7529917960        0.5074082020        0.1680445820
O                0.2470086070        0.5074082020        0.8319550750
O                0.7470086220        0.5074082020        0.8319550750
O                0.0702508020        0.2741474510        0.8352765440
O                0.5702508090        0.2741474510        0.8352765440
O                0.4297496380        0.2741474510        0.1647231280
O                0.9297496080        0.2741474510        0.1647231280
O                0.0677623080        0.5116184350        0.3935351670
O                0.5677623150        0.5116184350        0.3935351670
O                0.4322381020        0.5116184350        0.6064645050
O                0.9322381020        0.5116184350        0.6064645050
O                0.3167261180        0.9995542760        0.3993117510
O                0.8167260890        0.9995542760        0.3993117510
O                0.1832743140        0.9995542760        0.6006879210
O                0.6832743290        0.9995542760        0.6006879210
H                0.0518611410        0.4923958180        0.3008861240
H                0.5518611670        0.4923958180        0.3008861240
H                0.4481392800        0.4923958180        0.6991135480
H                0.9481393100        0.4923958180        0.6991135480
H                0.2968665360        0.0133748920        0.3058905300
H                0.7968665360        0.0133748920        0.3058905300
H                0.2031338810        0.0133748920        0.6941091420
H                0.7031338810        0.0133748920        0.6941091420
Fe1              0.0000001880        0.3355329040        0.4999998210
Fe2              0.5000001790        0.3355329040        0.4999998210
End final coordinates



     Writing all to output data dir ./temp/phl-fe1-fe2x2.save/ :
     XML data file, charge density, pseudopotentials, collected wavefunctions

     init_run     :    545.80s CPU    549.44s WALL (       1 calls)
     electrons    :  64937.50s CPU  65228.07s WALL (       1 calls)
     forces       :    433.99s CPU    435.24s WALL (       1 calls)
     force_dftd3  :      8.30s CPU      8.34s WALL (       1 calls)

     Called by init_run:
     wfcinit      :    524.60s CPU    527.17s WALL (       1 calls)
     wfcinit:atom :      0.47s CPU      0.76s WALL (      20 calls)
     wfcinit:wfcr :    519.78s CPU    521.75s WALL (      20 calls)
     potinit      :      6.17s CPU      6.26s WALL (       1 calls)
     hinit0       :      1.98s CPU      2.03s WALL (       1 calls)

     Called by electrons:
     c_bands      :  59666.68s CPU  59876.48s WALL (      31 calls)
     sum_band     :   4682.56s CPU   4734.31s WALL (      31 calls)
     v_of_rho     :     28.66s CPU     29.19s WALL (      32 calls)
     v_h          :      1.03s CPU      1.06s WALL (      32 calls)
     v_xc         :     28.47s CPU     29.00s WALL (      33 calls)
     newd         :    402.60s CPU    431.86s WALL (      32 calls)
     PAW_pot      :    160.72s CPU    160.75s WALL (      32 calls)
     mix_rho      :      5.63s CPU      5.73s WALL (      31 calls)
     energy_dftd3 :      6.44s CPU      6.44s WALL (       1 calls)

     Called by c_bands:
     init_us_2    :     87.03s CPU     87.10s WALL (    1280 calls)
     cegterg      :  59479.08s CPU  59688.35s WALL (     622 calls)

     Called by sum_band:
     sum_band:wei :      0.02s CPU      0.02s WALL (      31 calls)
     sum_band:loo :   4011.02s CPU   4025.93s WALL (      31 calls)
     sum_band:buf :     11.03s CPU     11.04s WALL (     620 calls)
     sum_band:ini :     41.96s CPU     41.98s WALL (     620 calls)
     sum_band:cal :   2995.39s CPU   2996.60s WALL (     620 calls)
     sum_band:bec :      4.17s CPU      4.18s WALL (     620 calls)
     addusdens    :    666.64s CPU    703.25s WALL (      31 calls)
                                        0.00s GPU  (      31 calls)
     addusd:skk   :      2.82s CPU      4.45s WALL (     248 calls)
                                        0.00s GPU  (     248 calls)

     Called by *egterg:
     cdiaghg      :   1734.63s CPU   1762.77s WALL (    4781 calls)
     cegterg:over :   7870.38s CPU   7872.16s WALL (    4159 calls)
     cegterg:upda :   4543.00s CPU   4554.01s WALL (    4159 calls)
     cegterg:last :  12533.95s CPU  12537.42s WALL (    1714 calls)
     cdiaghg:chol :     30.72s CPU     30.74s WALL (    4781 calls)
     cdiaghg:inve :     39.20s CPU     39.22s WALL (    4781 calls)
     cdiaghg:para :    670.09s CPU    677.02s WALL (    9562 calls)
     h_psi        :  22435.46s CPU  22567.10s WALL (    4801 calls)
     s_psi        :   8781.78s CPU   8782.95s WALL (    4801 calls)
     g_psi        :     23.83s CPU     23.87s WALL (    4159 calls)

     Called by h_psi:
     h_psi:calbec :   8907.48s CPU   8911.24s WALL (    4801 calls)
     vloc_psi     :   4715.96s CPU   4829.83s WALL (    4801 calls)
     add_vuspsi   :   8790.51s CPU   8791.71s WALL (    4801 calls)

     General routines
     calbec       :  12288.67s CPU  12293.78s WALL (    5501 calls)
     fft          :     17.52s CPU     18.32s WALL (     813 calls)
     ffts         :      0.79s CPU      0.83s WALL (     126 calls)
     fftw         :   4150.15s CPU   4237.77s WALL ( 1353468 calls)
     interpolate  :      2.07s CPU      2.14s WALL (      64 calls)

     Parallel routines

     PAW routines
     PAW_pot      :    160.72s CPU    160.75s WALL (      32 calls)
     PAW_symme    :      0.04s CPU      0.04s WALL (      63 calls)

     PWSCF        :     18h18m CPU     18h24m WALL


   This run was terminated on:  23:36:29  25Mar2025            

=------------------------------------------------------------------------------=
   JOB DONE.
=------------------------------------------------------------------------------=

