
     Program PWSCF v.7.3.1 starts on 16Jan2025 at 17:54:45 

     This program is part of the open-source Quantum ESPRESSO suite
     for quantum simulation of materials; please cite
         "P. Giannozzi et al., J. Phys.:Condens. Matter 21 395502 (2009);
         "P. Giannozzi et al., J. Phys.:Condens. Matter 29 465901 (2017);
         "P. Giannozzi et al., J. Chem. Phys. 152 154105 (2020);
          URL http://www.quantum-espresso.org", 
     in publications or presentations arising from this work. More details at
     http://www.quantum-espresso.org/quote

     Parallel version (MPI), running on     6 processors

     MPI processes distributed on     1 nodes
     12677 MiB available memory on the printing compute node when the environment starts

     Reading input from relax.in
Warning: card  &CELL ignored
Warning: card    CELL_DOFREE     = 'IBRAV' ignored
Warning: card  / ignored

     Current dimensions of program PWSCF are:
     Max number of different atomic species (ntypx) = 10
     Max number of k-points (npk) =  40000
     Max angular momentum in pseudopotentials (lmaxx) =  4
     file Al.pbe-n-kjpaw_psl.1.0.0.UPF: wavefunction(s)  3S 3P renormalized
     file Fe.pbe-spn-kjpaw_psl.1.0.0.UPF: wavefunction(s)  3P 3D renormalized
     file H.pbe-kjpaw_psl.1.0.0.UPF: wavefunction(s)  1S renormalized
     file K.pbe-spn-kjpaw_psl.1.0.0.UPF: wavefunction(s)  3S renormalized
     file Mg.pbe-spnl-kjpaw_psl.1.0.0.UPF: wavefunction(s)  2P renormalized
     file O.pbe-n-kjpaw_psl.1.0.0.UPF: wavefunction(s)  2S 2P renormalized
     file Si.pbe-n-kjpaw_psl.1.0.0.UPF: wavefunction(s)  3S 3P renormalized

     R & G space division:  proc/nbgrp/npool/nimage =       6
     Subspace diagonalization in iterative solution of the eigenvalue problem:
     one sub-group per band group will be used
     custom distributed-memory algorithm (size of sub-group:  2*  2 procs)


     Parallelization info
     --------------------
     sticks:   dense  smooth     PW     G-vecs:    dense   smooth      PW
     Min        1105     554    150                97744    34578    4918
     Max        1106     555    151                97745    34580    4920
     Sum        6633    3329    905               586467   207475   29511

     Using Slab Decomposition



     bravais-lattice index     =          -12
     lattice parameter (alat)  =      10.0136  a.u.
     unit-cell volume          =    3303.4414 (a.u.)^3
     number of atoms/cell      =           44
     number of atomic types    =            7
     number of electrons       =       262.00
     number of Kohn-Sham states=          157
     kinetic-energy cutoff     =      60.0000  Ry
     charge density cutoff     =     480.0000  Ry
     scf convergence threshold =      1.0E-06
     mixing beta               =       0.7000
     number of iterations used =            8  plain     mixing
     energy convergence thresh.=      1.0E-04
     force convergence thresh. =      1.0E-03
     Exchange-correlation= SLA  PW   PBX  PBC
                           (   1   4   3   4   0   0   0)
     nstep                     =           50


     celldm(1)=  10.013640  celldm(2)=   1.735306  celldm(3)=   1.926511
     celldm(4)=   0.000000  celldm(5)=  -0.177565  celldm(6)=   0.000000

     crystal axes: (cart. coord. in units of alat)
               a(1) = (   1.000000   0.000000   0.000000 )  
               a(2) = (   0.000000   1.735306   0.000000 )  
               a(3) = (  -0.342081   0.000000   1.895896 )  

     reciprocal axes: (cart. coord. in units 2 pi/alat)
               b(1) = (  1.000000 -0.000000  0.180432 )  
               b(2) = (  0.000000  0.576267 -0.000000 )  
               b(3) = (  0.000000  0.000000  0.527455 )  


     PseudoPot. # 1 for Al read from file:
     ./../../../pseudos/Al.pbe-n-kjpaw_psl.1.0.0.UPF
     MD5 check sum: 502b6b27b9c6270cab5dd1084b96fa6d
     Pseudo is Projector augmented-wave + core cor, Zval =  3.0
     Generated using &quot;atomic&quot; code by A. Dal Corso  v.6.3
     Shape of augmentation charge: PSQ
     Using radial grid of 1135 points,  6 beta functions with: 
                l(1) =   0
                l(2) =   0
                l(3) =   1
                l(4) =   1
                l(5) =   2
                l(6) =   2
     Q(r) pseudized with 0 coefficients 


     PseudoPot. # 2 for Fe read from file:
     ./../../../pseudos/Fe.pbe-spn-kjpaw_psl.1.0.0.UPF
     MD5 check sum: fc81f059e5c5069939230b1155715ae8
     Pseudo is Projector augmented-wave + core cor, Zval = 16.0
     Generated using &quot;atomic&quot; code by A. Dal Corso  v.6.3
     Shape of augmentation charge: PSQ
     Using radial grid of 1191 points,  6 beta functions with: 
                l(1) =   0
                l(2) =   0
                l(3) =   1
                l(4) =   1
                l(5) =   2
                l(6) =   2
     Q(r) pseudized with 0 coefficients 


     PseudoPot. # 3 for H  read from file:
     ./../../../pseudos/H.pbe-kjpaw_psl.1.0.0.UPF
     MD5 check sum: d81a744832360e4a8af0b0b5b123bc2a
     Pseudo is Projector augmented-wave, Zval =  1.0
     Generated using &quot;atomic&quot; code by A. Dal Corso  v.6.3MaX
     Shape of augmentation charge: PSQ
     Using radial grid of  929 points,  2 beta functions with: 
                l(1) =   0
                l(2) =   0
     Q(r) pseudized with 0 coefficients 


     PseudoPot. # 4 for K  read from file:
     ./../../../pseudos/K.pbe-spn-kjpaw_psl.1.0.0.UPF
     MD5 check sum: 34cc42130a09071ebe376fd42eb21491
     Pseudo is Projector augmented-wave + core cor, Zval =  9.0
     Generated using &quot;atomic&quot; code by A. Dal Corso  v.6.2.2
     Shape of augmentation charge: PSQ
     Using radial grid of 1165 points,  6 beta functions with: 
                l(1) =   0
                l(2) =   0
                l(3) =   1
                l(4) =   1
                l(5) =   2
                l(6) =   2
     Q(r) pseudized with 0 coefficients 


     PseudoPot. # 5 for Mg read from file:
     ./../../../pseudos/Mg.pbe-spnl-kjpaw_psl.1.0.0.UPF
     MD5 check sum: fda14e0d92a6a9a5ebed782e5a4b3067
     Pseudo is Projector augmented-wave + core cor, Zval = 10.0
     Generated using &quot;atomic&quot; code by A. Dal Corso  v.6.3
     Shape of augmentation charge: PSQ
     Using radial grid of 1129 points,  4 beta functions with: 
                l(1) =   0
                l(2) =   0
                l(3) =   1
                l(4) =   1
     Q(r) pseudized with 0 coefficients 


     PseudoPot. # 6 for O  read from file:
     ./../../../pseudos/O.pbe-n-kjpaw_psl.1.0.0.UPF
     MD5 check sum: e99d9cef9b487d1ca56f5b95ecd0fd7a
     Pseudo is Projector augmented-wave + core cor, Zval =  6.0
     Generated using &quot;atomic&quot; code by A. Dal Corso  v.6.3
     Shape of augmentation charge: PSQ
     Using radial grid of 1095 points,  4 beta functions with: 
                l(1) =   0
                l(2) =   0
                l(3) =   1
                l(4) =   1
     Q(r) pseudized with 0 coefficients 


     PseudoPot. # 7 for Si read from file:
     ./../../../pseudos/Si.pbe-n-kjpaw_psl.1.0.0.UPF
     MD5 check sum: c39c59da582df4a0d9f10159256ea34e
     Pseudo is Projector augmented-wave + core cor, Zval =  4.0
     Generated using &quot;atomic&quot; code by A. Dal Corso  v.6.3
     Shape of augmentation charge: PSQ
     Using radial grid of 1141 points,  6 beta functions with: 
                l(1) =   0
                l(2) =   0
                l(3) =   1
                l(4) =   1
                l(5) =   2
                l(6) =   2
     Q(r) pseudized with 0 coefficients 


     atomic species   valence    mass     pseudopotential
     Al                3.00    26.98154     Al( 1.00)
     Fe               16.00    55.84500     Fe( 1.00)
     H                 1.00     1.00794     H ( 1.00)
     K                 9.00    39.09830     K ( 1.00)
     Mg               10.00    24.30500     Mg( 1.00)
     O                 6.00    15.99940     O ( 1.00)
     Si                4.00    28.08550     Si( 1.00)

     Starting magnetic structure 
     atomic species   magnetization
     Al              0.000
     Fe              0.300
     H               0.000
     K               0.000
     Mg              0.000
     O               0.000
     Si              0.000

      2 Sym. Ops. (no inversion) found


                                    s                        frac. trans.

      isym =  1     identity                                     

 cryst.   s( 1) = (     1          0          0      )
                  (     0          1          0      )
                  (     0          0          1      )

 cart.    s( 1) = (  1.0000000  0.0000000 -0.0000000 )
                  (  0.0000000  1.0000000  0.0000000 )
                  (  0.0000000  0.0000000  1.0000000 )


      isym =  2     180 deg rotation - cart. axis [0,1,0]        

 cryst.   s( 2) = (    -1          0          0      )
                  (     0          1          0      )
                  (     0          0         -1      )

 cart.    s( 2) = ( -1.0000000  0.0000000  0.0000000 )
                  (  0.0000000  1.0000000  0.0000000 )
                  (  0.0000000  0.0000000 -1.0000000 )


     point group C_2  (2)   
     there are  2 classes
     the character table:

       E     C2   
A      1.00  1.00
B      1.00 -1.00

     the symmetry operations in each class and the name of the first element:

     E        1
          identity                                               
     C2       2
          180 deg rotation - cart. axis [0,1,0]                  

   Cartesian axes

     site n.     atom                  positions (alat units)
         1        K      tau(   1) = (   0.0000000   0.8559224   0.0000000  )
         2        K      tau(   2) = (   0.5000000   0.0093568   0.0000000  )
         3        Mg     tau(   3) = (  -0.1710407   0.0067712   0.9479482  )
         4        Mg     tau(   4) = (  -0.1710407   0.5780843   0.9479482  )
         5        Mg     tau(   5) = (   0.3289593   0.8562226   0.9479482  )
         6        Mg     tau(   6) = (   0.3289593   1.4480089   0.9479482  )
         7        Mg     tau(   7) = (   0.3289593   0.2986375   0.9479482  )
         8        Si     tau(   8) = (   0.0066674   0.2865251   0.4219393  )
         9        Si     tau(   9) = (   0.6512512   0.2865251   1.4739571  )
        10        Si     tau(  10) = (   0.6701371   1.4476688   1.4628623  )
        11        Si     tau(  11) = (  -0.0122184   1.4476688   0.4330341  )
        12        Si     tau(  12) = (   0.4872056   1.1568454   0.4292651  )
        13        Si     tau(  13) = (   0.1707131   1.1568454   1.4666313  )
        14        Al     tau(  14) = (   0.1506005   0.5746762   1.4713786  )
        15        Al     tau(  15) = (   0.5073182   0.5746762   0.4245178  )
        16        O      tau(  16) = (  -0.0043508   0.2833738   0.7297400  )
        17        O      tau(  17) = (   0.6622695   0.2833738   1.1661564  )
        18        O      tau(  18) = (   0.6658139   1.4451231   1.1576912  )
        19        O      tau(  19) = (  -0.0078952   1.4451231   0.7382052  )
        20        O      tau(  20) = (   0.4926234   1.1618863   0.7357690  )
        21        O      tau(  21) = (   0.1652953   1.1618863   1.1601274  )
        22        O      tau(  22) = (   0.1548298   0.5779784   1.1454267  )
        23        O      tau(  23) = (   0.5030889   0.5779784   0.7504697  )
        24        O      tau(  24) = (   0.2847398   0.3548857   0.3143567  )
        25        O      tau(  25) = (   0.3731789   0.3548857   1.5815397  )
        26        O      tau(  26) = (   0.9404978   1.7303189   0.3181314  )
        27        O      tau(  27) = (  -0.2825791   1.7303189   1.5777650  )
        28        O      tau(  28) = (   0.3988927   1.3439356   1.5754330  )
        29        O      tau(  29) = (   0.2590260   1.3439356   0.3204634  )
        30        O      tau(  30) = (   0.7582660   1.2710892   0.3185125  )
        31        O      tau(  31) = (  -0.1003473   1.2710892   1.5773839  )
        32        O      tau(  32) = (   0.4432368   0.8811364   0.3085875  )
        33        O      tau(  33) = (   0.2146819   0.8811364   1.5873090  )
        34        O      tau(  34) = (  -0.1423236   0.4782556   1.5925436  )
        35        O      tau(  35) = (   0.8002423   0.4782556   0.3033529  )
        36        O      tau(  36) = (  -0.0041068   0.8750247   0.7469263  )
        37        O      tau(  37) = (   0.6620255   0.8750247   1.1489701  )
        38        O      tau(  38) = (   0.4966158   1.7335917   0.7534577  )
        39        O      tau(  39) = (   0.1613029   1.7335917   1.1424387  )
        40        H      tau(  40) = (  -0.0032097   0.8603995   0.5673129  )
        41        H      tau(  41) = (   0.6611284   0.8603995   1.3285835  )
        42        H      tau(  42) = (   0.4926802   0.0219534   0.5746291  )
        43        H      tau(  43) = (   0.1652385   0.0219534   1.3212673  )
        44        Fe     tau(  44) = (  -0.1710407   1.1543881   0.9479482  )

     --------------------------------------------
     DFT-D3 Dispersion Correction (3-body terms):
     --------------------------------------------
       Reference C6 values for interpolation: 

         atom   Coordination number   C6
         H          0.912             6.05
         H          0.000            15.18
         O          0.000            31.01
         O          0.993            25.63
         O          1.989            20.74
         Mg         0.000          1366.75
         Mg         0.963           902.54
         Mg         1.950           351.12
         Al         0.000          1081.08
         Al         0.965           875.51
         Al         1.931           513.50
         Al         2.915           307.19
         Si         0.000           635.71
         Si         0.951           540.53
         Si         1.944           466.25
         Si         2.941           443.01
         Si         3.868           299.55
         K          0.000          9967.00
         K          0.977           676.04
         Fe         0.000           982.67
         Fe         1.648           409.99
         Fe         9.138           219.01

       Values used:

         atom   Coordination number  R0_AB[au]  C6      C8
         K         13.595            4.007    676.04 129074.98
         K         13.827            4.007    676.04 129074.98
         Mg        11.528            3.292    351.12  31436.69
         Mg        11.901            3.292    351.12  31436.69
         Mg        11.426            3.292    351.12  31436.69
         Mg        11.125            3.292    351.12  31436.69
         Mg        12.227            3.292    351.12  31436.69
         Si         6.968            3.583    299.55  21425.58
         Si         6.968            3.583    299.55  21425.58
         Si         6.358            3.583    299.55  21425.58
         Si         6.358            3.583    299.55  21425.58
         Si         6.428            3.583    299.55  21425.58
         Si         6.428            3.583    299.55  21425.58
         Al         7.863            3.789    307.19  29441.29
         Al         7.863            3.789    307.19  29441.29
         O          3.930            2.345     20.74    418.58
         O          3.930            2.345     20.74    418.58
         O          3.713            2.345     20.74    418.58
         O          3.713            2.345     20.74    418.58
         O          3.667            2.345     20.74    418.58
         O          3.667            2.345     20.74    418.58
         O          3.987            2.345     20.74    418.58
         O          3.987            2.345     20.74    418.58
         O          3.192            2.345     20.74    418.58
         O          3.192            2.345     20.74    418.58
         O          3.154            2.345     20.74    418.58
         O          3.154            2.345     20.74    418.58
         O          3.054            2.345     20.74    418.58
         O          3.054            2.345     20.74    418.58
         O          3.049            2.345     20.74    418.58
         O          3.049            2.345     20.74    418.58
         O          3.189            2.345     20.74    418.58
         O          3.189            2.345     20.74    418.58
         O          3.263            2.345     20.74    418.58
         O          3.263            2.345     20.74    418.58
         O          3.856            2.345     20.74    418.58
         O          3.856            2.345     20.74    418.58
         O          3.999            2.345     20.74    418.58
         O          3.999            2.345     20.74    418.58
         H          1.301            2.062      6.07     73.35
         H          1.301            2.062      6.07     73.35
         H          1.300            2.062      6.07     73.35
         H          1.300            2.062      6.07     73.35
         Fe         7.775            3.252    219.01  20487.87

         Molecular C6 ( Ry / a.u.^6 ) =    165305.15


   Crystallographic axes

     site n.     atom                  positions (cryst. coord.)
         1        K      tau(   1) = (  0.0000000  0.4932400  0.0000000  )
         2        K      tau(   2) = (  0.5000000  0.0053920  0.0000000  )
         3        Mg     tau(   3) = (  0.0000000  0.0039020  0.5000000  )
         4        Mg     tau(   4) = (  0.0000000  0.3331310  0.5000000  )
         5        Mg     tau(   5) = (  0.5000000  0.4934130  0.5000000  )
         6        Mg     tau(   6) = (  0.5000000  0.8344400  0.5000000  )
         7        Mg     tau(   7) = (  0.5000000  0.1720950  0.5000000  )
         8        Si     tau(   8) = (  0.0827990  0.1651150  0.2225540  )
         9        Si     tau(   9) = (  0.9172010  0.1651150  0.7774460  )
        10        Si     tau(  10) = (  0.9340850  0.8342440  0.7715940  )
        11        Si     tau(  11) = (  0.0659150  0.8342440  0.2284060  )
        12        Si     tau(  12) = (  0.5646590  0.6666520  0.2264180  )
        13        Si     tau(  13) = (  0.4353410  0.6666520  0.7735820  )
        14        Al     tau(  14) = (  0.4160850  0.3311670  0.7760860  )
        15        Al     tau(  15) = (  0.5839150  0.3311670  0.2239140  )
        16        O      tau(  16) = (  0.1273180  0.1632990  0.3849050  )
        17        O      tau(  17) = (  0.8726820  0.1632990  0.6150950  )
        18        O      tau(  18) = (  0.8746990  0.8327770  0.6106300  )
        19        O      tau(  19) = (  0.1253010  0.8327770  0.3893700  )
        20        O      tau(  20) = (  0.6253800  0.6695570  0.3880850  )
        21        O      tau(  21) = (  0.3746200  0.6695570  0.6119150  )
        22        O      tau(  22) = (  0.3615020  0.3330700  0.6041610  )
        23        O      tau(  23) = (  0.6384980  0.3330700  0.3958390  )
        24        O      tau(  24) = (  0.3414600  0.2045090  0.1658090  )
        25        O      tau(  25) = (  0.6585400  0.2045090  0.8341910  )
        26        O      tau(  26) = (  0.9978990  0.9971260  0.1678000  )
        27        O      tau(  27) = (  0.0021010  0.9971260  0.8322000  )
        28        O      tau(  28) = (  0.6831520  0.7744660  0.8309700  )
        29        O      tau(  29) = (  0.3168480  0.7744660  0.1690300  )
        30        O      tau(  30) = (  0.8157360  0.7324870  0.1680010  )
        31        O      tau(  31) = (  0.1842640  0.7324870  0.8319990  )
        32        O      tau(  32) = (  0.4989160  0.5077700  0.1627660  )
        33        O      tau(  33) = (  0.5010840  0.5077700  0.8372340  )
        34        O      tau(  34) = (  0.1450230  0.2756030  0.8399950  )
        35        O      tau(  35) = (  0.8549770  0.2756030  0.1600050  )
        36        O      tau(  36) = (  0.1306630  0.5042480  0.3939700  )
        37        O      tau(  37) = (  0.8693370  0.5042480  0.6060300  )
        38        O      tau(  38) = (  0.6325640  0.9990120  0.3974150  )
        39        O      tau(  39) = (  0.3674360  0.9990120  0.6025850  )
        40        H      tau(  40) = (  0.0991520  0.4958200  0.2992320  )
        41        H      tau(  41) = (  0.9008480  0.4958200  0.7007680  )
        42        H      tau(  42) = (  0.5963620  0.0126510  0.3030910  )
        43        H      tau(  43) = (  0.4036380  0.0126510  0.6969090  )
        44        Fe     tau(  44) = (  0.0000000  0.6652360  0.5000000  )

     number of k points=    20  Gaussian smearing, width (Ry)=  0.0010
                       cart. coord. in units 2pi/alat
        k(    1) = (   0.0000000   0.0000000   0.0000000), wk =   0.0185185
        k(    2) = (   0.0000000   0.0000000   0.1758183), wk =   0.0370370
        k(    3) = (   0.0000000   0.1920891   0.0000000), wk =   0.0370370
        k(    4) = (   0.0000000   0.1920891   0.1758183), wk =   0.0740741
        k(    5) = (   0.1666667   0.0000000   0.0300721), wk =   0.0370370
        k(    6) = (   0.1666667   0.0000000   0.2058904), wk =   0.0370370
        k(    7) = (   0.1666667   0.0000000  -0.1457462), wk =   0.0370370
        k(    8) = (   0.1666667   0.1920891   0.0300721), wk =   0.0740741
        k(    9) = (   0.1666667   0.1920891   0.2058904), wk =   0.0740741
        k(   10) = (   0.1666667   0.1920891  -0.1457462), wk =   0.0740741
        k(   11) = (   0.3333333   0.0000000   0.0601442), wk =   0.0370370
        k(   12) = (   0.3333333   0.0000000   0.2359625), wk =   0.0370370
        k(   13) = (   0.3333333   0.0000000  -0.1156742), wk =   0.0370370
        k(   14) = (   0.3333333   0.1920891   0.0601442), wk =   0.0740741
        k(   15) = (   0.3333333   0.1920891   0.2359625), wk =   0.0740741
        k(   16) = (   0.3333333   0.1920891  -0.1156742), wk =   0.0740741
        k(   17) = (  -0.5000000   0.0000000  -0.0902162), wk =   0.0185185
        k(   18) = (  -0.5000000   0.0000000   0.0856021), wk =   0.0370370
        k(   19) = (  -0.5000000   0.1920891  -0.0902162), wk =   0.0370370
        k(   20) = (  -0.5000000   0.1920891   0.0856021), wk =   0.0740741

                       cryst. coord.
        k(    1) = (   0.0000000   0.0000000   0.0000000), wk =   0.0185185
        k(    2) = (   0.0000000   0.0000000   0.3333333), wk =   0.0370370
        k(    3) = (   0.0000000   0.3333333   0.0000000), wk =   0.0370370
        k(    4) = (   0.0000000   0.3333333   0.3333333), wk =   0.0740741
        k(    5) = (   0.1666667   0.0000000  -0.0000000), wk =   0.0370370
        k(    6) = (   0.1666667   0.0000000   0.3333333), wk =   0.0370370
        k(    7) = (   0.1666667   0.0000000  -0.3333333), wk =   0.0370370
        k(    8) = (   0.1666667   0.3333333  -0.0000000), wk =   0.0740741
        k(    9) = (   0.1666667   0.3333333   0.3333333), wk =   0.0740741
        k(   10) = (   0.1666667   0.3333333  -0.3333333), wk =   0.0740741
        k(   11) = (   0.3333333   0.0000000  -0.0000000), wk =   0.0370370
        k(   12) = (   0.3333333   0.0000000   0.3333333), wk =   0.0370370
        k(   13) = (   0.3333333   0.0000000  -0.3333333), wk =   0.0370370
        k(   14) = (   0.3333333   0.3333333  -0.0000000), wk =   0.0740741
        k(   15) = (   0.3333333   0.3333333   0.3333333), wk =   0.0740741
        k(   16) = (   0.3333333   0.3333333  -0.3333333), wk =   0.0740741
        k(   17) = (  -0.5000000   0.0000000   0.0000000), wk =   0.0185185
        k(   18) = (  -0.5000000   0.0000000   0.3333333), wk =   0.0370370
        k(   19) = (  -0.5000000   0.3333333   0.0000000), wk =   0.0370370
        k(   20) = (  -0.5000000   0.3333333   0.3333333), wk =   0.0740741

     Dense  grid:   586467 G-vectors     FFT dimensions: (  72, 125, 135)

     Smooth grid:   207475 G-vectors     FFT dimensions: (  50,  90,  96)

     Dynamical RAM for                 wfc:      10.35 MB

     Dynamical RAM for     wfc (w. buffer):     424.41 MB

     Dynamical RAM for           str. fact:      10.44 MB

     Dynamical RAM for           local pot:       0.00 MB

     Dynamical RAM for          nlocal pot:      28.88 MB

     Dynamical RAM for                qrad:      12.30 MB

     Dynamical RAM for          rho,v,vnew:      18.42 MB

     Dynamical RAM for               rhoin:       6.14 MB

     Dynamical RAM for            rho*nmix:      47.73 MB

     Dynamical RAM for           G-vectors:       5.86 MB

     Dynamical RAM for          h,s,v(r/c):       1.13 MB

     Dynamical RAM for          <psi|beta>:       1.05 MB

     Dynamical RAM for                 psi:      20.70 MB

     Dynamical RAM for                hpsi:      20.70 MB

     Dynamical RAM for                spsi:      20.70 MB

     Dynamical RAM for      wfcinit/wfcrot:      24.90 MB

     Dynamical RAM for           addusdens:     314.70 MB

     Dynamical RAM for          addusforce:     383.50 MB

     Estimated static dynamical RAM per process >     527.86 MB

     Estimated max dynamical RAM per process >     959.09 MB

     Estimated total dynamical RAM >       5.62 GB

     Check: negative core charge=   -0.000004
     Generating pointlists ...
     new r_m :   0.1345 (alat units)  1.3466 (a.u.) for type    1
     new r_m :   0.1578 (alat units)  1.5800 (a.u.) for type    2
     new r_m :   0.0743 (alat units)  0.7444 (a.u.) for type    3
     new r_m :   0.2122 (alat units)  2.1246 (a.u.) for type    4
     new r_m :   0.1572 (alat units)  1.5739 (a.u.) for type    5
     new r_m :   0.0743 (alat units)  0.7444 (a.u.) for type    6
     new r_m :   0.1255 (alat units)  1.2564 (a.u.) for type    7

     Initial potential from superposition of free atoms

     starting charge     261.9493, renormalised to     262.0000
     Starting wfcs are  183 randomized atomic wfcs
     Checking if some PAW data can be deallocated... 
       PAW data deallocated on    5 nodes for type:  1
       PAW data deallocated on    5 nodes for type:  2
       PAW data deallocated on    5 nodes for type:  3
       PAW data deallocated on    5 nodes for type:  4
       PAW data deallocated on    5 nodes for type:  5
       PAW data deallocated on    1 nodes for type:  6
       PAW data deallocated on    4 nodes for type:  7

     total cpu time spent up to now is      166.4 secs

     Self-consistent Calculation

     iteration #  1     ecut=    60.00 Ry     beta= 0.70
     Davidson diagonalization with overlap

---- Real-time Memory Report at c_bands before calling an iterative solver
           592 MiB given to the printing process from OS
             0 MiB allocation reported by mallinfo(arena+hblkhd)
          9622 MiB available memory on the node where the printing process lives
------------------
     ethr =  1.00E-02,  avg # of iterations =  6.0

     total cpu time spent up to now is      678.4 secs

     total energy              =   -2623.66095913 Ry
     estimated scf accuracy    <      12.47457753 Ry

     total magnetization       =     4.00 Bohr mag/cell
     absolute magnetization    =     4.04 Bohr mag/cell

     iteration #  2     ecut=    60.00 Ry     beta= 0.70
     Davidson diagonalization with overlap

---- Real-time Memory Report at c_bands before calling an iterative solver
           889 MiB given to the printing process from OS
             0 MiB allocation reported by mallinfo(arena+hblkhd)
          8330 MiB available memory on the node where the printing process lives
------------------
     ethr =  4.76E-03,  avg # of iterations =  5.1

     total cpu time spent up to now is     1465.8 secs

     total energy              =   -2629.12806638 Ry
     estimated scf accuracy    <      11.42748553 Ry

     total magnetization       =     4.00 Bohr mag/cell
     absolute magnetization    =     4.30 Bohr mag/cell

     iteration #  3     ecut=    60.00 Ry     beta= 0.70
     Davidson diagonalization with overlap

---- Real-time Memory Report at c_bands before calling an iterative solver
           891 MiB given to the printing process from OS
             0 MiB allocation reported by mallinfo(arena+hblkhd)
          8569 MiB available memory on the node where the printing process lives
------------------
     ethr =  4.36E-03,  avg # of iterations =  2.0

     negative rho (up, down):  0.000E+00 1.854E-04

     total cpu time spent up to now is     1868.4 secs

     total energy              =   -2630.03482227 Ry
     estimated scf accuracy    <       2.51581758 Ry

     total magnetization       =     4.98 Bohr mag/cell
     absolute magnetization    =     5.34 Bohr mag/cell

     iteration #  4     ecut=    60.00 Ry     beta= 0.70
     Davidson diagonalization with overlap

---- Real-time Memory Report at c_bands before calling an iterative solver
           893 MiB given to the printing process from OS
             0 MiB allocation reported by mallinfo(arena+hblkhd)
          8494 MiB available memory on the node where the printing process lives
------------------
     ethr =  9.60E-04,  avg # of iterations =  4.9

     negative rho (up, down):  0.000E+00 2.477E-04

     total cpu time spent up to now is     2472.2 secs

     total energy              =   -2631.08311248 Ry
     estimated scf accuracy    <       0.39540712 Ry

     total magnetization       =     4.00 Bohr mag/cell
     absolute magnetization    =     4.06 Bohr mag/cell

     iteration #  5     ecut=    60.00 Ry     beta= 0.70
     Davidson diagonalization with overlap

---- Real-time Memory Report at c_bands before calling an iterative solver
           896 MiB given to the printing process from OS
             0 MiB allocation reported by mallinfo(arena+hblkhd)
          8562 MiB available memory on the node where the printing process lives
------------------
     c_bands:  1 eigenvalues not converged
     c_bands:  1 eigenvalues not converged
     c_bands:  1 eigenvalues not converged
     c_bands:  1 eigenvalues not converged
     c_bands:  1 eigenvalues not converged
     c_bands:  1 eigenvalues not converged
     c_bands:  1 eigenvalues not converged
     c_bands:  2 eigenvalues not converged
     ethr =  1.51E-04,  avg # of iterations = 15.7

     negative rho (up, down):  0.000E+00 3.856E-04

     total cpu time spent up to now is     3156.5 secs

     total energy              =   -2631.21458520 Ry
     estimated scf accuracy    <       0.07380859 Ry

     total magnetization       =     4.00 Bohr mag/cell
     absolute magnetization    =     4.09 Bohr mag/cell

     iteration #  6     ecut=    60.00 Ry     beta= 0.70
     Davidson diagonalization with overlap

---- Real-time Memory Report at c_bands before calling an iterative solver
           898 MiB given to the printing process from OS
             0 MiB allocation reported by mallinfo(arena+hblkhd)
          8480 MiB available memory on the node where the printing process lives
------------------
     c_bands:  1 eigenvalues not converged
     c_bands:  2 eigenvalues not converged
     c_bands:  1 eigenvalues not converged
     c_bands:  1 eigenvalues not converged
     c_bands:  2 eigenvalues not converged
     c_bands:  2 eigenvalues not converged
     c_bands:  2 eigenvalues not converged
     c_bands:  1 eigenvalues not converged
     c_bands:  1 eigenvalues not converged
     c_bands:  1 eigenvalues not converged
     c_bands:  1 eigenvalues not converged
     c_bands:  2 eigenvalues not converged
     c_bands:  1 eigenvalues not converged
     c_bands:  3 eigenvalues not converged
     c_bands:  3 eigenvalues not converged
     ethr =  2.82E-05,  avg # of iterations = 17.2

     negative rho (up, down):  0.000E+00 3.616E-04

     total cpu time spent up to now is     3941.2 secs

     total energy              =   -2631.22856331 Ry
     estimated scf accuracy    <       0.05069202 Ry

     total magnetization       =     4.00 Bohr mag/cell
     absolute magnetization    =     4.10 Bohr mag/cell

     iteration #  7     ecut=    60.00 Ry     beta= 0.70
     Davidson diagonalization with overlap

---- Real-time Memory Report at c_bands before calling an iterative solver
           900 MiB given to the printing process from OS
             0 MiB allocation reported by mallinfo(arena+hblkhd)
          8316 MiB available memory on the node where the printing process lives
------------------
     c_bands:  1 eigenvalues not converged
     ethr =  1.93E-05,  avg # of iterations =  4.7

     negative rho (up, down):  0.000E+00 3.436E-04

     total cpu time spent up to now is     4390.3 secs

     total energy              =   -2631.22677924 Ry
     estimated scf accuracy    <       0.02426004 Ry

     total magnetization       =     4.00 Bohr mag/cell
     absolute magnetization    =     4.09 Bohr mag/cell

     iteration #  8     ecut=    60.00 Ry     beta= 0.70
     Davidson diagonalization with overlap

---- Real-time Memory Report at c_bands before calling an iterative solver
           903 MiB given to the printing process from OS
             0 MiB allocation reported by mallinfo(arena+hblkhd)
          8411 MiB available memory on the node where the printing process lives
------------------
     c_bands:  3 eigenvalues not converged
     c_bands:  1 eigenvalues not converged
     c_bands:  1 eigenvalues not converged
     c_bands:  1 eigenvalues not converged
     c_bands:  1 eigenvalues not converged
     ethr =  9.26E-06,  avg # of iterations =  6.1

     negative rho (up, down):  0.000E+00 3.255E-04

     total cpu time spent up to now is     4873.8 secs

     total energy              =   -2631.22707162 Ry
     estimated scf accuracy    <       0.00790271 Ry

     total magnetization       =     4.00 Bohr mag/cell
     absolute magnetization    =     4.08 Bohr mag/cell

     iteration #  9     ecut=    60.00 Ry     beta= 0.70
     Davidson diagonalization with overlap

---- Real-time Memory Report at c_bands before calling an iterative solver
           905 MiB given to the printing process from OS
             0 MiB allocation reported by mallinfo(arena+hblkhd)
          8430 MiB available memory on the node where the printing process lives
------------------
     c_bands:  2 eigenvalues not converged
     c_bands:  2 eigenvalues not converged
     c_bands:  2 eigenvalues not converged
     c_bands:  2 eigenvalues not converged
     c_bands:  2 eigenvalues not converged
     c_bands:  1 eigenvalues not converged
     c_bands:  1 eigenvalues not converged
     c_bands:  1 eigenvalues not converged
     c_bands:  1 eigenvalues not converged
     c_bands:  1 eigenvalues not converged
     c_bands:  1 eigenvalues not converged
     c_bands:  2 eigenvalues not converged
     ethr =  3.02E-06,  avg # of iterations = 14.2

     negative rho (up, down):  0.000E+00 3.182E-04

     total cpu time spent up to now is     5587.3 secs

     total energy              =   -2631.23034552 Ry
     estimated scf accuracy    <       0.00065563 Ry

     total magnetization       =     4.00 Bohr mag/cell
     absolute magnetization    =     4.07 Bohr mag/cell

     iteration # 10     ecut=    60.00 Ry     beta= 0.70
     Davidson diagonalization with overlap

---- Real-time Memory Report at c_bands before calling an iterative solver
           907 MiB given to the printing process from OS
             0 MiB allocation reported by mallinfo(arena+hblkhd)
          8149 MiB available memory on the node where the printing process lives
------------------
     c_bands:  2 eigenvalues not converged
     c_bands:  1 eigenvalues not converged
     c_bands:  1 eigenvalues not converged
     c_bands:  2 eigenvalues not converged
     ethr =  2.50E-07,  avg # of iterations = 10.4

     negative rho (up, down):  0.000E+00 3.138E-04

     total cpu time spent up to now is     6421.0 secs

     total energy              =   -2631.23085683 Ry
     estimated scf accuracy    <       0.00033270 Ry

     total magnetization       =     4.00 Bohr mag/cell
     absolute magnetization    =     4.06 Bohr mag/cell

     iteration # 11     ecut=    60.00 Ry     beta= 0.70
     Davidson diagonalization with overlap

---- Real-time Memory Report at c_bands before calling an iterative solver
           907 MiB given to the printing process from OS
             0 MiB allocation reported by mallinfo(arena+hblkhd)
          8389 MiB available memory on the node where the printing process lives
------------------
     c_bands:  1 eigenvalues not converged
     c_bands:  1 eigenvalues not converged
     c_bands:  2 eigenvalues not converged
     ethr =  1.27E-07,  avg # of iterations =  5.8

     negative rho (up, down):  0.000E+00 3.095E-04

     total cpu time spent up to now is     6937.0 secs

     total energy              =   -2631.23095873 Ry
     estimated scf accuracy    <       0.00006097 Ry

     total magnetization       =     4.00 Bohr mag/cell
     absolute magnetization    =     4.05 Bohr mag/cell

     iteration # 12     ecut=    60.00 Ry     beta= 0.70
     Davidson diagonalization with overlap

---- Real-time Memory Report at c_bands before calling an iterative solver
           907 MiB given to the printing process from OS
             0 MiB allocation reported by mallinfo(arena+hblkhd)
          8288 MiB available memory on the node where the printing process lives
------------------
     ethr =  2.33E-08,  avg # of iterations =  5.9

     negative rho (up, down):  0.000E+00 3.080E-04

     total cpu time spent up to now is     7760.1 secs

     total energy              =   -2631.23098549 Ry
     estimated scf accuracy    <       0.00019416 Ry

     total magnetization       =     4.00 Bohr mag/cell
     absolute magnetization    =     4.05 Bohr mag/cell

     iteration # 13     ecut=    60.00 Ry     beta= 0.70
     Davidson diagonalization with overlap

---- Real-time Memory Report at c_bands before calling an iterative solver
           907 MiB given to the printing process from OS
             0 MiB allocation reported by mallinfo(arena+hblkhd)
          8297 MiB available memory on the node where the printing process lives
------------------
     ethr =  2.33E-08,  avg # of iterations =  2.0

     negative rho (up, down):  0.000E+00 3.075E-04

     total cpu time spent up to now is     8196.0 secs

     total energy              =   -2631.23095529 Ry
     estimated scf accuracy    <       0.00007544 Ry

     total magnetization       =     4.00 Bohr mag/cell
     absolute magnetization    =     4.05 Bohr mag/cell

     iteration # 14     ecut=    60.00 Ry     beta= 0.70
     Davidson diagonalization with overlap

---- Real-time Memory Report at c_bands before calling an iterative solver
           907 MiB given to the printing process from OS
             0 MiB allocation reported by mallinfo(arena+hblkhd)
          8430 MiB available memory on the node where the printing process lives
------------------
     ethr =  2.33E-08,  avg # of iterations =  6.0

     negative rho (up, down):  0.000E+00 3.078E-04

     total cpu time spent up to now is     9052.4 secs

     total energy              =   -2631.23099621 Ry
     estimated scf accuracy    <       0.00019158 Ry

     total magnetization       =     4.00 Bohr mag/cell
     absolute magnetization    =     4.05 Bohr mag/cell

     iteration # 15     ecut=    60.00 Ry     beta= 0.70
     Davidson diagonalization with overlap

---- Real-time Memory Report at c_bands before calling an iterative solver
           907 MiB given to the printing process from OS
             0 MiB allocation reported by mallinfo(arena+hblkhd)
          8328 MiB available memory on the node where the printing process lives
------------------
     ethr =  2.33E-08,  avg # of iterations =  4.8

     negative rho (up, down):  0.000E+00 3.098E-04

     total cpu time spent up to now is     9619.4 secs

     total energy              =   -2631.23100378 Ry
     estimated scf accuracy    <       0.00002590 Ry

     total magnetization       =     4.00 Bohr mag/cell
     absolute magnetization    =     4.05 Bohr mag/cell

     iteration # 16     ecut=    60.00 Ry     beta= 0.70
     Davidson diagonalization with overlap

---- Real-time Memory Report at c_bands before calling an iterative solver
           907 MiB given to the printing process from OS
             0 MiB allocation reported by mallinfo(arena+hblkhd)
          8276 MiB available memory on the node where the printing process lives
------------------
     ethr =  9.89E-09,  avg # of iterations =  5.9

     negative rho (up, down):  0.000E+00 3.114E-04

     total cpu time spent up to now is    10438.2 secs

     total energy              =   -2631.23106071 Ry
     estimated scf accuracy    <       0.00004621 Ry

     total magnetization       =     4.00 Bohr mag/cell
     absolute magnetization    =     4.05 Bohr mag/cell

     iteration # 17     ecut=    60.00 Ry     beta= 0.70
     Davidson diagonalization with overlap

---- Real-time Memory Report at c_bands before calling an iterative solver
           907 MiB given to the printing process from OS
             0 MiB allocation reported by mallinfo(arena+hblkhd)
          8387 MiB available memory on the node where the printing process lives
------------------
     ethr =  9.89E-09,  avg # of iterations =  3.5

     negative rho (up, down):  0.000E+00 3.118E-04

     total cpu time spent up to now is    10864.5 secs

     total energy              =   -2631.23106149 Ry
     estimated scf accuracy    <       0.00002638 Ry

     total magnetization       =     4.00 Bohr mag/cell
     absolute magnetization    =     4.05 Bohr mag/cell

     iteration # 18     ecut=    60.00 Ry     beta= 0.70
     Davidson diagonalization with overlap

---- Real-time Memory Report at c_bands before calling an iterative solver
           907 MiB given to the printing process from OS
             0 MiB allocation reported by mallinfo(arena+hblkhd)
          8369 MiB available memory on the node where the printing process lives
------------------
     ethr =  9.89E-09,  avg # of iterations =  4.4

     negative rho (up, down):  0.000E+00 3.119E-04

     Magnetic moment per site  (integrated on atomic sphere of radius R)
     atom   1 (R=0.212)  charge=  7.4975  magn=  0.0000
     atom   2 (R=0.212)  charge=  7.5010  magn=  0.0001
     atom   3 (R=0.157)  charge=  8.1042  magn=  0.0001
     atom   4 (R=0.157)  charge=  8.1052  magn=  0.0004
     atom   5 (R=0.157)  charge=  8.1043  magn=  0.0003
     atom   6 (R=0.157)  charge=  8.1024  magn=  0.0000
     atom   7 (R=0.157)  charge=  8.1064  magn= -0.0000
     atom   8 (R=0.125)  charge=  0.5446  magn= -0.0000
     atom   9 (R=0.125)  charge=  0.5446  magn= -0.0000
     atom  10 (R=0.125)  charge=  0.5376  magn=  0.0014
     atom  11 (R=0.125)  charge=  0.5376  magn=  0.0014
     atom  12 (R=0.125)  charge=  0.5368  magn=  0.0011
     atom  13 (R=0.125)  charge=  0.5368  magn=  0.0011
     atom  14 (R=0.134)  charge=  0.3371  magn= -0.0000
     atom  15 (R=0.134)  charge=  0.3371  magn= -0.0000
     atom  16 (R=0.074)  charge=  1.8934  magn=  0.0005
     atom  17 (R=0.074)  charge=  1.8934  magn=  0.0005
     atom  18 (R=0.074)  charge=  1.8936  magn=  0.0177
     atom  19 (R=0.074)  charge=  1.8936  magn=  0.0177
     atom  20 (R=0.074)  charge=  1.8905  magn=  0.0180
     atom  21 (R=0.074)  charge=  1.8905  magn=  0.0180
     atom  22 (R=0.074)  charge=  1.8899  magn=  0.0004
     atom  23 (R=0.074)  charge=  1.8899  magn=  0.0004
     atom  24 (R=0.074)  charge=  1.8951  magn=  0.0001
     atom  25 (R=0.074)  charge=  1.8951  magn=  0.0001
     atom  26 (R=0.074)  charge=  1.9013  magn=  0.0010
     atom  27 (R=0.074)  charge=  1.9013  magn=  0.0010
     atom  28 (R=0.074)  charge=  1.8991  magn=  0.0015
     atom  29 (R=0.074)  charge=  1.8991  magn=  0.0015
     atom  30 (R=0.074)  charge=  1.8984  magn= -0.0000
     atom  31 (R=0.074)  charge=  1.8984  magn= -0.0000
     atom  32 (R=0.074)  charge=  1.8962  magn=  0.0008
     atom  33 (R=0.074)  charge=  1.8962  magn=  0.0008
     atom  34 (R=0.074)  charge=  1.8943  magn=  0.0003
     atom  35 (R=0.074)  charge=  1.8943  magn=  0.0003
     atom  36 (R=0.074)  charge=  1.8936  magn=  0.0244
     atom  37 (R=0.074)  charge=  1.8936  magn=  0.0244
     atom  38 (R=0.074)  charge=  1.8951  magn=  0.0003
     atom  39 (R=0.074)  charge=  1.8951  magn=  0.0003
     atom  40 (R=0.074)  charge=  0.4001  magn=  0.0016
     atom  41 (R=0.074)  charge=  0.4001  magn=  0.0016
     atom  42 (R=0.074)  charge=  0.3985  magn= -0.0000
     atom  43 (R=0.074)  charge=  0.3985  magn= -0.0000
     atom  44 (R=0.158)  charge= 13.3048  magn=  3.2968

     total cpu time spent up to now is    11431.4 secs

     End of self-consistent calculation

 ------ SPIN UP ------------


          k = 0.0000 0.0000 0.0000 ( 25927 PWs)   bands (ev):

   -81.3605 -67.4904 -67.4010 -67.0572 -66.9866 -66.9355 -48.2260 -47.6214
   -46.4225 -34.2613 -34.2381 -34.2310 -34.1643 -34.1608 -34.1345 -33.8158
   -33.8089 -33.8068 -33.7608 -33.7521 -33.7137 -33.6997 -33.6759 -33.6750
   -23.0215 -22.9982 -15.0527 -14.9969 -14.1189 -14.0734 -13.5818 -13.5589
   -13.4297 -13.2792 -13.2563 -13.1467 -12.9866 -12.8486 -12.8426 -12.7969
   -12.7650 -12.6942 -12.4941 -12.3902 -12.2628 -12.2356 -12.1753 -12.0393
   -11.0311 -10.7845  -6.5921  -6.5633  -6.5148  -6.5067  -6.4758  -6.4715
    -4.2576  -4.1952  -2.3958  -2.2960  -1.8936  -1.4106  -1.1546  -1.1207
    -1.0580  -0.9862  -0.7768  -0.6635  -0.5396  -0.3535  -0.3390  -0.1722
    -0.0564   0.0975   0.2041   0.5156   0.5420   0.6165   0.6323   0.8324
     0.8836   1.1682   1.3394   1.3727   1.4250   1.5104   1.5209   1.6492
     1.8357   1.8377   1.9687   2.0296   2.0962   2.1536   2.1609   2.3147
     2.4391   2.4433   2.5127   2.5313   2.6866   2.7014   2.7956   2.8442
     2.8818   2.9147   3.0136   3.0458   3.0800   3.2273   3.3455   3.3650
     3.4611   3.4628   3.5740   3.5965   3.6060   3.6659   3.7852   3.8684
     3.8779   3.9795   3.9971   4.0714   4.1725   4.3275   4.4907   4.5702
     5.1408   5.1502   6.3332   6.8419   6.9505   9.1488  10.6707  11.2635
    11.6368  11.9860  12.1485  12.2607  12.5958  12.6316  13.0700  13.0898
    13.1497  13.3394  13.3619  13.5766  13.6709  13.6851  13.8186  13.8919
    13.9079  14.1019  14.2351  14.2807  14.4018

     occupation numbers 
     1.0000   1.0000   1.0000   1.0000   1.0000   1.0000   1.0000   1.0000
     1.0000   1.0000   1.0000   1.0000   1.0000   1.0000   1.0000   1.0000
     1.0000   1.0000   1.0000   1.0000   1.0000   1.0000   1.0000   1.0000
     1.0000   1.0000   1.0000   1.0000   1.0000   1.0000   1.0000   1.0000
     1.0000   1.0000   1.0000   1.0000   1.0000   1.0000   1.0000   1.0000
     1.0000   1.0000   1.0000   1.0000   1.0000   1.0000   1.0000   1.0000
     1.0000   1.0000   1.0000   1.0000   1.0000   1.0000   1.0000   1.0000
     1.0000   1.0000   1.0000   1.0000   1.0000   1.0000   1.0000   1.0000
     1.0000   1.0000   1.0000   1.0000   1.0000   1.0000   1.0000   1.0000
     1.0000   1.0000   1.0000   1.0000   1.0000   1.0000   1.0000   1.0000
     1.0000   1.0000   1.0000   1.0000   1.0000   1.0000   1.0000   1.0000
     1.0000   1.0000   1.0000   1.0000   1.0000   1.0000   1.0000   1.0000
     1.0000   1.0000   1.0000   1.0000   1.0000   1.0000   1.0000   1.0000
     1.0000   1.0000   1.0000   1.0000   1.0000   1.0000   1.0000   1.0000
     1.0000   1.0000   1.0000   1.0000   1.0000   1.0000   1.0000   1.0000
     1.0000   1.0000   1.0000   1.0000   1.0000   1.0000   1.0000   1.0000
     1.0000   1.0000   1.0000   1.0000   1.0000   0.0000   0.0000   0.0000
     0.0000   0.0000   0.0000   0.0000   0.0000   0.0000   0.0000   0.0000
     0.0000   0.0000   0.0000   0.0000   0.0000   0.0000   0.0000   0.0000
     0.0000   0.0000   0.0000   0.0000   0.0000

          k = 0.0000 0.0000 0.1758 ( 25971 PWs)   bands (ev):

   -81.3605 -67.4904 -67.4010 -67.0572 -66.9866 -66.9355 -48.2260 -47.6215
   -46.4225 -34.2613 -34.2381 -34.2310 -34.1644 -34.1608 -34.1345 -33.8158
   -33.8089 -33.8068 -33.7608 -33.7522 -33.7137 -33.6998 -33.6759 -33.6751
   -23.0215 -22.9982 -15.0395 -15.0111 -14.1081 -14.0848 -13.5826 -13.5581
   -13.4219 -13.2990 -13.2459 -13.1415 -12.9881 -12.8506 -12.8335 -12.8098
   -12.7565 -12.6998 -12.4850 -12.3975 -12.2658 -12.2317 -12.1693 -12.0459
   -11.0308 -10.7852  -6.5922  -6.5634  -6.5148  -6.5067  -6.4756  -6.4715
    -4.2506  -4.2027  -2.3730  -2.3235  -1.8642  -1.3998  -1.1545  -1.1136
    -1.0553  -1.0059  -0.7914  -0.6324  -0.5602  -0.3735  -0.3201  -0.2508
    -0.0456   0.1395   0.1580   0.4510   0.5400   0.6048   0.6128   0.8658
     0.9303   1.2532   1.2735   1.3892   1.4364   1.5099   1.5532   1.6727
     1.7912   1.8901   2.0560   2.0966   2.1112   2.1614   2.1853   2.2941
     2.3399   2.4769   2.5006   2.5324   2.6586   2.7019   2.7318   2.7879
     2.8054   2.8700   3.0138   3.1069   3.1439   3.2372   3.3306   3.3745
     3.4390   3.4630   3.5049   3.6004   3.6665   3.7424   3.7768   3.8498
     3.8782   3.9255   3.9684   4.0730   4.1958   4.3410   4.4881   4.5678
     5.1356   5.1511   6.3342   6.8444   6.9481   9.4606  10.1897  11.3708
    11.6664  11.8128  12.1847  12.2117  12.7291  12.8695  13.0179  13.1373
    13.2394  13.2971  13.3929  13.4858  13.5602  13.7181  13.8328  13.8451
    13.9528  14.0604  14.1857  14.3022  14.3279

     occupation numbers 
     1.0000   1.0000   1.0000   1.0000   1.0000   1.0000   1.0000   1.0000
     1.0000   1.0000   1.0000   1.0000   1.0000   1.0000   1.0000   1.0000
     1.0000   1.0000   1.0000   1.0000   1.0000   1.0000   1.0000   1.0000
     1.0000   1.0000   1.0000   1.0000   1.0000   1.0000   1.0000   1.0000
     1.0000   1.0000   1.0000   1.0000   1.0000   1.0000   1.0000   1.0000
     1.0000   1.0000   1.0000   1.0000   1.0000   1.0000   1.0000   1.0000
     1.0000   1.0000   1.0000   1.0000   1.0000   1.0000   1.0000   1.0000
     1.0000   1.0000   1.0000   1.0000   1.0000   1.0000   1.0000   1.0000
     1.0000   1.0000   1.0000   1.0000   1.0000   1.0000   1.0000   1.0000
     1.0000   1.0000   1.0000   1.0000   1.0000   1.0000   1.0000   1.0000
     1.0000   1.0000   1.0000   1.0000   1.0000   1.0000   1.0000   1.0000
     1.0000   1.0000   1.0000   1.0000   1.0000   1.0000   1.0000   1.0000
     1.0000   1.0000   1.0000   1.0000   1.0000   1.0000   1.0000   1.0000
     1.0000   1.0000   1.0000   1.0000   1.0000   1.0000   1.0000   1.0000
     1.0000   1.0000   1.0000   1.0000   1.0000   1.0000   1.0000   1.0000
     1.0000   1.0000   1.0000   1.0000   1.0000   1.0000   1.0000   1.0000
     1.0000   1.0000   1.0000   1.0000   1.0000   0.0000   0.0000   0.0000
     0.0000   0.0000   0.0000   0.0000   0.0000   0.0000   0.0000   0.0000
     0.0000   0.0000   0.0000   0.0000   0.0000   0.0000   0.0000   0.0000
     0.0000   0.0000   0.0000   0.0000   0.0000

          k = 0.0000 0.1921 0.0000 ( 25933 PWs)   bands (ev):

   -81.3605 -67.4904 -67.4010 -67.0572 -66.9866 -66.9355 -48.2260 -47.6215
   -46.4225 -34.2613 -34.2381 -34.2310 -34.1643 -34.1608 -34.1345 -33.8158
   -33.8089 -33.8067 -33.7608 -33.7522 -33.7137 -33.6998 -33.6759 -33.6751
   -23.0215 -22.9982 -15.0475 -14.9918 -14.1544 -14.1047 -13.5821 -13.5592
   -13.3651 -13.2337 -13.1742 -13.1390 -12.9974 -12.9078 -12.8946 -12.8398
   -12.7804 -12.6815 -12.4857 -12.3865 -12.2626 -12.2353 -12.1700 -12.0363
   -11.0298 -10.7839  -6.5888  -6.5669  -6.5144  -6.5048  -6.4772  -6.4723
    -4.2173  -4.1542  -2.5449  -2.4376  -1.8460  -1.4583  -1.0550  -1.0478
    -0.9720  -0.9663  -0.7378  -0.7117  -0.5964  -0.2883  -0.2854  -0.1773
    -0.1204   0.1056   0.2048   0.4891   0.5160   0.5940   0.6122   0.7925
     0.9170   1.1793   1.2386   1.3333   1.4228   1.5492   1.5803   1.6239
     1.8970   1.9082   1.9998   2.0850   2.1077   2.1579   2.2415   2.3539
     2.3969   2.4553   2.5044   2.5209   2.6598   2.6610   2.7718   2.8483
     2.9361   2.9521   3.0057   3.0661   3.1254   3.2008   3.2667   3.4176
     3.4442   3.4516   3.5099   3.5815   3.6148   3.6838   3.8083   3.8609
     3.8713   3.9577   3.9880   4.1036   4.1410   4.2991   4.3232   4.5523
     5.1312   5.1601   6.3364   6.8498   6.9212   9.5502  10.4949  10.8966
    11.5140  11.8655  12.2939  12.6201  12.6378  12.7719  12.9591  13.1102
    13.2139  13.3295  13.3887  13.5272  13.5387  13.7032  13.7311  13.8200
    13.8295  13.9079  14.3298  14.3959  14.5395

     occupation numbers 
     1.0000   1.0000   1.0000   1.0000   1.0000   1.0000   1.0000   1.0000
     1.0000   1.0000   1.0000   1.0000   1.0000   1.0000   1.0000   1.0000
     1.0000   1.0000   1.0000   1.0000   1.0000   1.0000   1.0000   1.0000
     1.0000   1.0000   1.0000   1.0000   1.0000   1.0000   1.0000   1.0000
     1.0000   1.0000   1.0000   1.0000   1.0000   1.0000   1.0000   1.0000
     1.0000   1.0000   1.0000   1.0000   1.0000   1.0000   1.0000   1.0000
     1.0000   1.0000   1.0000   1.0000   1.0000   1.0000   1.0000   1.0000
     1.0000   1.0000   1.0000   1.0000   1.0000   1.0000   1.0000   1.0000
     1.0000   1.0000   1.0000   1.0000   1.0000   1.0000   1.0000   1.0000
     1.0000   1.0000   1.0000   1.0000   1.0000   1.0000   1.0000   1.0000
     1.0000   1.0000   1.0000   1.0000   1.0000   1.0000   1.0000   1.0000
     1.0000   1.0000   1.0000   1.0000   1.0000   1.0000   1.0000   1.0000
     1.0000   1.0000   1.0000   1.0000   1.0000   1.0000   1.0000   1.0000
     1.0000   1.0000   1.0000   1.0000   1.0000   1.0000   1.0000   1.0000
     1.0000   1.0000   1.0000   1.0000   1.0000   1.0000   1.0000   1.0000
     1.0000   1.0000   1.0000   1.0000   1.0000   1.0000   1.0000   1.0000
     1.0000   1.0000   1.0000   1.0000   1.0000   0.0000   0.0000   0.0000
     0.0000   0.0000   0.0000   0.0000   0.0000   0.0000   0.0000   0.0000
     0.0000   0.0000   0.0000   0.0000   0.0000   0.0000   0.0000   0.0000
     0.0000   0.0000   0.0000   0.0000   0.0000

          k = 0.0000 0.1921 0.1758 ( 25924 PWs)   bands (ev):

   -81.3605 -67.4904 -67.4010 -67.0572 -66.9866 -66.9355 -48.2260 -47.6215
   -46.4225 -34.2613 -34.2381 -34.2310 -34.1643 -34.1608 -34.1345 -33.8158
   -33.8089 -33.8067 -33.7608 -33.7522 -33.7137 -33.6997 -33.6759 -33.6751
   -23.0215 -22.9982 -15.0342 -15.0060 -14.1424 -14.1175 -13.5830 -13.5583
   -13.3605 -13.2278 -13.1931 -13.1253 -13.0010 -12.9112 -12.8895 -12.8414
   -12.7766 -12.6874 -12.4773 -12.3936 -12.2655 -12.2315 -12.1636 -12.0428
   -11.0295 -10.7846  -6.5889  -6.5670  -6.5144  -6.5047  -6.4771  -6.4723
    -4.2080  -4.1640  -2.5203  -2.4651  -1.8208  -1.4477  -1.0561  -1.0461
    -0.9967  -0.9410  -0.7404  -0.7024  -0.6153  -0.3247  -0.2821  -0.2237
    -0.0902   0.1253   0.1455   0.4580   0.5103   0.5545   0.6174   0.8240
     0.9662   1.1454   1.2325   1.3787   1.4870   1.5590   1.6011   1.7236
     1.8123   1.9564   2.0475   2.0638   2.1164   2.1928   2.2690   2.3215
     2.3849   2.4406   2.4936   2.5301   2.6134   2.6702   2.7168   2.7556
     2.8920   2.9487   3.0032   3.1102   3.1325   3.2108   3.2938   3.3844
     3.4289   3.4592   3.5318   3.5759   3.6364   3.7116   3.8013   3.8370
     3.8713   3.9454   3.9594   4.1133   4.1345   4.3165   4.3464   4.5498
     5.1243   5.1611   6.3376   6.8526   6.9165   9.8196  10.4725  10.6876
    11.2058  11.8603  12.2831  12.6499  12.7496  12.9243  13.0958  13.1805
    13.2214  13.3317  13.4520  13.4951  13.6169  13.6289  13.6838  13.7866
    13.8453  14.0083  14.2685  14.3438  14.4749

     occupation numbers 
     1.0000   1.0000   1.0000   1.0000   1.0000   1.0000   1.0000   1.0000
     1.0000   1.0000   1.0000   1.0000   1.0000   1.0000   1.0000   1.0000
     1.0000   1.0000   1.0000   1.0000   1.0000   1.0000   1.0000   1.0000
     1.0000   1.0000   1.0000   1.0000   1.0000   1.0000   1.0000   1.0000
     1.0000   1.0000   1.0000   1.0000   1.0000   1.0000   1.0000   1.0000
     1.0000   1.0000   1.0000   1.0000   1.0000   1.0000   1.0000   1.0000
     1.0000   1.0000   1.0000   1.0000   1.0000   1.0000   1.0000   1.0000
     1.0000   1.0000   1.0000   1.0000   1.0000   1.0000   1.0000   1.0000
     1.0000   1.0000   1.0000   1.0000   1.0000   1.0000   1.0000   1.0000
     1.0000   1.0000   1.0000   1.0000   1.0000   1.0000   1.0000   1.0000
     1.0000   1.0000   1.0000   1.0000   1.0000   1.0000   1.0000   1.0000
     1.0000   1.0000   1.0000   1.0000   1.0000   1.0000   1.0000   1.0000
     1.0000   1.0000   1.0000   1.0000   1.0000   1.0000   1.0000   1.0000
     1.0000   1.0000   1.0000   1.0000   1.0000   1.0000   1.0000   1.0000
     1.0000   1.0000   1.0000   1.0000   1.0000   1.0000   1.0000   1.0000
     1.0000   1.0000   1.0000   1.0000   1.0000   1.0000   1.0000   1.0000
     1.0000   1.0000   1.0000   1.0000   1.0000   0.0000   0.0000   0.0000
     0.0000   0.0000   0.0000   0.0000   0.0000   0.0000   0.0000   0.0000
     0.0000   0.0000   0.0000   0.0000   0.0000   0.0000   0.0000   0.0000
     0.0000   0.0000   0.0000   0.0000   0.0000

          k = 0.1667 0.0000 0.0301 ( 25941 PWs)   bands (ev):

   -81.3605 -67.4904 -67.4010 -67.0572 -66.9866 -66.9355 -48.2260 -47.6214
   -46.4225 -34.2612 -34.2383 -34.2309 -34.1642 -34.1608 -34.1345 -33.8156
   -33.8089 -33.8070 -33.7608 -33.7520 -33.7127 -33.7006 -33.6772 -33.6740
   -23.0213 -22.9981 -14.9946 -14.9403 -14.1363 -14.0934 -13.7008 -13.6701
   -13.3738 -13.2165 -13.1927 -13.1267 -12.9942 -12.8638 -12.8344 -12.8059
   -12.7487 -12.7015 -12.5049 -12.4117 -12.3247 -12.2784 -12.1556 -12.0279
   -11.0274 -10.7893  -6.5920  -6.5674  -6.5135  -6.5051  -6.4759  -6.4683
    -4.0994  -4.0367  -2.3647  -2.2634  -1.8700  -1.4448  -1.4042  -1.3361
    -0.8748  -0.8159  -0.7854  -0.6325  -0.5829  -0.3329  -0.3029  -0.1935
    -0.0738   0.1488   0.1704   0.4811   0.5224   0.5969   0.6672   0.7557
     1.0258   1.1719   1.2739   1.3680   1.3887   1.4250   1.5546   1.6557
     1.7736   1.8908   1.9470   1.9621   2.1029   2.1382   2.2480   2.3736
     2.3849   2.4697   2.4969   2.5442   2.6637   2.7077   2.7093   2.8538
     2.8831   2.9420   3.0158   3.0683   3.1334   3.2420   3.2603   3.3273
     3.3949   3.4520   3.5274   3.6044   3.6703   3.6787   3.7806   3.8317
     3.8528   3.9129   3.9829   4.0362   4.1528   4.3266   4.4625   4.4877
     5.0983   5.1521   6.3397   6.8476   6.9495   9.4718  10.8470  11.3410
    11.7584  12.0222  12.1696  12.4260  12.5846  12.7330  12.9826  13.0646
    13.1805  13.3164  13.3521  13.5697  13.6289  13.6916  13.7406  13.8421
    13.8980  14.1565  14.1992  14.2930  14.4014

     occupation numbers 
     1.0000   1.0000   1.0000   1.0000   1.0000   1.0000   1.0000   1.0000
     1.0000   1.0000   1.0000   1.0000   1.0000   1.0000   1.0000   1.0000
     1.0000   1.0000   1.0000   1.0000   1.0000   1.0000   1.0000   1.0000
     1.0000   1.0000   1.0000   1.0000   1.0000   1.0000   1.0000   1.0000
     1.0000   1.0000   1.0000   1.0000   1.0000   1.0000   1.0000   1.0000
     1.0000   1.0000   1.0000   1.0000   1.0000   1.0000   1.0000   1.0000
     1.0000   1.0000   1.0000   1.0000   1.0000   1.0000   1.0000   1.0000
     1.0000   1.0000   1.0000   1.0000   1.0000   1.0000   1.0000   1.0000
     1.0000   1.0000   1.0000   1.0000   1.0000   1.0000   1.0000   1.0000
     1.0000   1.0000   1.0000   1.0000   1.0000   1.0000   1.0000   1.0000
     1.0000   1.0000   1.0000   1.0000   1.0000   1.0000   1.0000   1.0000
     1.0000   1.0000   1.0000   1.0000   1.0000   1.0000   1.0000   1.0000
     1.0000   1.0000   1.0000   1.0000   1.0000   1.0000   1.0000   1.0000
     1.0000   1.0000   1.0000   1.0000   1.0000   1.0000   1.0000   1.0000
     1.0000   1.0000   1.0000   1.0000   1.0000   1.0000   1.0000   1.0000
     1.0000   1.0000   1.0000   1.0000   1.0000   1.0000   1.0000   1.0000
     1.0000   1.0000   1.0000   1.0000   1.0000   0.0000   0.0000   0.0000
     0.0000   0.0000   0.0000   0.0000   0.0000   0.0000   0.0000   0.0000
     0.0000   0.0000   0.0000   0.0000   0.0000   0.0000   0.0000   0.0000
     0.0000   0.0000   0.0000   0.0000   0.0000

          k = 0.1667 0.0000 0.2059 ( 25961 PWs)   bands (ev):

   -81.3605 -67.4904 -67.4010 -67.0572 -66.9866 -66.9355 -48.2260 -47.6214
   -46.4225 -34.2612 -34.2383 -34.2309 -34.1643 -34.1608 -34.1345 -33.8156
   -33.8089 -33.8070 -33.7609 -33.7520 -33.7127 -33.7006 -33.6772 -33.6741
   -23.0213 -22.9981 -14.9780 -14.9580 -14.1267 -14.1036 -13.6970 -13.6740
   -13.3674 -13.2299 -13.1887 -13.1192 -12.9958 -12.8622 -12.8246 -12.8206
   -12.7450 -12.7055 -12.4944 -12.4217 -12.3177 -12.2847 -12.1462 -12.0360
   -11.0269 -10.7902  -6.5921  -6.5674  -6.5134  -6.5050  -6.4758  -6.4683
    -4.0984  -4.0380  -2.3434  -2.2901  -1.8378  -1.4491  -1.4231  -1.3072
    -0.8715  -0.8314  -0.7874  -0.6387  -0.5576  -0.3463  -0.3016  -0.2623
    -0.0522   0.1124   0.1973   0.4191   0.4851   0.5816   0.6616   0.8029
     1.0668   1.2086   1.2651   1.3457   1.4060   1.5070   1.5346   1.6531
     1.8108   1.9047   1.9525   1.9934   2.1337   2.1885   2.2395   2.3562
     2.4156   2.4519   2.4957   2.5522   2.6098   2.6308   2.7210   2.7693
     2.8400   2.9061   3.0164   3.1250   3.1616   3.2405   3.2583   3.3455
     3.3874   3.4580   3.4655   3.6013   3.7195   3.7389   3.7865   3.8325
     3.8489   3.8840   3.9020   4.0409   4.1891   4.3265   4.4641   4.5013
     5.0930   5.1511   6.3407   6.8483   6.9472   9.8383  10.3023  11.4365
    11.7778  11.8759  12.2151  12.3588  12.5443  12.8581  13.0789  13.2009
    13.2669  13.3763  13.4133  13.4245  13.5983  13.7116  13.7588  13.8415
    13.9042  13.9703  14.1152  14.3695  14.3957

     occupation numbers 
     1.0000   1.0000   1.0000   1.0000   1.0000   1.0000   1.0000   1.0000
     1.0000   1.0000   1.0000   1.0000   1.0000   1.0000   1.0000   1.0000
     1.0000   1.0000   1.0000   1.0000   1.0000   1.0000   1.0000   1.0000
     1.0000   1.0000   1.0000   1.0000   1.0000   1.0000   1.0000   1.0000
     1.0000   1.0000   1.0000   1.0000   1.0000   1.0000   1.0000   1.0000
     1.0000   1.0000   1.0000   1.0000   1.0000   1.0000   1.0000   1.0000
     1.0000   1.0000   1.0000   1.0000   1.0000   1.0000   1.0000   1.0000
     1.0000   1.0000   1.0000   1.0000   1.0000   1.0000   1.0000   1.0000
     1.0000   1.0000   1.0000   1.0000   1.0000   1.0000   1.0000   1.0000
     1.0000   1.0000   1.0000   1.0000   1.0000   1.0000   1.0000   1.0000
     1.0000   1.0000   1.0000   1.0000   1.0000   1.0000   1.0000   1.0000
     1.0000   1.0000   1.0000   1.0000   1.0000   1.0000   1.0000   1.0000
     1.0000   1.0000   1.0000   1.0000   1.0000   1.0000   1.0000   1.0000
     1.0000   1.0000   1.0000   1.0000   1.0000   1.0000   1.0000   1.0000
     1.0000   1.0000   1.0000   1.0000   1.0000   1.0000   1.0000   1.0000
     1.0000   1.0000   1.0000   1.0000   1.0000   1.0000   1.0000   1.0000
     1.0000   1.0000   1.0000   1.0000   1.0000   0.0000   0.0000   0.0000
     0.0000   0.0000   0.0000   0.0000   0.0000   0.0000   0.0000   0.0000
     0.0000   0.0000   0.0000   0.0000   0.0000   0.0000   0.0000   0.0000
     0.0000   0.0000   0.0000   0.0000   0.0000

          k = 0.1667 0.0000-0.1457 ( 25956 PWs)   bands (ev):

   -81.3605 -67.4904 -67.4010 -67.0572 -66.9866 -66.9355 -48.2260 -47.6214
   -46.4225 -34.2612 -34.2383 -34.2309 -34.1643 -34.1608 -34.1345 -33.8156
   -33.8089 -33.8070 -33.7608 -33.7520 -33.7127 -33.7006 -33.6772 -33.6741
   -23.0213 -22.9981 -14.9853 -14.9503 -14.1279 -14.1023 -13.6963 -13.6747
   -13.3692 -13.2207 -13.1983 -13.1177 -12.9967 -12.8617 -12.8352 -12.8043
   -12.7504 -12.7056 -12.4944 -12.4214 -12.3092 -12.2939 -12.1464 -12.0349
   -11.0268 -10.7901  -6.5922  -6.5675  -6.5135  -6.5050  -6.4757  -6.4683
    -4.0837  -4.0530  -2.3427  -2.2883  -1.8506  -1.4587  -1.4067  -1.3144
    -0.8573  -0.8261  -0.8005  -0.6109  -0.5951  -0.3316  -0.3149  -0.2464
    -0.0776   0.1387   0.1945   0.4460   0.5235   0.5941   0.6604   0.7910
     1.0305   1.2013   1.2444   1.3308   1.4404   1.4807   1.5627   1.6374
     1.8153   1.8572   1.9123   2.0339   2.0815   2.1537   2.2780   2.3275
     2.3933   2.4584   2.4836   2.5508   2.6420   2.6866   2.7451   2.8100
     2.8656   2.9620   3.0181   3.0645   3.1473   3.2433   3.2842   3.3706
     3.3868   3.4531   3.4981   3.6050   3.6470   3.7414   3.7625   3.7968
     3.8450   3.8835   3.9294   4.0197   4.2178   4.3279   4.4572   4.4985
     5.0971   5.1523   6.3401   6.8474   6.9479   9.6588  10.5338  11.4703
    11.8304  11.8658  12.2499  12.3238  12.5794  12.9322  12.9862  13.0767
    13.2090  13.3281  13.4025  13.4567  13.5762  13.6524  13.7196  13.8549
    13.9108  14.0819  14.2043  14.3440  14.3969

     occupation numbers 
     1.0000   1.0000   1.0000   1.0000   1.0000   1.0000   1.0000   1.0000
     1.0000   1.0000   1.0000   1.0000   1.0000   1.0000   1.0000   1.0000
     1.0000   1.0000   1.0000   1.0000   1.0000   1.0000   1.0000   1.0000
     1.0000   1.0000   1.0000   1.0000   1.0000   1.0000   1.0000   1.0000
     1.0000   1.0000   1.0000   1.0000   1.0000   1.0000   1.0000   1.0000
     1.0000   1.0000   1.0000   1.0000   1.0000   1.0000   1.0000   1.0000
     1.0000   1.0000   1.0000   1.0000   1.0000   1.0000   1.0000   1.0000
     1.0000   1.0000   1.0000   1.0000   1.0000   1.0000   1.0000   1.0000
     1.0000   1.0000   1.0000   1.0000   1.0000   1.0000   1.0000   1.0000
     1.0000   1.0000   1.0000   1.0000   1.0000   1.0000   1.0000   1.0000
     1.0000   1.0000   1.0000   1.0000   1.0000   1.0000   1.0000   1.0000
     1.0000   1.0000   1.0000   1.0000   1.0000   1.0000   1.0000   1.0000
     1.0000   1.0000   1.0000   1.0000   1.0000   1.0000   1.0000   1.0000
     1.0000   1.0000   1.0000   1.0000   1.0000   1.0000   1.0000   1.0000
     1.0000   1.0000   1.0000   1.0000   1.0000   1.0000   1.0000   1.0000
     1.0000   1.0000   1.0000   1.0000   1.0000   1.0000   1.0000   1.0000
     1.0000   1.0000   1.0000   1.0000   1.0000   0.0000   0.0000   0.0000
     0.0000   0.0000   0.0000   0.0000   0.0000   0.0000   0.0000   0.0000
     0.0000   0.0000   0.0000   0.0000   0.0000   0.0000   0.0000   0.0000
     0.0000   0.0000   0.0000   0.0000   0.0000

          k = 0.1667 0.1921 0.0301 ( 25937 PWs)   bands (ev):

   -81.3605 -67.4904 -67.4010 -67.0572 -66.9866 -66.9355 -48.2260 -47.6214
   -46.4225 -34.2612 -34.2383 -34.2309 -34.1642 -34.1608 -34.1345 -33.8156
   -33.8089 -33.8070 -33.7608 -33.7520 -33.7127 -33.7006 -33.6772 -33.6741
   -23.0213 -22.9981 -14.9896 -14.9354 -14.1672 -14.1205 -13.6878 -13.6599
   -13.3336 -13.2106 -13.1251 -13.0961 -12.9941 -12.9064 -12.8773 -12.8501
   -12.7761 -12.6890 -12.4984 -12.4022 -12.3204 -12.2806 -12.1526 -12.0263
   -11.0264 -10.7890  -6.5896  -6.5704  -6.5133  -6.5036  -6.4768  -6.4687
    -4.0622  -3.9991  -2.5252  -2.4188  -1.8101  -1.4458  -1.2689  -1.2411
    -0.9080  -0.8270  -0.7427  -0.6799  -0.5644  -0.2859  -0.2543  -0.1830
    -0.0799   0.1050   0.1844   0.4530   0.4938   0.6017   0.6313   0.7286
     1.0198   1.1300   1.2783   1.3273   1.3668   1.4581   1.5834   1.6743
     1.7473   1.9084   1.9352   2.0076   2.1088   2.2183   2.3125   2.3568
     2.3995   2.4418   2.5127   2.5599   2.6363   2.6845   2.8151   2.8468
     2.8878   2.9337   3.0251   3.0998   3.1623   3.2052   3.2450   3.3686
     3.3915   3.4553   3.5025   3.5996   3.6159   3.6527   3.7722   3.8038
     3.8391   3.8904   3.9844   4.0592   4.1227   4.3098   4.3399   4.5205
     5.0849   5.1630   6.3420   6.8576   6.9205   9.8235  10.6769  11.0539
    11.6099  11.9203  12.2749  12.6179  12.7100  12.7766  13.0368  13.0675
    13.2102  13.3375  13.3655  13.4867  13.5391  13.6365  13.7551  13.7930
    13.9545  14.0176  14.2750  14.4193  14.5738

     occupation numbers 
     1.0000   1.0000   1.0000   1.0000   1.0000   1.0000   1.0000   1.0000
     1.0000   1.0000   1.0000   1.0000   1.0000   1.0000   1.0000   1.0000
     1.0000   1.0000   1.0000   1.0000   1.0000   1.0000   1.0000   1.0000
     1.0000   1.0000   1.0000   1.0000   1.0000   1.0000   1.0000   1.0000
     1.0000   1.0000   1.0000   1.0000   1.0000   1.0000   1.0000   1.0000
     1.0000   1.0000   1.0000   1.0000   1.0000   1.0000   1.0000   1.0000
     1.0000   1.0000   1.0000   1.0000   1.0000   1.0000   1.0000   1.0000
     1.0000   1.0000   1.0000   1.0000   1.0000   1.0000   1.0000   1.0000
     1.0000   1.0000   1.0000   1.0000   1.0000   1.0000   1.0000   1.0000
     1.0000   1.0000   1.0000   1.0000   1.0000   1.0000   1.0000   1.0000
     1.0000   1.0000   1.0000   1.0000   1.0000   1.0000   1.0000   1.0000
     1.0000   1.0000   1.0000   1.0000   1.0000   1.0000   1.0000   1.0000
     1.0000   1.0000   1.0000   1.0000   1.0000   1.0000   1.0000   1.0000
     1.0000   1.0000   1.0000   1.0000   1.0000   1.0000   1.0000   1.0000
     1.0000   1.0000   1.0000   1.0000   1.0000   1.0000   1.0000   1.0000
     1.0000   1.0000   1.0000   1.0000   1.0000   1.0000   1.0000   1.0000
     1.0000   1.0000   1.0000   1.0000   1.0000   0.0000   0.0000   0.0000
     0.0000   0.0000   0.0000   0.0000   0.0000   0.0000   0.0000   0.0000
     0.0000   0.0000   0.0000   0.0000   0.0000   0.0000   0.0000   0.0000
     0.0000   0.0000   0.0000   0.0000   0.0000

          k = 0.1667 0.1921 0.2059 ( 25944 PWs)   bands (ev):

   -81.3605 -67.4904 -67.4010 -67.0572 -66.9866 -66.9355 -48.2260 -47.6214
   -46.4225 -34.2612 -34.2383 -34.2309 -34.1642 -34.1608 -34.1345 -33.8156
   -33.8089 -33.8070 -33.7608 -33.7520 -33.7127 -33.7006 -33.6772 -33.6741
   -23.0213 -22.9981 -14.9729 -14.9531 -14.1548 -14.1337 -13.6864 -13.6613
   -13.3293 -13.2061 -13.1437 -13.0793 -12.9971 -12.9142 -12.8711 -12.8493
   -12.7732 -12.6953 -12.4892 -12.4112 -12.3164 -12.2840 -12.1434 -12.0343
   -11.0259 -10.7897  -6.5896  -6.5705  -6.5133  -6.5035  -6.4767  -6.4687
    -4.0584  -4.0032  -2.4985  -2.4489  -1.7848  -1.4352  -1.2946  -1.2171
    -0.9246  -0.8112  -0.7378  -0.6860  -0.5581  -0.3438  -0.2456  -0.1991
    -0.0614   0.0833   0.1798   0.4212   0.4467   0.5841   0.6269   0.7624
     1.0540   1.1193   1.2661   1.3368   1.4271   1.5210   1.6037   1.7123
     1.8090   1.8551   1.9136   2.0253   2.1751   2.2014   2.2716   2.3852
     2.4236   2.4557   2.5163   2.5375   2.6077   2.6602   2.7293   2.7712
     2.8876   2.9058   3.0493   3.1144   3.1329   3.1977   3.2963   3.3693
     3.4032   3.4446   3.5073   3.5704   3.6241   3.6869   3.7758   3.8142
     3.8411   3.8900   3.9227   4.0684   4.1407   4.3186   4.3527   4.5276
     5.0782   5.1622   6.3432   6.8586   6.9168  10.1359  10.5799  10.8823
    11.2929  11.9065  12.2606  12.6172  12.7740  12.8593  13.1111  13.2192
    13.2946  13.3762  13.4338  13.4863  13.5600  13.6759  13.7282  13.7838
    13.8706  14.0201  14.1741  14.3312  14.5413

     occupation numbers 
     1.0000   1.0000   1.0000   1.0000   1.0000   1.0000   1.0000   1.0000
     1.0000   1.0000   1.0000   1.0000   1.0000   1.0000   1.0000   1.0000
     1.0000   1.0000   1.0000   1.0000   1.0000   1.0000   1.0000   1.0000
     1.0000   1.0000   1.0000   1.0000   1.0000   1.0000   1.0000   1.0000
     1.0000   1.0000   1.0000   1.0000   1.0000   1.0000   1.0000   1.0000
     1.0000   1.0000   1.0000   1.0000   1.0000   1.0000   1.0000   1.0000
     1.0000   1.0000   1.0000   1.0000   1.0000   1.0000   1.0000   1.0000
     1.0000   1.0000   1.0000   1.0000   1.0000   1.0000   1.0000   1.0000
     1.0000   1.0000   1.0000   1.0000   1.0000   1.0000   1.0000   1.0000
     1.0000   1.0000   1.0000   1.0000   1.0000   1.0000   1.0000   1.0000
     1.0000   1.0000   1.0000   1.0000   1.0000   1.0000   1.0000   1.0000
     1.0000   1.0000   1.0000   1.0000   1.0000   1.0000   1.0000   1.0000
     1.0000   1.0000   1.0000   1.0000   1.0000   1.0000   1.0000   1.0000
     1.0000   1.0000   1.0000   1.0000   1.0000   1.0000   1.0000   1.0000
     1.0000   1.0000   1.0000   1.0000   1.0000   1.0000   1.0000   1.0000
     1.0000   1.0000   1.0000   1.0000   1.0000   1.0000   1.0000   1.0000
     1.0000   1.0000   1.0000   1.0000   1.0000   0.0000   0.0000   0.0000
     0.0000   0.0000   0.0000   0.0000   0.0000   0.0000   0.0000   0.0000
     0.0000   0.0000   0.0000   0.0000   0.0000   0.0000   0.0000   0.0000
     0.0000   0.0000   0.0000   0.0000   0.0000

          k = 0.1667 0.1921-0.1457 ( 25923 PWs)   bands (ev):

   -81.3604 -67.4904 -67.4010 -67.0572 -66.9866 -66.9355 -48.2260 -47.6214
   -46.4225 -34.2612 -34.2383 -34.2309 -34.1642 -34.1608 -34.1345 -33.8156
   -33.8089 -33.8070 -33.7608 -33.7520 -33.7127 -33.7006 -33.6772 -33.6741
   -23.0213 -22.9981 -14.9802 -14.9455 -14.1579 -14.1305 -13.6832 -13.6647
   -13.3303 -13.2079 -13.1373 -13.0844 -12.9983 -12.9016 -12.8844 -12.8478
   -12.7732 -12.6943 -12.4883 -12.4111 -12.3098 -12.2919 -12.1436 -12.0333
   -11.0257 -10.7897  -6.5897  -6.5705  -6.5133  -6.5035  -6.4767  -6.4687
    -4.0452  -4.0167  -2.5018  -2.4446  -1.7941  -1.4383  -1.2950  -1.2162
    -0.9070  -0.8238  -0.7251  -0.6793  -0.5934  -0.3092  -0.2448  -0.2053
    -0.0893   0.1099   0.1645   0.4538   0.4902   0.6061   0.6168   0.7538
     1.0178   1.1092   1.2593   1.3401   1.4117   1.5171   1.6049   1.6926
     1.7549   1.8490   1.9316   2.0457   2.1356   2.2093   2.2744   2.3603
     2.4105   2.4519   2.5120   2.5544   2.6084   2.7020   2.7544   2.7926
     2.9063   2.9679   3.0481   3.0778   3.1466   3.2042   3.2858   3.3769
     3.4046   3.4431   3.4985   3.5792   3.6616   3.6916   3.7465   3.7832
     3.8279   3.8811   3.9087   4.0444   4.1816   4.3065   4.3495   4.5218
     5.0841   5.1639   6.3425   6.8568   6.9162   9.9988  10.7688  10.8278
    11.3883  11.9681  12.2995  12.6218  12.6903  12.8716  13.0588  13.1378
    13.2474  13.3395  13.4228  13.4753  13.5731  13.6643  13.7123  13.8715
    13.9085  13.9482  14.1227  14.3652  14.4871

     occupation numbers 
     1.0000   1.0000   1.0000   1.0000   1.0000   1.0000   1.0000   1.0000
     1.0000   1.0000   1.0000   1.0000   1.0000   1.0000   1.0000   1.0000
     1.0000   1.0000   1.0000   1.0000   1.0000   1.0000   1.0000   1.0000
     1.0000   1.0000   1.0000   1.0000   1.0000   1.0000   1.0000   1.0000
     1.0000   1.0000   1.0000   1.0000   1.0000   1.0000   1.0000   1.0000
     1.0000   1.0000   1.0000   1.0000   1.0000   1.0000   1.0000   1.0000
     1.0000   1.0000   1.0000   1.0000   1.0000   1.0000   1.0000   1.0000
     1.0000   1.0000   1.0000   1.0000   1.0000   1.0000   1.0000   1.0000
     1.0000   1.0000   1.0000   1.0000   1.0000   1.0000   1.0000   1.0000
     1.0000   1.0000   1.0000   1.0000   1.0000   1.0000   1.0000   1.0000
     1.0000   1.0000   1.0000   1.0000   1.0000   1.0000   1.0000   1.0000
     1.0000   1.0000   1.0000   1.0000   1.0000   1.0000   1.0000   1.0000
     1.0000   1.0000   1.0000   1.0000   1.0000   1.0000   1.0000   1.0000
     1.0000   1.0000   1.0000   1.0000   1.0000   1.0000   1.0000   1.0000
     1.0000   1.0000   1.0000   1.0000   1.0000   1.0000   1.0000   1.0000
     1.0000   1.0000   1.0000   1.0000   1.0000   1.0000   1.0000   1.0000
     1.0000   1.0000   1.0000   1.0000   1.0000   0.0000   0.0000   0.0000
     0.0000   0.0000   0.0000   0.0000   0.0000   0.0000   0.0000   0.0000
     0.0000   0.0000   0.0000   0.0000   0.0000   0.0000   0.0000   0.0000
     0.0000   0.0000   0.0000   0.0000   0.0000

          k = 0.3333 0.0000 0.0601 ( 25907 PWs)   bands (ev):

   -81.3604 -67.4904 -67.4010 -67.0571 -66.9866 -66.9355 -48.2260 -47.6214
   -46.4225 -34.2610 -34.2387 -34.2307 -34.1640 -34.1610 -34.1346 -33.8151
   -33.8088 -33.8076 -33.7607 -33.7518 -33.7100 -33.7029 -33.6787 -33.6731
   -23.0210 -22.9978 -14.8356 -14.7858 -14.2523 -14.2149 -13.8258 -13.7904
   -13.2888 -13.1405 -13.0920 -13.0672 -12.9934 -12.9093 -12.8402 -12.8171
   -12.7625 -12.6987 -12.5480 -12.4817 -12.4021 -12.3346 -12.1358 -12.0190
   -11.0207 -10.7996  -6.5921  -6.5759  -6.5104  -6.5019  -6.4761  -6.4616
    -3.6898  -3.6193  -2.5015  -2.3860  -1.8026  -1.6257  -1.5082  -1.2765
    -0.9104  -0.8325  -0.6963  -0.6526  -0.4817  -0.2920  -0.2597  -0.2303
    -0.0830   0.0850   0.2703   0.4431   0.5216   0.6346   0.6586   0.7075
     1.0227   1.0831   1.2379   1.3143   1.3920   1.4847   1.5735   1.6277
     1.6912   1.6937   1.8277   1.9656   2.0012   2.2084   2.3107   2.3239
     2.4491   2.4713   2.5353   2.5830   2.7046   2.7490   2.7730   2.8330
     2.8809   2.9640   3.0293   3.0659   3.1409   3.1724   3.2197   3.2421
     3.3999   3.4286   3.4489   3.5841   3.6230   3.6404   3.7311   3.7660
     3.7966   3.8565   3.9748   4.0433   4.0998   4.3106   4.3924   4.4351
     5.0235   5.1432   6.3495   6.8626   6.9481  10.2469  11.2619  11.4735
    11.9616  12.0766  12.2362  12.3110  12.7195  12.7570  12.8055  13.0408
    13.1798  13.2615  13.4479  13.5374  13.5844  13.6454  13.7734  13.9493
    13.9802  14.1931  14.2646  14.3522  14.4803

     occupation numbers 
     1.0000   1.0000   1.0000   1.0000   1.0000   1.0000   1.0000   1.0000
     1.0000   1.0000   1.0000   1.0000   1.0000   1.0000   1.0000   1.0000
     1.0000   1.0000   1.0000   1.0000   1.0000   1.0000   1.0000   1.0000
     1.0000   1.0000   1.0000   1.0000   1.0000   1.0000   1.0000   1.0000
     1.0000   1.0000   1.0000   1.0000   1.0000   1.0000   1.0000   1.0000
     1.0000   1.0000   1.0000   1.0000   1.0000   1.0000   1.0000   1.0000
     1.0000   1.0000   1.0000   1.0000   1.0000   1.0000   1.0000   1.0000
     1.0000   1.0000   1.0000   1.0000   1.0000   1.0000   1.0000   1.0000
     1.0000   1.0000   1.0000   1.0000   1.0000   1.0000   1.0000   1.0000
     1.0000   1.0000   1.0000   1.0000   1.0000   1.0000   1.0000   1.0000
     1.0000   1.0000   1.0000   1.0000   1.0000   1.0000   1.0000   1.0000
     1.0000   1.0000   1.0000   1.0000   1.0000   1.0000   1.0000   1.0000
     1.0000   1.0000   1.0000   1.0000   1.0000   1.0000   1.0000   1.0000
     1.0000   1.0000   1.0000   1.0000   1.0000   1.0000   1.0000   1.0000
     1.0000   1.0000   1.0000   1.0000   1.0000   1.0000   1.0000   1.0000
     1.0000   1.0000   1.0000   1.0000   1.0000   1.0000   1.0000   1.0000
     1.0000   1.0000   1.0000   1.0000   1.0000   0.0000   0.0000   0.0000
     0.0000   0.0000   0.0000   0.0000   0.0000   0.0000   0.0000   0.0000
     0.0000   0.0000   0.0000   0.0000   0.0000   0.0000   0.0000   0.0000
     0.0000   0.0000   0.0000   0.0000   0.0000

          k = 0.3333 0.0000 0.2360 ( 25948 PWs)   bands (ev):

   -81.3605 -67.4904 -67.4010 -67.0572 -66.9866 -66.9355 -48.2260 -47.6214
   -46.4225 -34.2610 -34.2387 -34.2307 -34.1640 -34.1610 -34.1346 -33.8151
   -33.8088 -33.8076 -33.7607 -33.7518 -33.7100 -33.7029 -33.6787 -33.6732
   -23.0210 -22.9978 -14.8170 -14.8054 -14.2500 -14.2173 -13.8198 -13.7967
   -13.2847 -13.1445 -13.0906 -13.0653 -12.9970 -12.9034 -12.8366 -12.8244
   -12.7659 -12.6989 -12.5367 -12.4946 -12.3851 -12.3483 -12.1259 -12.0279
   -11.0198 -10.8006  -6.5922  -6.5759  -6.5103  -6.5019  -6.4760  -6.4616
    -3.6911  -3.6181  -2.4749  -2.4164  -1.7764  -1.6633  -1.4852  -1.2611
    -0.9179  -0.8320  -0.7006  -0.6457  -0.4507  -0.3215  -0.2889  -0.2185
    -0.0876   0.0424   0.2884   0.4213   0.5150   0.6023   0.6559   0.7467
     1.0699   1.0936   1.2154   1.3109   1.3606   1.5137   1.5938   1.6337
     1.6970   1.7533   1.7803   1.9799   2.0881   2.1271   2.2828   2.3771
     2.4317   2.4670   2.5150   2.5856   2.6957   2.7387   2.7532   2.8157
     2.9042   2.9706   2.9939   3.0535   3.1387   3.1789   3.2276   3.2857
     3.4004   3.4431   3.4645   3.5819   3.5979   3.6454   3.7073   3.7636
     3.8106   3.8585   3.9293   3.9739   4.1866   4.2994   4.4183   4.4408
     5.0221   5.1403   6.3501   6.8624   6.9468  10.5686  10.8023  11.5432
    11.9702  12.0435  12.2139  12.3549  12.6676  12.6877  12.8397  12.9563
    13.3143  13.3541  13.4785  13.5014  13.5755  13.6634  13.8546  13.9538
    13.9848  14.0412  14.0447  14.4939  14.6239

     occupation numbers 
     1.0000   1.0000   1.0000   1.0000   1.0000   1.0000   1.0000   1.0000
     1.0000   1.0000   1.0000   1.0000   1.0000   1.0000   1.0000   1.0000
[...]
     atom   18 type  6   force =    -0.00069385    0.00092010   -0.00669520
     atom   19 type  6   force =     0.00069385    0.00092010    0.00669520
     atom   20 type  6   force =    -0.00099932   -0.00016218    0.00670062
     atom   21 type  6   force =     0.00099932   -0.00016218   -0.00670062
     atom   22 type  6   force =     0.00009670    0.00008940   -0.00315808
     atom   23 type  6   force =    -0.00009670    0.00008940    0.00315808
     atom   24 type  6   force =     0.00469465   -0.00196303   -0.00582393
     atom   25 type  6   force =    -0.00469465   -0.00196303    0.00582391
     atom   26 type  6   force =    -0.00368850    0.00087369   -0.00719456
     atom   27 type  6   force =     0.00368851    0.00087369    0.00719454
     atom   28 type  6   force =    -0.00167927    0.00242772    0.00740848
     atom   29 type  6   force =     0.00167927    0.00242772   -0.00740848
     atom   30 type  6   force =     0.00102600   -0.00236844   -0.00732694
     atom   31 type  6   force =    -0.00102600   -0.00236844    0.00732694
     atom   32 type  6   force =    -0.00251396   -0.00355893   -0.00656431
     atom   33 type  6   force =     0.00251394   -0.00355893    0.00656433
     atom   34 type  6   force =     0.00097625    0.00435085    0.00643732
     atom   35 type  6   force =    -0.00097625    0.00435085   -0.00643732
     atom   36 type  6   force =     0.00167292   -0.00151632    0.01096830
     atom   37 type  6   force =    -0.00167291   -0.00151632   -0.01096830
     atom   38 type  6   force =     0.00019795   -0.00179053    0.01096924
     atom   39 type  6   force =    -0.00019794   -0.00179052   -0.01096922
     atom   40 type  3   force =     0.00000000    0.00000000    0.00000000
     atom   41 type  3   force =     0.00000000    0.00000000    0.00000000
     atom   42 type  3   force =     0.00000000    0.00000000    0.00000000
     atom   43 type  3   force =     0.00000000    0.00000000    0.00000000
     atom   44 type  2   force =     0.00000000   -0.00471230   -0.00000000
     The Hubbard contrib.    to forces
     atom    1 type  4   force =     0.00000000    0.00000000    0.00000000
     atom    2 type  4   force =     0.00000000    0.00000000    0.00000000
     atom    3 type  5   force =     0.00000000    0.00000000    0.00000000
     atom    4 type  5   force =     0.00000000    0.00000000    0.00000000
     atom    5 type  5   force =     0.00000000    0.00000000    0.00000000
     atom    6 type  5   force =     0.00000000    0.00000000    0.00000000
     atom    7 type  5   force =     0.00000000    0.00000000    0.00000000
     atom    8 type  7   force =     0.00000000    0.00000000    0.00000000
     atom    9 type  7   force =     0.00000000    0.00000000    0.00000000
     atom   10 type  7   force =     0.00000000    0.00000000    0.00000000
     atom   11 type  7   force =     0.00000000    0.00000000    0.00000000
     atom   12 type  7   force =     0.00000000    0.00000000    0.00000000
     atom   13 type  7   force =     0.00000000    0.00000000    0.00000000
     atom   14 type  1   force =     0.00000000    0.00000000    0.00000000
     atom   15 type  1   force =     0.00000000    0.00000000    0.00000000
     atom   16 type  6   force =     0.00000000    0.00000000    0.00000000
     atom   17 type  6   force =     0.00000000    0.00000000    0.00000000
     atom   18 type  6   force =     0.00000000    0.00000000    0.00000000
     atom   19 type  6   force =     0.00000000    0.00000000    0.00000000
     atom   20 type  6   force =     0.00000000    0.00000000    0.00000000
     atom   21 type  6   force =     0.00000000    0.00000000    0.00000000
     atom   22 type  6   force =     0.00000000    0.00000000    0.00000000
     atom   23 type  6   force =     0.00000000    0.00000000    0.00000000
     atom   24 type  6   force =     0.00000000    0.00000000    0.00000000
     atom   25 type  6   force =     0.00000000    0.00000000    0.00000000
     atom   26 type  6   force =     0.00000000    0.00000000    0.00000000
     atom   27 type  6   force =     0.00000000    0.00000000    0.00000000
     atom   28 type  6   force =     0.00000000    0.00000000    0.00000000
     atom   29 type  6   force =     0.00000000    0.00000000    0.00000000
     atom   30 type  6   force =     0.00000000    0.00000000    0.00000000
     atom   31 type  6   force =     0.00000000    0.00000000    0.00000000
     atom   32 type  6   force =     0.00000000    0.00000000    0.00000000
     atom   33 type  6   force =     0.00000000    0.00000000    0.00000000
     atom   34 type  6   force =     0.00000000    0.00000000    0.00000000
     atom   35 type  6   force =     0.00000000    0.00000000    0.00000000
     atom   36 type  6   force =     0.00000000    0.00000000    0.00000000
     atom   37 type  6   force =     0.00000000    0.00000000    0.00000000
     atom   38 type  6   force =     0.00000000    0.00000000    0.00000000
     atom   39 type  6   force =     0.00000000    0.00000000    0.00000000
     atom   40 type  3   force =     0.00000000    0.00000000    0.00000000
     atom   41 type  3   force =     0.00000000    0.00000000    0.00000000
     atom   42 type  3   force =     0.00000000    0.00000000    0.00000000
     atom   43 type  3   force =     0.00000000    0.00000000    0.00000000
     atom   44 type  2   force =     0.00000000    0.00000000    0.00000000
     The SCF correction term to forces
     atom    1 type  4   force =     0.00000000    0.00001100   -0.00000000
     atom    2 type  4   force =     0.00000000   -0.00001045   -0.00000000
     atom    3 type  5   force =    -0.00000000    0.00001679   -0.00000000
     atom    4 type  5   force =    -0.00000000   -0.00000386   -0.00000000
     atom    5 type  5   force =     0.00000000   -0.00002498   -0.00000000
     atom    6 type  5   force =     0.00000000    0.00002717    0.00000000
     atom    7 type  5   force =    -0.00000000   -0.00000121   -0.00000000
     atom    8 type  7   force =    -0.00000314   -0.00000342   -0.00000459
     atom    9 type  7   force =     0.00000314   -0.00000342    0.00000459
     atom   10 type  7   force =     0.00000218   -0.00000110    0.00001583
     atom   11 type  7   force =    -0.00000218   -0.00000110   -0.00001583
     atom   12 type  7   force =     0.00000207    0.00000045   -0.00001806
     atom   13 type  7   force =    -0.00000207    0.00000045    0.00001806
     atom   14 type  1   force =    -0.00000085    0.00000245    0.00000345
     atom   15 type  1   force =     0.00000085    0.00000245   -0.00000345
     atom   16 type  6   force =     0.00000049    0.00000200   -0.00000906
     atom   17 type  6   force =    -0.00000049    0.00000200    0.00000906
     atom   18 type  6   force =     0.00000579    0.00000285    0.00001619
     atom   19 type  6   force =    -0.00000579    0.00000285   -0.00001619
     atom   20 type  6   force =     0.00000030   -0.00000314   -0.00002587
     atom   21 type  6   force =    -0.00000030   -0.00000314    0.00002587
     atom   22 type  6   force =    -0.00000029   -0.00000244    0.00000742
     atom   23 type  6   force =     0.00000029   -0.00000244   -0.00000742
     atom   24 type  6   force =    -0.00000231   -0.00000275   -0.00000570
     atom   25 type  6   force =     0.00000231   -0.00000275    0.00000570
     atom   26 type  6   force =    -0.00000055   -0.00000300   -0.00001308
     atom   27 type  6   force =     0.00000055   -0.00000300    0.00001308
     atom   28 type  6   force =     0.00000036   -0.00000090    0.00001885
     atom   29 type  6   force =    -0.00000036   -0.00000090   -0.00001885
     atom   30 type  6   force =     0.00000177   -0.00000086   -0.00001758
     atom   31 type  6   force =    -0.00000177   -0.00000086    0.00001758
     atom   32 type  6   force =    -0.00000105    0.00000387   -0.00001399
     atom   33 type  6   force =     0.00000105    0.00000387    0.00001399
     atom   34 type  6   force =    -0.00000148    0.00000047    0.00000636
     atom   35 type  6   force =     0.00000148    0.00000047   -0.00000636
     atom   36 type  6   force =    -0.00000920   -0.00000447   -0.00001411
     atom   37 type  6   force =     0.00000920   -0.00000447    0.00001411
     atom   38 type  6   force =    -0.00000058    0.00000609   -0.00001070
     atom   39 type  6   force =     0.00000058    0.00000609    0.00001070
     atom   40 type  3   force =    -0.00000058    0.00000015   -0.00000243
     atom   41 type  3   force =     0.00000058    0.00000015    0.00000243
     atom   42 type  3   force =     0.00000011    0.00000014   -0.00000104
     atom   43 type  3   force =    -0.00000011    0.00000014    0.00000104
     atom   44 type  2   force =    -0.00000000   -0.00002962   -0.00000000

     DFT-D3 dispersion contribution to forces:
     atom    1 type  4   force =    -0.00000000    0.00045045    0.00000000
     atom    2 type  4   force =     0.00000000   -0.00026699    0.00000000
     atom    3 type  5   force =     0.00000000    0.00027572   -0.00000000
     atom    4 type  5   force =     0.00000000    0.00064529   -0.00000000
     atom    5 type  5   force =     0.00000000   -0.00055354    0.00000000
     atom    6 type  5   force =    -0.00000000    0.00110994    0.00000000
     atom    7 type  5   force =     0.00000000   -0.00022920   -0.00000000
     atom    8 type  7   force =     0.00006749   -0.00003703   -0.00037588
     atom    9 type  7   force =    -0.00006749   -0.00003703    0.00037588
     atom   10 type  7   force =     0.00018388    0.00001686    0.00013865
     atom   11 type  7   force =    -0.00018388    0.00001686   -0.00013865
     atom   12 type  7   force =     0.00007874    0.00017610   -0.00015777
     atom   13 type  7   force =    -0.00007874    0.00017610    0.00015777
     atom   14 type  1   force =     0.00010257   -0.00002989   -0.00100348
     atom   15 type  1   force =    -0.00010257   -0.00002989    0.00100348
     atom   16 type  6   force =    -0.00000982    0.00007593    0.00044607
     atom   17 type  6   force =     0.00000982    0.00007593   -0.00044607
     atom   18 type  6   force =     0.00003687   -0.00002812   -0.00038249
     atom   19 type  6   force =    -0.00003687   -0.00002812    0.00038249
     atom   20 type  6   force =     0.00011635   -0.00004970    0.00038810
     atom   21 type  6   force =    -0.00011635   -0.00004970   -0.00038810
     atom   22 type  6   force =     0.00000507   -0.00005734    0.00012848
     atom   23 type  6   force =    -0.00000507   -0.00005734   -0.00012848
     atom   24 type  6   force =    -0.00018033    0.00099913    0.00011597
     atom   25 type  6   force =     0.00018033    0.00099914   -0.00011597
     atom   26 type  6   force =     0.00080401    0.00009054    0.00015561
     atom   27 type  6   force =    -0.00080401    0.00009054   -0.00015561
     atom   28 type  6   force =     0.00042461   -0.00059475   -0.00013165
     atom   29 type  6   force =    -0.00042461   -0.00059475    0.00013165
     atom   30 type  6   force =    -0.00026482    0.00040914    0.00017633
     atom   31 type  6   force =     0.00026482    0.00040914   -0.00017633
     atom   32 type  6   force =     0.00086681   -0.00044089    0.00036570
     atom   33 type  6   force =    -0.00086681   -0.00044089   -0.00036570
     atom   34 type  6   force =     0.00062297   -0.00050490   -0.00032284
     atom   35 type  6   force =    -0.00062297   -0.00050490    0.00032284
     atom   36 type  6   force =    -0.00004070    0.00004647   -0.00048231
     atom   37 type  6   force =     0.00004070    0.00004647    0.00048231
     atom   38 type  6   force =    -0.00001471    0.00007893   -0.00055030
     atom   39 type  6   force =     0.00001471    0.00007893    0.00055030
     atom   40 type  3   force =     0.00013204    0.00004983   -0.00017226
     atom   41 type  3   force =    -0.00013204    0.00004983    0.00017226
     atom   42 type  3   force =     0.00009318   -0.00046635   -0.00026349
     atom   43 type  3   force =    -0.00009318   -0.00046635    0.00026349
     atom   44 type  2   force =    -0.00000000   -0.00089961   -0.00000000

     Total force =     0.003791     Total SCF correction =     0.000098

     DFT-D3 dispersion Force =     0.004163
     Energy error            =      2.8E-05 Ry
     Gradient error          =      9.8E-04 Ry/Bohr

     bfgs converged in  17 scf cycles and  16 bfgs steps
     (criteria: energy <  1.0E-04 Ry, force <  1.0E-03 Ry/Bohr)

     End of BFGS Geometry Optimization

     Final energy             =   -2631.2400440871 Ry

     File ./temp/phl-fe1-fe3.bfgs deleted, as requested
Begin final coordinates

ATOMIC_POSITIONS (crystal)
K                0.0000000000        0.4931361888        0.0000000000
K                0.5000000000        0.0037113885        0.0000000000
Mg              -0.0000000000        0.0044386990        0.5000000000
Mg              -0.0000000000        0.3299726170        0.5000000000
Mg               0.5000000000        0.4926221906        0.5000000000
Mg               0.5000000000        0.8349556841        0.5000000000
Mg               0.5000000000        0.1719671584        0.5000000000
Si               0.0833030450        0.1652220668        0.2216421686
Si               0.9166969410        0.1652220668        0.7783578614
Si               0.9373665631        0.8350715851        0.7725361627
Si               0.0626334369        0.8350715851        0.2274638373
Si               0.5593013211        0.6663183168        0.2249373759
Si               0.4406986789        0.6663183168        0.7750626091
Al               0.4156511547        0.3309503118        0.7765532977
Al               0.5843488453        0.3309503118        0.2234467023
O                0.1273475850        0.1629740839        0.3841242451
O                0.8726523850        0.1629740839        0.6158757839
O                0.8726221802        0.8367454546        0.6113285116
O                0.1273778198        0.8367454546        0.3886714884
O                0.6125422249        0.6685360982        0.3866159486
O                0.3874577751        0.6685360982        0.6133840514
O                0.3608087747        0.3327020543        0.6042551063
O                0.6391912253        0.3327020543        0.3957448937
O                0.3439391400        0.2016436046        0.1645124321
O                0.6560608600        0.2016436046        0.8354875379
O                0.9927050943        0.9979123651        0.1657892073
O                0.0072949057        0.9979123651        0.8342107777
O                0.6880863322        0.7746648230        0.8338368624
O                0.3119136678        0.7746648230        0.1661631376
O                0.8125608953        0.7323316885        0.1682439020
O                0.1874391047        0.7323316885        0.8317560980
O                0.4950749858        0.5072727280        0.1601631226
O                0.5049249842        0.5072727280        0.8398368924
O                0.1419869749        0.2778462759        0.8414739854
O                0.8580130401        0.2778462759        0.1585260146
O                0.1320723543        0.4988162417        0.3934631625
O                0.8679276607        0.4988162417        0.6065368375
O                0.6330172632        0.9992709015        0.3971978813
O                0.3669827368        0.9992709015        0.6028020887
H                0.0872485314        0.4981510035        0.2974687055
H                0.9127514986        0.4981510035        0.7025312945
H                0.5941146476        0.0164850141        0.3023662820
H                0.4058853524        0.0164850141        0.6976337180
Fe              -0.0000000000        0.6633618912        0.5000000000
End final coordinates



     Writing all to output data dir ./temp/phl-fe1-fe3.save/ :
     XML data file, charge density, pseudopotentials, collected wavefunctions

     init_run     :    164.16s CPU    165.78s WALL (       1 calls)
     electrons    : 101963.31s CPU 102760.22s WALL (      17 calls)
     update_pot   :     46.79s CPU     47.00s WALL (      16 calls)
     forces       :   2079.71s CPU   2090.22s WALL (      17 calls)
     force_dftd3  :     71.88s CPU     72.00s WALL (      17 calls)

     Called by init_run:
     wfcinit      :    156.47s CPU    157.57s WALL (       1 calls)
     wfcinit:atom :      0.28s CPU      0.28s WALL (      40 calls)
     wfcinit:wfcr :    153.98s CPU    155.08s WALL (      40 calls)
     potinit      :      3.10s CPU      3.14s WALL (       1 calls)
     hinit0       :      0.97s CPU      1.00s WALL (       1 calls)

     Called by electrons:
     c_bands      :  93366.56s CPU  93937.92s WALL (     171 calls)
     sum_band     :   7533.63s CPU   7685.11s WALL (     171 calls)
     v_of_rho     :     66.15s CPU     68.60s WALL (     176 calls)
     v_h          :      2.14s CPU      2.26s WALL (     176 calls)
     v_xc         :     70.12s CPU     72.86s WALL (     193 calls)
     newd         :    606.51s CPU    684.60s WALL (     176 calls)
     PAW_pot      :    465.35s CPU    465.45s WALL (     192 calls)
     mix_rho      :      8.67s CPU      9.07s WALL (     171 calls)
     energy_dftd3 :     55.41s CPU     55.44s WALL (      17 calls)

     Called by c_bands:
     init_us_2    :    246.31s CPU    246.59s WALL (   15040 calls)
     cegterg      :  92874.28s CPU  93444.15s WALL (    6840 calls)

     Called by sum_band:
     sum_band:wei :      0.11s CPU      0.11s WALL (     171 calls)
     sum_band:loo :   6372.49s CPU   6434.79s WALL (     171 calls)
     sum_band:buf :     29.51s CPU     29.60s WALL (    6840 calls)
     sum_band:ini :    111.48s CPU    111.58s WALL (    6840 calls)
     sum_band:cal :   5049.12s CPU   5052.41s WALL (    7480 calls)
     sum_band:bec :     12.80s CPU     12.83s WALL (    7480 calls)
     addusdens    :   1143.43s CPU   1231.96s WALL (     171 calls)
                                        0.00s GPU  (     171 calls)
     addusd:skk   :      3.95s CPU      6.16s WALL (    1197 calls)
                                        0.00s GPU  (    1197 calls)

     Called by *egterg:
     cdiaghg      :   3395.41s CPU   3431.59s WALL (   48467 calls)
     cegterg:over :  12091.47s CPU  12095.40s WALL (   42747 calls)
     cegterg:upda :   7156.51s CPU   7190.44s WALL (   42747 calls)
     cegterg:last :  18557.25s CPU  18566.02s WALL (   18060 calls)
     cdiaghg:chol :     80.88s CPU     81.07s WALL (   48467 calls)
     cdiaghg:inve :     76.39s CPU     76.50s WALL (   48467 calls)
     cdiaghg:para :   1522.86s CPU   1539.09s WALL (   96934 calls)
     h_psi        :  35041.40s CPU  35408.44s WALL (   49627 calls)
     s_psi        :  14011.02s CPU  14013.17s WALL (   49627 calls)
     g_psi        :     67.26s CPU     67.41s WALL (   42747 calls)

     Called by h_psi:
     h_psi:calbec :  13800.65s CPU  13811.49s WALL (   49627 calls)
     vloc_psi     :   7170.81s CPU   7479.14s WALL (   49627 calls)
     add_vuspsi   :  14008.89s CPU  14011.24s WALL (   49627 calls)

     General routines
     calbec       :  20663.50s CPU  20678.96s WALL (   59827 calls)
     fft          :     32.01s CPU     35.27s WALL (    4661 calls)
     ffts         :      0.99s CPU      1.07s WALL (     694 calls)
     fftw         :   6023.84s CPU   6245.48s WALL ( 7561466 calls)
     interpolate  :      3.79s CPU      4.03s WALL (     352 calls)

     Parallel routines

     PAW routines
     PAW_pot      :    465.35s CPU    465.45s WALL (     192 calls)
     PAW_symme    :      0.13s CPU      0.14s WALL (     363 calls)

     PWSCF        :   1d 5h 6m CPU   1d 5h20m WALL


   This run was terminated on:  23:15: 7  17Jan2025            

=------------------------------------------------------------------------------=
   JOB DONE.
=------------------------------------------------------------------------------=
