 INFO
nunit      1    1    1
unit   cell
celltype   primcell
shape   parapipedal
 END_INFO
 DIM-GROUP
           3           1
 PRIMVEC
   10.6550291330    0.0000000000    0.0000000000
    0.0000000000    9.2677549950    0.0000000000
   -1.8548594370    0.0000000000   10.2470480680
 CONVVEC
   10.6550291330    0.0000000000    0.0000000000
    0.0000000000    9.2677549950    0.0000000000
   -1.8548594370    0.0000000000   10.2470480680
 PRIMCOORD
          88           1
 19      0.0000000000     4.5778156800     0.0000000000     0.0000000000    -0.0003746200     0.0000000000
 19      5.3275145670     4.5778156800     0.0000000000     0.0000000000    -0.0003735300     0.0000000000
 19      2.6637579230     0.0261053750     0.0000000000     0.0000049900     0.0000766500    -0.0000014600
 19      7.9912724890     0.0261053750     0.0000000000    -0.0000049900     0.0000766500     0.0000014600
 12     -0.9274296070     0.0588997710     5.1235234190     0.0000000000    -0.0002161000     0.0000000000
 12      4.4000849600     0.0588997710     5.1235234190     0.0000000000    -0.0002449600     0.0000000000
 12     -0.9274296070     6.1812815370     5.1235234190     0.0000000000     0.0003543700     0.0000000000
 12      4.4000849600     6.1812815370     5.1235234190     0.0000000000     0.0003401800     0.0000000000
 12      1.7363292640     4.5933290400     5.1235234190    -0.0000052900     0.0004209200    -0.0000160900
 12      7.0638435110     4.5933290400     5.1235234190     0.0000052900     0.0004209200     0.0000160900
 12      1.7363292640     7.7454614560     5.1235234190    -0.0000174300    -0.0002465000    -0.0000024700
 12      7.0638435110     7.7454614560     5.1235234190     0.0000174300    -0.0002465000     0.0000024700
 12      1.7363292640     1.5797019810     5.1235234190    -0.0000265400    -0.0001871100    -0.0000220300
 12      7.0638435110     1.5797019810     5.1235234190     0.0000265400    -0.0001871100     0.0000220300
 14      0.0791940860     1.5131409360     2.3066985830    -0.0000288500    -0.0001191700    -0.0001626600
 14      5.4067086210     1.5131409360     2.3066985830    -0.0000286000    -0.0001247900    -0.0001798200
 14      3.3934644160     1.5131409360     7.9403485730     0.0000286000    -0.0001247900     0.0001798200
 14      8.7209789830     1.5131409360     7.9403485730     0.0000288500    -0.0001191700     0.0001626600
 14      3.5498369600     7.7333268600     7.8608322070     0.0000735800    -0.0002046400     0.0003302600
 14      8.8773512070     7.7333268600     7.8608322070     0.0000745600    -0.0002069400     0.0003246600
 14     -0.0771781890     7.7333268600     2.3862146410    -0.0000745600    -0.0002069400    -0.0003246600
 14      5.2503364520     7.7333268600     2.3862146410    -0.0000735800    -0.0002046400    -0.0003302600
 14      2.5866854690     6.1764065960     2.3715793260    -0.0000620100     0.0001563000    -0.0003423500
 14      7.9142000360     6.1764065960     2.3715793260    -0.0000577000     0.0001592000    -0.0003356400
 14      0.8859730570     6.1764065960     7.8754675230     0.0000577000     0.0001592000     0.0003356400
 14      6.2134876240     6.1764065960     7.8754675230     0.0000620100     0.0001563000     0.0003423500
 13      0.7271442800     3.0639785680     7.9114022710     0.0001065200     0.0000455300     0.0001317900
 13      6.0546586870     3.0639785680     7.9114022710     0.0001130700     0.0000483200     0.0001173800
 13      2.7455147530     3.0639785680     2.3356444240    -0.0001130700     0.0000483200    -0.0001173800
 13      8.0730290000     3.0639785680     2.3356444240    -0.0001065200     0.0000455300    -0.0001317900
  8      0.0184881630     1.4608129400     3.9358455640    -0.0000169500     0.0002845400    -0.0003437700
  8      5.3460024850     1.4608129400     3.9358455640     0.0000481000     0.0002335400    -0.0004122900
  8      3.4541704970     1.4608129400     6.3112019000    -0.0000481000     0.0002335400     0.0004122900
  8      8.7816850630     1.4608129400     6.3112019000     0.0000169500     0.0002845400     0.0003437700
  8      3.5266801720     7.7364926690     6.2403969700     0.0002489700    -0.0001093100     0.0004356100
  8      8.8541950470     7.7364926690     6.2403969700     0.0002653800    -0.0000938400     0.0004388500
  8     -0.0540213800     7.7364926690     4.0066501760    -0.0002653800    -0.0000938400    -0.0004388500
  8      5.2734931870     7.7364926690     4.0066501760    -0.0002489700    -0.0001093100    -0.0004356100
  8      2.6175042390     6.2055822210     3.9998388500    -0.0000047900     0.0001541500    -0.0005618200
  8      7.9450184860     6.2055822210     3.9998388500    -0.0000042900     0.0001533400    -0.0005634600
  8      0.8551540730     6.2055822210     6.2472082960     0.0000042900     0.0001533400     0.0005634600
  8      6.1826684800     6.2055822210     6.2472082960     0.0000047900     0.0001541500     0.0005618200
  8      0.7980077570     3.0880326090     6.1636638980     0.0000238900    -0.0000620100     0.0003070500
  8      6.1255224840     3.0880326090     6.1636638980     0.0001640600    -0.0000580900     0.0003212900
  8      2.6746510400     3.0880326090     4.0833823360    -0.0001640600    -0.0000580900    -0.0003212900
  8      8.0021652870     3.0880326090     4.0833823360    -0.0000238900    -0.0000620100    -0.0003070500
  8      1.5597500470     1.8917887920     1.7332612510    -0.0002094900     0.0001762900     0.0004815600
  8      6.8872647730     1.8917887920     1.7332612510    -0.0001913700     0.0001849500     0.0004648000
  8      1.9129087500     1.8917887920     8.5137849820     0.0001913700     0.0001849500    -0.0004648000
  8      7.2404229980     1.8917887920     8.5137849820     0.0002094900     0.0001762900    -0.0004815600
  8     -0.2668604000     9.2356621410     1.7372080560    -0.0001423200     0.0001319600     0.0003681800
  8      5.0606542090     9.2356621410     1.7372080560    -0.0001401400     0.0001139800     0.0003373400
  8      3.7395192050     9.2356621410     8.5098387820     0.0001401400     0.0001139800    -0.0003373400
  8      9.0670340920     9.2356621410     8.5098387820     0.0001423200     0.0001319600    -0.0003681800
  8      2.1327633950     7.1206210730     8.4630567350    -0.0001329000     0.0002941400    -0.0003284500
  8      7.4602779620     7.1206210730     8.4630567350    -0.0001383500     0.0002970600    -0.0003272800
  8      1.3398954230     7.1206210730     1.7839902670     0.0001383500     0.0002970600     0.0003272800
  8      6.6674096700     7.1206210730     1.7839902670     0.0001329000     0.0002941400     0.0003284500
  8      3.9967186430     6.8418462610     1.7741585220    -0.0000780800    -0.0001277500     0.0002150000
  8      9.3242332100     6.8418462610     1.7741585220    -0.0000836200    -0.0001295500     0.0002214400
  8     -0.5240600430     6.8418462610     8.4728883270     0.0000836200    -0.0001295500    -0.0002214400
  8      4.8034544500     6.8418462610     8.4728883270     0.0000780800    -0.0001277500    -0.0002150000
  8      2.4158798440     4.7014135190     1.7200000240    -0.0003331200    -0.0002529000     0.0004298400
  8      7.7433947300     4.7014135190     1.7200000240    -0.0003352200    -0.0002610000     0.0004373200
  8      1.0567785500     4.7014135190     8.5270466710     0.0003352200    -0.0002610000    -0.0004373200
  8      6.3842929570     4.7014135190     8.5270466710     0.0003331200    -0.0002529000    -0.0004298400
  8     -0.8373881710     2.5487439850     8.5580983010     0.0003137400    -0.0001716300    -0.0006078600
  8      4.4901263960     2.5487439850     8.5580983010     0.0003147400    -0.0001715400    -0.0005563400
  8      4.3100469780     2.5487439850     1.6889487020    -0.0003147400    -0.0001715400     0.0005563400
  8      9.6375612350     2.5487439850     1.6889487020    -0.0003137400    -0.0001716300     0.0006078600
  8     -0.0000457240     4.7416117570     4.0288095910    -0.0001319700    -0.0001504200     0.0000435500
  8      5.3274688430     4.7416117570     4.0288095910    -0.0000800000    -0.0000942300     0.0000363300
  8      3.4727041940     4.7416117570     6.2182375650     0.0000800000    -0.0000942300    -0.0000363300
  8      8.8002187610     4.7416117570     6.2182375650     0.0001319700    -0.0001504200    -0.0000435500
  8      2.6409505740     9.2634042850     4.0877719560    -0.0000928500     0.0001970000     0.0006390600
  8      7.9684654600     9.2634042850     4.0877719560    -0.0000718000     0.0001990200     0.0006426300
  8      0.8317084210     9.2634042850     6.1592748920     0.0000718000     0.0001990200    -0.0006426300
  8      6.1592228390     9.2634042850     6.1592748920     0.0000928500     0.0001970000    -0.0006390600
  1      0.0047631820     4.5489087920     3.0818966950    -0.0000788600     0.0002127400     0.0001645500
  1      5.3322780260     4.5489087920     3.0818966950    -0.0000804300     0.0002179300     0.0001597200
  1      3.4678956500     4.5489087920     7.1651504610     0.0000804300     0.0002179300    -0.0001597200
  1      8.7954102170     4.5489087920     7.1651504610     0.0000788600     0.0002127400    -0.0001645500
  1      2.6076598100     0.1369646850     3.1319631670    -0.0001448400    -0.0002493300     0.0002012900
  1      7.9351740680     0.1369646850     3.1319631670    -0.0001422200    -0.0002497100     0.0002018400
  1      0.8649988760     0.1369646850     7.1150836810     0.0001422200    -0.0002497100    -0.0002018400
  1      6.1925135920     0.1369646850     7.1150836810     0.0001448400    -0.0002493300    -0.0002012900
 26     -0.9274296070     3.1104714200     5.1235234190     0.0000000000    -0.0002477900     0.0000000000
 26      4.4000849600     3.1104714200     5.1235234190     0.0000000000    -0.0002116900     0.0000000000
 CONVCOORD
          88           1
 19      0.0000000000     4.5778156800     0.0000000000
 19      5.3275145670     4.5778156800     0.0000000000
 19      2.6637579230     0.0261053750     0.0000000000
 19      7.9912724890     0.0261053750     0.0000000000
 12     -0.9274296070     0.0588997710     5.1235234190
 12      4.4000849600     0.0588997710     5.1235234190
 12     -0.9274296070     6.1812815370     5.1235234190
 12      4.4000849600     6.1812815370     5.1235234190
 12      1.7363292640     4.5933290400     5.1235234190
 12      7.0638435110     4.5933290400     5.1235234190
 12      1.7363292640     7.7454614560     5.1235234190
 12      7.0638435110     7.7454614560     5.1235234190
 12      1.7363292640     1.5797019810     5.1235234190
 12      7.0638435110     1.5797019810     5.1235234190
 14      0.0791940860     1.5131409360     2.3066985830
 14      5.4067086210     1.5131409360     2.3066985830
 14      3.3934644160     1.5131409360     7.9403485730
 14      8.7209789830     1.5131409360     7.9403485730
 14      3.5498369600     7.7333268600     7.8608322070
 14      8.8773512070     7.7333268600     7.8608322070
 14     -0.0771781890     7.7333268600     2.3862146410
 14      5.2503364520     7.7333268600     2.3862146410
 14      2.5866854690     6.1764065960     2.3715793260
 14      7.9142000360     6.1764065960     2.3715793260
 14      0.8859730570     6.1764065960     7.8754675230
 14      6.2134876240     6.1764065960     7.8754675230
 13      0.7271442800     3.0639785680     7.9114022710
 13      6.0546586870     3.0639785680     7.9114022710
 13      2.7455147530     3.0639785680     2.3356444240
 13      8.0730290000     3.0639785680     2.3356444240
  8      0.0184881630     1.4608129400     3.9358455640
  8      5.3460024850     1.4608129400     3.9358455640
  8      3.4541704970     1.4608129400     6.3112019000
  8      8.7816850630     1.4608129400     6.3112019000
  8      3.5266801720     7.7364926690     6.2403969700
  8      8.8541950470     7.7364926690     6.2403969700
  8     -0.0540213800     7.7364926690     4.0066501760
  8      5.2734931870     7.7364926690     4.0066501760
  8      2.6175042390     6.2055822210     3.9998388500
  8      7.9450184860     6.2055822210     3.9998388500
  8      0.8551540730     6.2055822210     6.2472082960
  8      6.1826684800     6.2055822210     6.2472082960
  8      0.7980077570     3.0880326090     6.1636638980
  8      6.1255224840     3.0880326090     6.1636638980
  8      2.6746510400     3.0880326090     4.0833823360
  8      8.0021652870     3.0880326090     4.0833823360
  8      1.5597500470     1.8917887920     1.7332612510
  8      6.8872647730     1.8917887920     1.7332612510
  8      1.9129087500     1.8917887920     8.5137849820
  8      7.2404229980     1.8917887920     8.5137849820
  8     -0.2668604000     9.2356621410     1.7372080560
  8      5.0606542090     9.2356621410     1.7372080560
  8      3.7395192050     9.2356621410     8.5098387820
  8      9.0670340920     9.2356621410     8.5098387820
  8      2.1327633950     7.1206210730     8.4630567350
  8      7.4602779620     7.1206210730     8.4630567350
  8      1.3398954230     7.1206210730     1.7839902670
  8      6.6674096700     7.1206210730     1.7839902670
  8      3.9967186430     6.8418462610     1.7741585220
  8      9.3242332100     6.8418462610     1.7741585220
  8     -0.5240600430     6.8418462610     8.4728883270
  8      4.8034544500     6.8418462610     8.4728883270
  8      2.4158798440     4.7014135190     1.7200000240
  8      7.7433947300     4.7014135190     1.7200000240
  8      1.0567785500     4.7014135190     8.5270466710
  8      6.3842929570     4.7014135190     8.5270466710
  8     -0.8373881710     2.5487439850     8.5580983010
  8      4.4901263960     2.5487439850     8.5580983010
  8      4.3100469780     2.5487439850     1.6889487020
  8      9.6375612350     2.5487439850     1.6889487020
  8     -0.0000457240     4.7416117570     4.0288095910
  8      5.3274688430     4.7416117570     4.0288095910
  8      3.4727041940     4.7416117570     6.2182375650
  8      8.8002187610     4.7416117570     6.2182375650
  8      2.6409505740     9.2634042850     4.0877719560
  8      7.9684654600     9.2634042850     4.0877719560
  8      0.8317084210     9.2634042850     6.1592748920
  8      6.1592228390     9.2634042850     6.1592748920
  1      0.0047631820     4.5489087920     3.0818966950
  1      5.3322780260     4.5489087920     3.0818966950
  1      3.4678956500     4.5489087920     7.1651504610
  1      8.7954102170     4.5489087920     7.1651504610
  1      2.6076598100     0.1369646850     3.1319631670
  1      7.9351740680     0.1369646850     3.1319631670
  1      0.8649988760     0.1369646850     7.1150836810
  1      6.1925135920     0.1369646850     7.1150836810
 26     -0.9274296070     3.1104714200     5.1235234190
 26      4.4000849600     3.1104714200     5.1235234190
 RECIP-PRIMVEC
    0.0938523947   -0.0000000000    0.0169885999

    0.0000000000    0.1079009966   -0.0000000000

    0.0000000000    0.0000000000    0.0975890806

 RECIP-CONVVEC
    0.0938523947   -0.0000000000    0.0169885999

    0.0000000000    0.1079009966   -0.0000000000

    0.0000000000    0.0000000000    0.0975890806

 WIGNER-SEITZ-PRIMCELL
           6
 -0.5327515E+01 -0.4633877E+01  0.4327047E+01   0.4788387E-15 -0.1000000E+01 -0.0000000E+00
 -0.5327515E+01 -0.4633877E+01 -0.4327047E+01   0.4788387E-15 -0.1000000E+01 -0.0000000E+00
 -0.3472655E+01 -0.4633877E+01 -0.5920001E+01   0.4788387E-15 -0.1000000E+01 -0.0000000E+00
  0.5327515E+01 -0.4633877E+01 -0.4327047E+01   0.4788387E-15 -0.1000000E+01 -0.0000000E+00
  0.5327515E+01 -0.4633877E+01  0.4327047E+01   0.4788387E-15 -0.1000000E+01 -0.0000000E+00
  0.3472655E+01 -0.4633877E+01  0.5920001E+01   0.4788387E-15 -0.1000000E+01 -0.0000000E+00
           4
  0.3472655E+01  0.4633877E+01  0.5920001E+01   0.6515160E+00 -0.1567861E-15  0.7586349E+00
  0.3472655E+01 -0.4633877E+01  0.5920001E+01   0.6515160E+00 -0.1567861E-15  0.7586349E+00
  0.5327515E+01 -0.4633877E+01  0.4327047E+01   0.6515160E+00 -0.1567861E-15  0.7586349E+00
  0.5327515E+01  0.4633877E+01  0.4327047E+01   0.6515160E+00 -0.1567861E-15  0.7586349E+00
           4
  0.3472655E+01  0.4633877E+01  0.5920001E+01  -0.1781194E+00  0.6343887E-16  0.9840089E+00
 -0.5327515E+01  0.4633877E+01  0.4327047E+01  -0.1781194E+00  0.6343887E-16  0.9840089E+00
 -0.5327515E+01 -0.4633877E+01  0.4327047E+01  -0.1781194E+00  0.6343887E-16  0.9840089E+00
  0.3472655E+01 -0.4633877E+01  0.5920001E+01  -0.1781194E+00  0.6343887E-16  0.9840089E+00
           4
  0.5327515E+01 -0.4633877E+01  0.4327047E+01   0.1000000E+01  0.0000000E+00  0.0000000E+00
  0.5327515E+01 -0.4633877E+01 -0.4327047E+01   0.1000000E+01  0.0000000E+00  0.0000000E+00
  0.5327515E+01  0.4633877E+01 -0.4327047E+01   0.1000000E+01  0.0000000E+00  0.0000000E+00
  0.5327515E+01  0.4633877E+01  0.4327047E+01   0.1000000E+01  0.0000000E+00  0.0000000E+00
           4
 -0.5327515E+01  0.4633877E+01  0.4327047E+01  -0.1000000E+01 -0.0000000E+00 -0.0000000E+00
 -0.5327515E+01  0.4633877E+01 -0.4327047E+01  -0.1000000E+01 -0.0000000E+00 -0.0000000E+00
 -0.5327515E+01 -0.4633877E+01 -0.4327047E+01  -0.1000000E+01 -0.0000000E+00 -0.0000000E+00
 -0.5327515E+01 -0.4633877E+01  0.4327047E+01  -0.1000000E+01 -0.0000000E+00 -0.0000000E+00
           4
  0.5327515E+01 -0.4633877E+01 -0.4327047E+01   0.1781194E+00 -0.2318437E-16 -0.9840089E+00
 -0.3472655E+01 -0.4633877E+01 -0.5920001E+01   0.1781194E+00 -0.2318437E-16 -0.9840089E+00
 -0.3472655E+01  0.4633877E+01 -0.5920001E+01   0.1781194E+00 -0.2318437E-16 -0.9840089E+00
  0.5327515E+01  0.4633877E+01 -0.4327047E+01   0.1781194E+00 -0.2318437E-16 -0.9840089E+00
           4
 -0.3472655E+01  0.4633877E+01 -0.5920001E+01  -0.6515160E+00 -0.1567861E-15 -0.7586349E+00
 -0.3472655E+01 -0.4633877E+01 -0.5920001E+01  -0.6515160E+00 -0.1567861E-15 -0.7586349E+00
 -0.5327515E+01 -0.4633877E+01 -0.4327047E+01  -0.6515160E+00 -0.1567861E-15 -0.7586349E+00
 -0.5327515E+01  0.4633877E+01 -0.4327047E+01  -0.6515160E+00 -0.1567861E-15 -0.7586349E+00
           6
  0.3472655E+01  0.4633877E+01  0.5920001E+01   0.4788387E-15  0.1000000E+01  0.0000000E+00
  0.5327515E+01  0.4633877E+01  0.4327047E+01   0.4788387E-15  0.1000000E+01  0.0000000E+00
  0.5327515E+01  0.4633877E+01 -0.4327047E+01   0.4788387E-15  0.1000000E+01  0.0000000E+00
 -0.3472655E+01  0.4633877E+01 -0.5920001E+01   0.4788387E-15  0.1000000E+01  0.0000000E+00
 -0.5327515E+01  0.4633877E+01 -0.4327047E+01   0.4788387E-15  0.1000000E+01  0.0000000E+00
 -0.5327515E+01  0.4633877E+01  0.4327047E+01   0.4788387E-15  0.1000000E+01  0.0000000E+00
 WIGNER-SEITZ-PRIMCELL_END
 WIGNER-SEITZ-CONVCELL
           6
 -0.5327515E+01 -0.4633877E+01  0.4327047E+01   0.4788387E-15 -0.1000000E+01 -0.0000000E+00
 -0.5327515E+01 -0.4633877E+01 -0.4327047E+01   0.4788387E-15 -0.1000000E+01 -0.0000000E+00
 -0.3472655E+01 -0.4633877E+01 -0.5920001E+01   0.4788387E-15 -0.1000000E+01 -0.0000000E+00
  0.5327515E+01 -0.4633877E+01 -0.4327047E+01   0.4788387E-15 -0.1000000E+01 -0.0000000E+00
  0.5327515E+01 -0.4633877E+01  0.4327047E+01   0.4788387E-15 -0.1000000E+01 -0.0000000E+00
  0.3472655E+01 -0.4633877E+01  0.5920001E+01   0.4788387E-15 -0.1000000E+01 -0.0000000E+00
           4
  0.3472655E+01  0.4633877E+01  0.5920001E+01   0.6515160E+00 -0.1567861E-15  0.7586349E+00
  0.3472655E+01 -0.4633877E+01  0.5920001E+01   0.6515160E+00 -0.1567861E-15  0.7586349E+00
  0.5327515E+01 -0.4633877E+01  0.4327047E+01   0.6515160E+00 -0.1567861E-15  0.7586349E+00
  0.5327515E+01  0.4633877E+01  0.4327047E+01   0.6515160E+00 -0.1567861E-15  0.7586349E+00
           4
  0.3472655E+01  0.4633877E+01  0.5920001E+01  -0.1781194E+00  0.6343887E-16  0.9840089E+00
 -0.5327515E+01  0.4633877E+01  0.4327047E+01  -0.1781194E+00  0.6343887E-16  0.9840089E+00
 -0.5327515E+01 -0.4633877E+01  0.4327047E+01  -0.1781194E+00  0.6343887E-16  0.9840089E+00
  0.3472655E+01 -0.4633877E+01  0.5920001E+01  -0.1781194E+00  0.6343887E-16  0.9840089E+00
           4
  0.5327515E+01 -0.4633877E+01  0.4327047E+01   0.1000000E+01  0.0000000E+00  0.0000000E+00
  0.5327515E+01 -0.4633877E+01 -0.4327047E+01   0.1000000E+01  0.0000000E+00  0.0000000E+00
  0.5327515E+01  0.4633877E+01 -0.4327047E+01   0.1000000E+01  0.0000000E+00  0.0000000E+00
  0.5327515E+01  0.4633877E+01  0.4327047E+01   0.1000000E+01  0.0000000E+00  0.0000000E+00
           4
 -0.5327515E+01  0.4633877E+01  0.4327047E+01  -0.1000000E+01 -0.0000000E+00 -0.0000000E+00
 -0.5327515E+01  0.4633877E+01 -0.4327047E+01  -0.1000000E+01 -0.0000000E+00 -0.0000000E+00
 -0.5327515E+01 -0.4633877E+01 -0.4327047E+01  -0.1000000E+01 -0.0000000E+00 -0.0000000E+00
 -0.5327515E+01 -0.4633877E+01  0.4327047E+01  -0.1000000E+01 -0.0000000E+00 -0.0000000E+00
           4
  0.5327515E+01 -0.4633877E+01 -0.4327047E+01   0.1781194E+00 -0.2318437E-16 -0.9840089E+00
 -0.3472655E+01 -0.4633877E+01 -0.5920001E+01   0.1781194E+00 -0.2318437E-16 -0.9840089E+00
 -0.3472655E+01  0.4633877E+01 -0.5920001E+01   0.1781194E+00 -0.2318437E-16 -0.9840089E+00
  0.5327515E+01  0.4633877E+01 -0.4327047E+01   0.1781194E+00 -0.2318437E-16 -0.9840089E+00
           4
 -0.3472655E+01  0.4633877E+01 -0.5920001E+01  -0.6515160E+00 -0.1567861E-15 -0.7586349E+00
 -0.3472655E+01 -0.4633877E+01 -0.5920001E+01  -0.6515160E+00 -0.1567861E-15 -0.7586349E+00
 -0.5327515E+01 -0.4633877E+01 -0.4327047E+01  -0.6515160E+00 -0.1567861E-15 -0.7586349E+00
 -0.5327515E+01  0.4633877E+01 -0.4327047E+01  -0.6515160E+00 -0.1567861E-15 -0.7586349E+00
           6
  0.3472655E+01  0.4633877E+01  0.5920001E+01   0.4788387E-15  0.1000000E+01  0.0000000E+00
  0.5327515E+01  0.4633877E+01  0.4327047E+01   0.4788387E-15  0.1000000E+01  0.0000000E+00
  0.5327515E+01  0.4633877E+01 -0.4327047E+01   0.4788387E-15  0.1000000E+01  0.0000000E+00
 -0.3472655E+01  0.4633877E+01 -0.5920001E+01   0.4788387E-15  0.1000000E+01  0.0000000E+00
 -0.5327515E+01  0.4633877E+01 -0.4327047E+01   0.4788387E-15  0.1000000E+01  0.0000000E+00
 -0.5327515E+01  0.4633877E+01  0.4327047E+01   0.4788387E-15  0.1000000E+01  0.0000000E+00
 WIGNER-SEITZ-CONVCELL_END
 BRILLOUIN-ZONE-PRIMCELL
           4
 -0.5422111E-01 -0.5395050E-01  0.3180594E-01  -0.9840089E+00 -0.2453444E-16 -0.1781194E+00
 -0.5422111E-01  0.5395050E-01  0.3180594E-01  -0.9840089E+00 -0.2453444E-16 -0.1781194E+00
 -0.3963129E-01  0.5395050E-01 -0.4879454E-01  -0.9840089E+00 -0.2453444E-16 -0.1781194E+00
 -0.3963129E-01 -0.5395050E-01 -0.4879454E-01  -0.9840089E+00 -0.2453444E-16 -0.1781194E+00
           4
 -0.5422111E-01  0.5395050E-01  0.3180594E-01  -0.7586349E+00 -0.4487041E-16  0.6515160E+00
 -0.5422111E-01 -0.5395050E-01  0.3180594E-01  -0.7586349E+00 -0.4487041E-16  0.6515160E+00
 -0.3963129E-01 -0.5395050E-01  0.4879454E-01  -0.7586349E+00 -0.4487041E-16  0.6515160E+00
 -0.3963129E-01  0.5395050E-01  0.4879454E-01  -0.7586349E+00 -0.4487041E-16  0.6515160E+00
           6
  0.3963129E-01 -0.5395050E-01  0.4879454E-01  -0.0000000E+00 -0.1000000E+01  0.0000000E+00
 -0.3963129E-01 -0.5395050E-01  0.4879454E-01  -0.0000000E+00 -0.1000000E+01  0.0000000E+00
 -0.5422111E-01 -0.5395050E-01  0.3180594E-01  -0.0000000E+00 -0.1000000E+01  0.0000000E+00
 -0.3963129E-01 -0.5395050E-01 -0.4879454E-01  -0.0000000E+00 -0.1000000E+01  0.0000000E+00
  0.3963129E-01 -0.5395050E-01 -0.4879454E-01  -0.0000000E+00 -0.1000000E+01  0.0000000E+00
  0.5422111E-01 -0.5395050E-01 -0.3180594E-01  -0.0000000E+00 -0.1000000E+01  0.0000000E+00
           4
 -0.3963129E-01  0.5395050E-01 -0.4879454E-01   0.1014160E-15 -0.5070802E-16 -0.1000000E+01
  0.3963129E-01  0.5395050E-01 -0.4879454E-01   0.1014160E-15 -0.5070802E-16 -0.1000000E+01
  0.3963129E-01 -0.5395050E-01 -0.4879454E-01   0.1014160E-15 -0.5070802E-16 -0.1000000E+01
 -0.3963129E-01 -0.5395050E-01 -0.4879454E-01   0.1014160E-15 -0.5070802E-16 -0.1000000E+01
           4
 -0.3963129E-01 -0.5395050E-01  0.4879454E-01  -0.0000000E+00 -0.5070802E-16  0.1000000E+01
  0.3963129E-01 -0.5395050E-01  0.4879454E-01  -0.0000000E+00 -0.5070802E-16  0.1000000E+01
  0.3963129E-01  0.5395050E-01  0.4879454E-01  -0.0000000E+00 -0.5070802E-16  0.1000000E+01
 -0.3963129E-01  0.5395050E-01  0.4879454E-01  -0.0000000E+00 -0.5070802E-16  0.1000000E+01
           6
  0.5422111E-01  0.5395050E-01 -0.3180594E-01  -0.0000000E+00  0.1000000E+01 -0.1288263E-14
  0.3963129E-01  0.5395050E-01 -0.4879454E-01  -0.0000000E+00  0.1000000E+01 -0.1288263E-14
 -0.3963129E-01  0.5395050E-01 -0.4879454E-01  -0.0000000E+00  0.1000000E+01 -0.1288263E-14
 -0.5422111E-01  0.5395050E-01  0.3180594E-01  -0.0000000E+00  0.1000000E+01 -0.1288263E-14
 -0.3963129E-01  0.5395050E-01  0.4879454E-01  -0.0000000E+00  0.1000000E+01 -0.1288263E-14
  0.3963129E-01  0.5395050E-01  0.4879454E-01  -0.0000000E+00  0.1000000E+01 -0.1288263E-14
           4
  0.5422111E-01 -0.5395050E-01 -0.3180594E-01   0.7586349E+00 -0.3192995E-17 -0.6515160E+00
  0.3963129E-01 -0.5395050E-01 -0.4879454E-01   0.7586349E+00 -0.3192995E-17 -0.6515160E+00
  0.3963129E-01  0.5395050E-01 -0.4879454E-01   0.7586349E+00 -0.3192995E-17 -0.6515160E+00
  0.5422111E-01  0.5395050E-01 -0.3180594E-01   0.7586349E+00 -0.3192995E-17 -0.6515160E+00
           4
  0.3963129E-01 -0.5395050E-01  0.4879454E-01   0.9840089E+00 -0.9351120E-16  0.1781194E+00
  0.5422111E-01 -0.5395050E-01 -0.3180594E-01   0.9840089E+00 -0.9351120E-16  0.1781194E+00
  0.5422111E-01  0.5395050E-01 -0.3180594E-01   0.9840089E+00 -0.9351120E-16  0.1781194E+00
  0.3963129E-01  0.5395050E-01  0.4879454E-01   0.9840089E+00 -0.9351120E-16  0.1781194E+00
 BRILLOUIN-ZONE-PRIMCELL_END
 BRILLOUIN-ZONE-CONVCELL
           4
 -0.5422111E-01 -0.5395050E-01  0.3180594E-01  -0.9840089E+00 -0.2453444E-16 -0.1781194E+00
 -0.5422111E-01  0.5395050E-01  0.3180594E-01  -0.9840089E+00 -0.2453444E-16 -0.1781194E+00
 -0.3963129E-01  0.5395050E-01 -0.4879454E-01  -0.9840089E+00 -0.2453444E-16 -0.1781194E+00
 -0.3963129E-01 -0.5395050E-01 -0.4879454E-01  -0.9840089E+00 -0.2453444E-16 -0.1781194E+00
           4
 -0.5422111E-01  0.5395050E-01  0.3180594E-01  -0.7586349E+00 -0.4487041E-16  0.6515160E+00
 -0.5422111E-01 -0.5395050E-01  0.3180594E-01  -0.7586349E+00 -0.4487041E-16  0.6515160E+00
 -0.3963129E-01 -0.5395050E-01  0.4879454E-01  -0.7586349E+00 -0.4487041E-16  0.6515160E+00
 -0.3963129E-01  0.5395050E-01  0.4879454E-01  -0.7586349E+00 -0.4487041E-16  0.6515160E+00
           6
  0.3963129E-01 -0.5395050E-01  0.4879454E-01  -0.0000000E+00 -0.1000000E+01  0.0000000E+00
 -0.3963129E-01 -0.5395050E-01  0.4879454E-01  -0.0000000E+00 -0.1000000E+01  0.0000000E+00
 -0.5422111E-01 -0.5395050E-01  0.3180594E-01  -0.0000000E+00 -0.1000000E+01  0.0000000E+00
 -0.3963129E-01 -0.5395050E-01 -0.4879454E-01  -0.0000000E+00 -0.1000000E+01  0.0000000E+00
  0.3963129E-01 -0.5395050E-01 -0.4879454E-01  -0.0000000E+00 -0.1000000E+01  0.0000000E+00
  0.5422111E-01 -0.5395050E-01 -0.3180594E-01  -0.0000000E+00 -0.1000000E+01  0.0000000E+00
           4
 -0.3963129E-01  0.5395050E-01 -0.4879454E-01   0.1014160E-15 -0.5070802E-16 -0.1000000E+01
  0.3963129E-01  0.5395050E-01 -0.4879454E-01   0.1014160E-15 -0.5070802E-16 -0.1000000E+01
  0.3963129E-01 -0.5395050E-01 -0.4879454E-01   0.1014160E-15 -0.5070802E-16 -0.1000000E+01
 -0.3963129E-01 -0.5395050E-01 -0.4879454E-01   0.1014160E-15 -0.5070802E-16 -0.1000000E+01
           4
 -0.3963129E-01 -0.5395050E-01  0.4879454E-01  -0.0000000E+00 -0.5070802E-16  0.1000000E+01
  0.3963129E-01 -0.5395050E-01  0.4879454E-01  -0.0000000E+00 -0.5070802E-16  0.1000000E+01
  0.3963129E-01  0.5395050E-01  0.4879454E-01  -0.0000000E+00 -0.5070802E-16  0.1000000E+01
 -0.3963129E-01  0.5395050E-01  0.4879454E-01  -0.0000000E+00 -0.5070802E-16  0.1000000E+01
           6
  0.5422111E-01  0.5395050E-01 -0.3180594E-01  -0.0000000E+00  0.1000000E+01 -0.1288263E-14
  0.3963129E-01  0.5395050E-01 -0.4879454E-01  -0.0000000E+00  0.1000000E+01 -0.1288263E-14
 -0.3963129E-01  0.5395050E-01 -0.4879454E-01  -0.0000000E+00  0.1000000E+01 -0.1288263E-14
 -0.5422111E-01  0.5395050E-01  0.3180594E-01  -0.0000000E+00  0.1000000E+01 -0.1288263E-14
 -0.3963129E-01  0.5395050E-01  0.4879454E-01  -0.0000000E+00  0.1000000E+01 -0.1288263E-14
  0.3963129E-01  0.5395050E-01  0.4879454E-01  -0.0000000E+00  0.1000000E+01 -0.1288263E-14
           4
  0.5422111E-01 -0.5395050E-01 -0.3180594E-01   0.7586349E+00 -0.3192995E-17 -0.6515160E+00
  0.3963129E-01 -0.5395050E-01 -0.4879454E-01   0.7586349E+00 -0.3192995E-17 -0.6515160E+00
  0.3963129E-01  0.5395050E-01 -0.4879454E-01   0.7586349E+00 -0.3192995E-17 -0.6515160E+00
  0.5422111E-01  0.5395050E-01 -0.3180594E-01   0.7586349E+00 -0.3192995E-17 -0.6515160E+00
           4
  0.3963129E-01 -0.5395050E-01  0.4879454E-01   0.9840089E+00 -0.9351120E-16  0.1781194E+00
  0.5422111E-01 -0.5395050E-01 -0.3180594E-01   0.9840089E+00 -0.9351120E-16  0.1781194E+00
  0.5422111E-01  0.5395050E-01 -0.3180594E-01   0.9840089E+00 -0.9351120E-16  0.1781194E+00
  0.3963129E-01  0.5395050E-01  0.4879454E-01   0.9840089E+00 -0.9351120E-16  0.1781194E+00
 BRILLOUIN-ZONE-CONVCELL_END
 ATOMS
   19    0.0000000000    4.5778156800    0.0000000000    0.0000000000   -0.0003746200    0.0000000000
   19    5.3275145670    4.5778156800    0.0000000000    0.0000000000   -0.0003735300    0.0000000000
   19    2.6637579230    0.0261053750    0.0000000000    0.0000049900    0.0000766500   -0.0000014600
   19    7.9912724890    0.0261053750    0.0000000000   -0.0000049900    0.0000766500    0.0000014600
   12   -0.9274296070    0.0588997710    5.1235234190    0.0000000000   -0.0002161000    0.0000000000
   12    4.4000849600    0.0588997710    5.1235234190    0.0000000000   -0.0002449600    0.0000000000
   12   -0.9274296070    6.1812815370    5.1235234190    0.0000000000    0.0003543700    0.0000000000
   12    4.4000849600    6.1812815370    5.1235234190    0.0000000000    0.0003401800    0.0000000000
   12    1.7363292640    4.5933290400    5.1235234190   -0.0000052900    0.0004209200   -0.0000160900