
     Program PWSCF v.7.3.1 starts on 22Jan2025 at 12:22: 6 

     This program is part of the open-source Quantum ESPRESSO suite
     for quantum simulation of materials; please cite
         "P. Giannozzi et al., J. Phys.:Condens. Matter 21 395502 (2009);
         "P. Giannozzi et al., J. Phys.:Condens. Matter 29 465901 (2017);
         "P. Giannozzi et al., J. Chem. Phys. 152 154105 (2020);
          URL http://www.quantum-espresso.org", 
     in publications or presentations arising from this work. More details at
     http://www.quantum-espresso.org/quote

     Parallel version (MPI), running on     6 processors

     MPI processes distributed on     1 nodes
     3228 MiB available memory on the printing compute node when the environment starts

     Reading input from relax.in

     Current dimensions of program PWSCF are:
     Max number of different atomic species (ntypx) = 10
     Max number of k-points (npk) =  40000
     Max angular momentum in pseudopotentials (lmaxx) =  4
     file Al.pbe-n-kjpaw_psl.1.0.0.UPF: wavefunction(s)  3S 3P renormalized
     file F.pbe-n-kjpaw_psl.1.0.0.UPF: wavefunction(s)  2S 2P renormalized
     file K.pbe-spn-kjpaw_psl.1.0.0.UPF: wavefunction(s)  3S renormalized
     file Mg.pbe-spnl-kjpaw_psl.1.0.0.UPF: wavefunction(s)  2P renormalized
     file O.pbe-n-kjpaw_psl.1.0.0.UPF: wavefunction(s)  2S 2P renormalized
     file Si.pbe-n-kjpaw_psl.1.0.0.UPF: wavefunction(s)  3S 3P renormalized

     R & G space division:  proc/nbgrp/npool/nimage =       6
     Subspace diagonalization in iterative solution of the eigenvalue problem:
     a serial algorithm will be used


     Parallelization info
     --------------------
     sticks:   dense  smooth     PW     G-vecs:    dense   smooth      PW
     Min        1105     554    150                97744    34578    4918
     Max        1106     555    151                97745    34580    4920
     Sum        6633    3329    905               586467   207475   29511

     Using Slab Decomposition



     bravais-lattice index     =          -12
     lattice parameter (alat)  =      10.0136  a.u.
     unit-cell volume          =    3303.4414 (a.u.)^3
     number of atoms/cell      =           40
     number of atomic types    =            6
     number of electrons       =       256.00
     number of Kohn-Sham states=          128
     kinetic-energy cutoff     =      60.0000  Ry
     charge density cutoff     =     480.0000  Ry
     scf convergence threshold =      1.0E-06
     mixing beta               =       0.7000
     number of iterations used =            8  plain     mixing
     energy convergence thresh.=      1.0E-04
     force convergence thresh. =      1.0E-03
     Exchange-correlation= SLA  PW   PBX  PBC
                           (   1   4   3   4   0   0   0)
     nstep                     =           50


     celldm(1)=  10.013640  celldm(2)=   1.735306  celldm(3)=   1.926511
     celldm(4)=   0.000000  celldm(5)=  -0.177565  celldm(6)=   0.000000

     crystal axes: (cart. coord. in units of alat)
               a(1) = (   1.000000   0.000000   0.000000 )  
               a(2) = (   0.000000   1.735306   0.000000 )  
               a(3) = (  -0.342081   0.000000   1.895896 )  

     reciprocal axes: (cart. coord. in units 2 pi/alat)
               b(1) = (  1.000000 -0.000000  0.180432 )  
               b(2) = (  0.000000  0.576267 -0.000000 )  
               b(3) = (  0.000000  0.000000  0.527455 )  


     PseudoPot. # 1 for Al read from file:
     ./../../pseudos/Al.pbe-n-kjpaw_psl.1.0.0.UPF
     MD5 check sum: 502b6b27b9c6270cab5dd1084b96fa6d
     Pseudo is Projector augmented-wave + core cor, Zval =  3.0
     Generated using &quot;atomic&quot; code by A. Dal Corso  v.6.3
     Shape of augmentation charge: PSQ
     Using radial grid of 1135 points,  6 beta functions with: 
                l(1) =   0
                l(2) =   0
                l(3) =   1
                l(4) =   1
                l(5) =   2
                l(6) =   2
     Q(r) pseudized with 0 coefficients 


     PseudoPot. # 2 for F  read from file:
     ./../../pseudos/F.pbe-n-kjpaw_psl.1.0.0.UPF
     MD5 check sum: 66d718ea72839a4268ab2a9540e8cdd4
     Pseudo is Projector augmented-wave + core cor, Zval =  7.0
     Generated using &quot;atomic&quot; code by A. Dal Corso  v.6.3
     Shape of augmentation charge: PSQ
     Using radial grid of 1105 points,  4 beta functions with: 
                l(1) =   0
                l(2) =   0
                l(3) =   1
                l(4) =   1
     Q(r) pseudized with 0 coefficients 


     PseudoPot. # 3 for K  read from file:
     ./../../pseudos/K.pbe-spn-kjpaw_psl.1.0.0.UPF
     MD5 check sum: 34cc42130a09071ebe376fd42eb21491
     Pseudo is Projector augmented-wave + core cor, Zval =  9.0
     Generated using &quot;atomic&quot; code by A. Dal Corso  v.6.2.2
     Shape of augmentation charge: PSQ
     Using radial grid of 1165 points,  6 beta functions with: 
                l(1) =   0
                l(2) =   0
                l(3) =   1
                l(4) =   1
                l(5) =   2
                l(6) =   2
     Q(r) pseudized with 0 coefficients 


     PseudoPot. # 4 for Mg read from file:
     ./../../pseudos/Mg.pbe-spnl-kjpaw_psl.1.0.0.UPF
     MD5 check sum: fda14e0d92a6a9a5ebed782e5a4b3067
     Pseudo is Projector augmented-wave + core cor, Zval = 10.0
     Generated using &quot;atomic&quot; code by A. Dal Corso  v.6.3
     Shape of augmentation charge: PSQ
     Using radial grid of 1129 points,  4 beta functions with: 
                l(1) =   0
                l(2) =   0
                l(3) =   1
                l(4) =   1
     Q(r) pseudized with 0 coefficients 


     PseudoPot. # 5 for O  read from file:
     ./../../pseudos/O.pbe-n-kjpaw_psl.1.0.0.UPF
     MD5 check sum: e99d9cef9b487d1ca56f5b95ecd0fd7a
     Pseudo is Projector augmented-wave + core cor, Zval =  6.0
     Generated using &quot;atomic&quot; code by A. Dal Corso  v.6.3
     Shape of augmentation charge: PSQ
     Using radial grid of 1095 points,  4 beta functions with: 
                l(1) =   0
                l(2) =   0
                l(3) =   1
                l(4) =   1
     Q(r) pseudized with 0 coefficients 


     PseudoPot. # 6 for Si read from file:
     ./../../pseudos/Si.pbe-n-kjpaw_psl.1.0.0.UPF
     MD5 check sum: c39c59da582df4a0d9f10159256ea34e
     Pseudo is Projector augmented-wave + core cor, Zval =  4.0
     Generated using &quot;atomic&quot; code by A. Dal Corso  v.6.3
     Shape of augmentation charge: PSQ
     Using radial grid of 1141 points,  6 beta functions with: 
                l(1) =   0
                l(2) =   0
                l(3) =   1
                l(4) =   1
                l(5) =   2
                l(6) =   2
     Q(r) pseudized with 0 coefficients 


     atomic species   valence    mass     pseudopotential
     Al                3.00    26.98154     Al( 1.00)
     F                 7.00    18.99840     F ( 1.00)
     K                 9.00    39.09830     K ( 1.00)
     Mg               10.00    24.30500     Mg( 1.00)
     O                 6.00    15.99940     O ( 1.00)
     Si                4.00    28.08550     Si( 1.00)

      2 Sym. Ops. (no inversion) found


                                    s                        frac. trans.

      isym =  1     identity                                     

 cryst.   s( 1) = (     1          0          0      )
                  (     0          1          0      )
                  (     0          0          1      )

 cart.    s( 1) = (  1.0000000  0.0000000 -0.0000000 )
                  (  0.0000000  1.0000000  0.0000000 )
                  (  0.0000000  0.0000000  1.0000000 )


      isym =  2     180 deg rotation - cart. axis [0,1,0]        

 cryst.   s( 2) = (    -1          0          0      )
                  (     0          1          0      )
                  (     0          0         -1      )

 cart.    s( 2) = ( -1.0000000  0.0000000  0.0000000 )
                  (  0.0000000  1.0000000  0.0000000 )
                  (  0.0000000  0.0000000 -1.0000000 )


     point group C_2  (2)   
     there are  2 classes
     the character table:

       E     C2   
A      1.00  1.00
B      1.00 -1.00

     the symmetry operations in each class and the name of the first element:

     E        1
          identity                                               
     C2       2
          180 deg rotation - cart. axis [0,1,0]                  

   Cartesian axes

     site n.     atom                  positions (alat units)
         1        K      tau(   1) = (   0.0000000   0.8559224   0.0000000  )
         2        K      tau(   2) = (   0.5000000   0.0093568   0.0000000  )
         3        Mg     tau(   3) = (  -0.1710407   0.0067712   0.9479482  )
         4        Mg     tau(   4) = (  -0.1710407   0.5780843   0.9479482  )
         5        Mg     tau(   5) = (  -0.1710407   1.1543881   0.9479482  )
         6        Mg     tau(   6) = (   0.3289593   0.8562226   0.9479482  )
         7        Mg     tau(   7) = (   0.3289593   1.4480089   0.9479482  )
         8        Mg     tau(   8) = (   0.3289593   0.2986375   0.9479482  )
         9        Si     tau(   9) = (   0.0066674   0.2865251   0.4219393  )
        10        Si     tau(  10) = (   0.6512513   0.2865251   1.4739570  )
        11        Si     tau(  11) = (   0.6701371   1.4476688   1.4628623  )
        12        Si     tau(  12) = (  -0.0122184   1.4476688   0.4330341  )
        13        Si     tau(  13) = (   0.4872056   1.1568454   0.4292651  )
        14        Si     tau(  14) = (   0.1707131   1.1568454   1.4666313  )
        15        Al     tau(  15) = (   0.1506005   0.5746762   1.4713786  )
        16        Al     tau(  16) = (   0.5073182   0.5746762   0.4245177  )
        17        O      tau(  17) = (  -0.0043508   0.2833738   0.7297400  )
        18        O      tau(  18) = (   0.6622695   0.2833738   1.1661564  )
        19        O      tau(  19) = (   0.6658139   1.4451231   1.1576912  )
        20        O      tau(  20) = (  -0.0078952   1.4451231   0.7382052  )
        21        O      tau(  21) = (   0.4926234   1.1618863   0.7357690  )
        22        O      tau(  22) = (   0.1652953   1.1618863   1.1601274  )
        23        O      tau(  23) = (   0.1548298   0.5779784   1.1454267  )
        24        O      tau(  24) = (   0.5030889   0.5779784   0.7504697  )
        25        O      tau(  25) = (   0.2847398   0.3548857   0.3143567  )
        26        O      tau(  26) = (   0.3731789   0.3548857   1.5815398  )
        27        O      tau(  27) = (   0.9404978   1.7303189   0.3181314  )
        28        O      tau(  28) = (  -0.2825791   1.7303189   1.5777650  )
        29        O      tau(  29) = (   0.3988927   1.3439356   1.5754330  )
        30        O      tau(  30) = (   0.2590260   1.3439356   0.3204634  )
        31        O      tau(  31) = (   0.7582660   1.2710892   0.3185125  )
        32        O      tau(  32) = (  -0.1003473   1.2710892   1.5773839  )
        33        O      tau(  33) = (   0.4432368   0.8811364   0.3085875  )
        34        O      tau(  34) = (   0.2146819   0.8811364   1.5873090  )
        35        O      tau(  35) = (  -0.1423236   0.4782556   1.5925436  )
        36        O      tau(  36) = (   0.8002423   0.4782556   0.3033529  )
        37        F      tau(  37) = (  -0.0041068   0.8750247   0.7469263  )
        38        F      tau(  38) = (   0.6620255   0.8750247   1.1489701  )
        39        F      tau(  39) = (   0.4966158   1.7335917   0.7534577  )
        40        F      tau(  40) = (   0.1613029   1.7335917   1.1424388  )

     --------------------------------------------
     DFT-D3 Dispersion Correction (3-body terms):
     --------------------------------------------
       Reference C6 values for interpolation: 

         atom   Coordination number   C6
         O          0.000            31.01
         O          0.993            25.63
         O          1.989            20.74
         F          0.000            19.38
         F          0.998            14.27
         Mg         0.000          1366.75
         Mg         0.963           902.54
         Mg         1.950           351.12
         Al         0.000          1081.08
         Al         0.965           875.51
         Al         1.931           513.50
         Al         2.915           307.19
         Si         0.000           635.71
         Si         0.951           540.53
         Si         1.944           466.25
         Si         2.941           443.01
         Si         3.868           299.55
         K          0.000          9967.00
         K          0.977           676.04

       Values used:

         atom   Coordination number  R0_AB[au]  C6      C8
         K         13.170            4.007    676.04 129074.98
         K         13.448            4.007    676.04 129074.98
         Mg        11.803            3.292    351.12  31436.69
         Mg        12.159            3.292    351.12  31436.69
         Mg        11.752            3.292    351.12  31436.69
         Mg        12.021            3.292    351.12  31436.69
         Mg        11.719            3.292    351.12  31436.69
         Mg        12.159            3.292    351.12  31436.69
         Si         6.965            3.583    299.55  21425.58
         Si         6.965            3.583    299.55  21425.58
         Si         6.543            3.583    299.55  21425.58
         Si         6.543            3.583    299.55  21425.58
         Si         6.594            3.583    299.55  21425.58
         Si         6.594            3.583    299.55  21425.58
         Al         7.863            3.789    307.19  29441.29
         Al         7.863            3.789    307.19  29441.29
         O          3.930            2.345     20.74    418.58
         O          3.930            2.345     20.74    418.58
         O          3.930            2.345     20.74    418.58
         O          3.930            2.345     20.74    418.58
         O          3.913            2.345     20.74    418.58
         O          3.913            2.345     20.74    418.58
         O          3.991            2.345     20.74    418.58
         O          3.991            2.345     20.74    418.58
         O          3.192            2.345     20.74    418.58
         O          3.192            2.345     20.74    418.58
         O          3.154            2.345     20.74    418.58
         O          3.154            2.345     20.74    418.58
         O          3.056            2.345     20.74    418.58
         O          3.056            2.345     20.74    418.58
         O          3.059            2.345     20.74    418.58
         O          3.059            2.345     20.74    418.58
         O          3.190            2.345     20.74    418.58
         O          3.190            2.345     20.74    418.58
         O          3.263            2.345     20.74    418.58
         O          3.263            2.345     20.74    418.58
         F          3.025            2.173     14.27    244.15
         F          3.025            2.173     14.27    244.15
         F          3.024            2.173     14.27    244.15
         F          3.024            2.173     14.27    244.15

         Molecular C6 ( Ry / a.u.^6 ) =    157465.17


   Crystallographic axes

     site n.     atom                  positions (cryst. coord.)
         1        K      tau(   1) = (  0.0000000  0.4932400  0.0000000  )
         2        K      tau(   2) = (  0.5000000  0.0053920  0.0000000  )
         3        Mg     tau(   3) = (  0.0000000  0.0039020  0.5000000  )
         4        Mg     tau(   4) = (  0.0000000  0.3331310  0.5000000  )
         5        Mg     tau(   5) = (  0.0000000  0.6652360  0.5000000  )
         6        Mg     tau(   6) = (  0.5000000  0.4934130  0.5000000  )
         7        Mg     tau(   7) = (  0.5000000  0.8344400  0.5000000  )
         8        Mg     tau(   8) = (  0.5000000  0.1720950  0.5000000  )
         9        Si     tau(   9) = (  0.0827990  0.1651150  0.2225540  )
        10        Si     tau(  10) = (  0.9172010  0.1651150  0.7774460  )
        11        Si     tau(  11) = (  0.9340850  0.8342440  0.7715940  )
        12        Si     tau(  12) = (  0.0659150  0.8342440  0.2284060  )
        13        Si     tau(  13) = (  0.5646590  0.6666520  0.2264180  )
        14        Si     tau(  14) = (  0.4353410  0.6666520  0.7735820  )
        15        Al     tau(  15) = (  0.4160850  0.3311670  0.7760860  )
        16        Al     tau(  16) = (  0.5839150  0.3311670  0.2239140  )
        17        O      tau(  17) = (  0.1273180  0.1632990  0.3849050  )
        18        O      tau(  18) = (  0.8726820  0.1632990  0.6150950  )
        19        O      tau(  19) = (  0.8746990  0.8327770  0.6106300  )
        20        O      tau(  20) = (  0.1253010  0.8327770  0.3893700  )
        21        O      tau(  21) = (  0.6253800  0.6695570  0.3880850  )
        22        O      tau(  22) = (  0.3746200  0.6695570  0.6119150  )
        23        O      tau(  23) = (  0.3615020  0.3330700  0.6041610  )
        24        O      tau(  24) = (  0.6384980  0.3330700  0.3958390  )
        25        O      tau(  25) = (  0.3414600  0.2045090  0.1658090  )
        26        O      tau(  26) = (  0.6585400  0.2045090  0.8341910  )
        27        O      tau(  27) = (  0.9978990  0.9971260  0.1678000  )
        28        O      tau(  28) = (  0.0021010  0.9971260  0.8322000  )
        29        O      tau(  29) = (  0.6831520  0.7744660  0.8309700  )
        30        O      tau(  30) = (  0.3168480  0.7744660  0.1690300  )
        31        O      tau(  31) = (  0.8157360  0.7324870  0.1680010  )
        32        O      tau(  32) = (  0.1842640  0.7324870  0.8319990  )
        33        O      tau(  33) = (  0.4989160  0.5077700  0.1627660  )
        34        O      tau(  34) = (  0.5010840  0.5077700  0.8372340  )
        35        O      tau(  35) = (  0.1450230  0.2756030  0.8399950  )
        36        O      tau(  36) = (  0.8549770  0.2756030  0.1600050  )
        37        F      tau(  37) = (  0.1306630  0.5042480  0.3939700  )
        38        F      tau(  38) = (  0.8693370  0.5042480  0.6060300  )
        39        F      tau(  39) = (  0.6325640  0.9990120  0.3974150  )
        40        F      tau(  40) = (  0.3674360  0.9990120  0.6025850  )

     number of k points=    20
                       cart. coord. in units 2pi/alat
        k(    1) = (   0.0000000   0.0000000   0.0000000), wk =   0.0370370
        k(    2) = (   0.0000000   0.0000000   0.1758183), wk =   0.0740741
        k(    3) = (   0.0000000   0.1920891   0.0000000), wk =   0.0740741
        k(    4) = (   0.0000000   0.1920891   0.1758183), wk =   0.1481481
        k(    5) = (   0.1666667   0.0000000   0.0300721), wk =   0.0740741
        k(    6) = (   0.1666667   0.0000000   0.2058904), wk =   0.0740741
        k(    7) = (   0.1666667   0.0000000  -0.1457462), wk =   0.0740741
        k(    8) = (   0.1666667   0.1920891   0.0300721), wk =   0.1481481
        k(    9) = (   0.1666667   0.1920891   0.2058904), wk =   0.1481481
        k(   10) = (   0.1666667   0.1920891  -0.1457462), wk =   0.1481481
        k(   11) = (   0.3333333   0.0000000   0.0601442), wk =   0.0740741
        k(   12) = (   0.3333333   0.0000000   0.2359625), wk =   0.0740741
        k(   13) = (   0.3333333   0.0000000  -0.1156742), wk =   0.0740741
        k(   14) = (   0.3333333   0.1920891   0.0601442), wk =   0.1481481
        k(   15) = (   0.3333333   0.1920891   0.2359625), wk =   0.1481481
        k(   16) = (   0.3333333   0.1920891  -0.1156742), wk =   0.1481481
        k(   17) = (  -0.5000000   0.0000000  -0.0902162), wk =   0.0370370
        k(   18) = (  -0.5000000   0.0000000   0.0856021), wk =   0.0740741
        k(   19) = (  -0.5000000   0.1920891  -0.0902162), wk =   0.0740741
        k(   20) = (  -0.5000000   0.1920891   0.0856021), wk =   0.1481481

                       cryst. coord.
        k(    1) = (   0.0000000   0.0000000   0.0000000), wk =   0.0370370
        k(    2) = (   0.0000000   0.0000000   0.3333333), wk =   0.0740741
        k(    3) = (   0.0000000   0.3333333   0.0000000), wk =   0.0740741
        k(    4) = (   0.0000000   0.3333333   0.3333333), wk =   0.1481481
        k(    5) = (   0.1666667   0.0000000  -0.0000000), wk =   0.0740741
        k(    6) = (   0.1666667   0.0000000   0.3333333), wk =   0.0740741
        k(    7) = (   0.1666667   0.0000000  -0.3333333), wk =   0.0740741
        k(    8) = (   0.1666667   0.3333333  -0.0000000), wk =   0.1481481
        k(    9) = (   0.1666667   0.3333333   0.3333333), wk =   0.1481481
        k(   10) = (   0.1666667   0.3333333  -0.3333333), wk =   0.1481481
        k(   11) = (   0.3333333   0.0000000  -0.0000000), wk =   0.0740741
        k(   12) = (   0.3333333   0.0000000   0.3333333), wk =   0.0740741
        k(   13) = (   0.3333333   0.0000000  -0.3333333), wk =   0.0740741
        k(   14) = (   0.3333333   0.3333333  -0.0000000), wk =   0.1481481
        k(   15) = (   0.3333333   0.3333333   0.3333333), wk =   0.1481481
        k(   16) = (   0.3333333   0.3333333  -0.3333333), wk =   0.1481481
        k(   17) = (  -0.5000000   0.0000000   0.0000000), wk =   0.0370370
        k(   18) = (  -0.5000000   0.0000000   0.3333333), wk =   0.0740741
        k(   19) = (  -0.5000000   0.3333333   0.0000000), wk =   0.0740741
        k(   20) = (  -0.5000000   0.3333333   0.3333333), wk =   0.1481481

     Dense  grid:   586467 G-vectors     FFT dimensions: (  72, 125, 135)

     Smooth grid:   207475 G-vectors     FFT dimensions: (  50,  90,  96)

     Dynamical RAM for                 wfc:       8.44 MB

     Dynamical RAM for     wfc (w. buffer):     177.23 MB

     Dynamical RAM for           str. fact:       8.95 MB

     Dynamical RAM for           local pot:       0.00 MB

     Dynamical RAM for          nlocal pot:      27.69 MB

     Dynamical RAM for                qrad:      10.55 MB

     Dynamical RAM for          rho,v,vnew:       9.21 MB

     Dynamical RAM for               rhoin:       3.07 MB

     Dynamical RAM for            rho*nmix:      23.86 MB

     Dynamical RAM for           G-vectors:       5.86 MB

     Dynamical RAM for          h,s,v(r/c):       3.00 MB

     Dynamical RAM for          <psi|beta>:       0.82 MB

     Dynamical RAM for                 psi:      16.88 MB

     Dynamical RAM for                hpsi:      16.88 MB

     Dynamical RAM for                spsi:      16.88 MB

     Dynamical RAM for      wfcinit/wfcrot:      23.64 MB

     Dynamical RAM for           addusdens:     307.24 MB

     Dynamical RAM for          addusforce:     364.74 MB

     Estimated static dynamical RAM per process >     260.89 MB

     Estimated max dynamical RAM per process >     649.50 MB

     Estimated total dynamical RAM >       3.81 GB

     Check: negative core charge=   -0.000004

     Initial potential from superposition of free atoms

     starting charge     255.9488, renormalised to     256.0000
     Starting wfcs are  174 randomized atomic wfcs
     Checking if some PAW data can be deallocated... 
       PAW data deallocated on    5 nodes for type:  1
       PAW data deallocated on    5 nodes for type:  2
       PAW data deallocated on    5 nodes for type:  3
       PAW data deallocated on    4 nodes for type:  4
       PAW data deallocated on    2 nodes for type:  5
       PAW data deallocated on    5 nodes for type:  6

     total cpu time spent up to now is      162.4 secs

     Self-consistent Calculation

     iteration #  1     ecut=    60.00 Ry     beta= 0.70
     Davidson diagonalization with overlap

---- Real-time Memory Report at c_bands before calling an iterative solver
           386 MiB given to the printing process from OS
             0 MiB allocation reported by mallinfo(arena+hblkhd)
          1801 MiB available memory on the node where the printing process lives
------------------
     ethr =  1.00E-02,  avg # of iterations =  2.0

     total cpu time spent up to now is      498.2 secs

     total energy              =   -2502.57357439 Ry
     estimated scf accuracy    <      11.47602597 Ry

     iteration #  2     ecut=    60.00 Ry     beta= 0.70
     Davidson diagonalization with overlap

---- Real-time Memory Report at c_bands before calling an iterative solver
           621 MiB given to the printing process from OS
             0 MiB allocation reported by mallinfo(arena+hblkhd)
          1888 MiB available memory on the node where the printing process lives
------------------
     ethr =  4.48E-03,  avg # of iterations =  5.0

     total cpu time spent up to now is     1121.5 secs

     total energy              =   -2508.60142192 Ry
     estimated scf accuracy    <       9.05990293 Ry

     iteration #  3     ecut=    60.00 Ry     beta= 0.70
     Davidson diagonalization with overlap

---- Real-time Memory Report at c_bands before calling an iterative solver
           624 MiB given to the printing process from OS
             0 MiB allocation reported by mallinfo(arena+hblkhd)
          1892 MiB available memory on the node where the printing process lives
------------------
     ethr =  3.54E-03,  avg # of iterations =  2.0

     total cpu time spent up to now is     1494.3 secs

     total energy              =   -2508.58935044 Ry
     estimated scf accuracy    <       1.83306806 Ry

     iteration #  4     ecut=    60.00 Ry     beta= 0.70
     Davidson diagonalization with overlap

---- Real-time Memory Report at c_bands before calling an iterative solver
           625 MiB given to the printing process from OS
             0 MiB allocation reported by mallinfo(arena+hblkhd)
          1874 MiB available memory on the node where the printing process lives
------------------
     ethr =  7.16E-04,  avg # of iterations =  6.0

     total cpu time spent up to now is     2232.1 secs

     total energy              =   -2510.08678682 Ry
     estimated scf accuracy    <       0.48409958 Ry

     iteration #  5     ecut=    60.00 Ry     beta= 0.70
     Davidson diagonalization with overlap

---- Real-time Memory Report at c_bands before calling an iterative solver
           626 MiB given to the printing process from OS
             0 MiB allocation reported by mallinfo(arena+hblkhd)
          1856 MiB available memory on the node where the printing process lives
------------------
     ethr =  1.89E-04,  avg # of iterations =  3.0

     total cpu time spent up to now is     2598.1 secs

     total energy              =   -2509.94300106 Ry
     estimated scf accuracy    <       0.41780478 Ry

     iteration #  6     ecut=    60.00 Ry     beta= 0.70
     Davidson diagonalization with overlap

---- Real-time Memory Report at c_bands before calling an iterative solver
           627 MiB given to the printing process from OS
             0 MiB allocation reported by mallinfo(arena+hblkhd)
          1869 MiB available memory on the node where the printing process lives
------------------
     ethr =  1.63E-04,  avg # of iterations =  2.2

     total cpu time spent up to now is     2955.7 secs

     total energy              =   -2509.95079101 Ry
     estimated scf accuracy    <       0.08497864 Ry

     iteration #  7     ecut=    60.00 Ry     beta= 0.70
     Davidson diagonalization with overlap

---- Real-time Memory Report at c_bands before calling an iterative solver
           628 MiB given to the printing process from OS
             0 MiB allocation reported by mallinfo(arena+hblkhd)
          1883 MiB available memory on the node where the printing process lives
------------------
     ethr =  3.32E-05,  avg # of iterations =  6.8

     total cpu time spent up to now is     3616.2 secs

     total energy              =   -2510.01992585 Ry
     estimated scf accuracy    <       0.01423266 Ry

     iteration #  8     ecut=    60.00 Ry     beta= 0.70
     Davidson diagonalization with overlap

---- Real-time Memory Report at c_bands before calling an iterative solver
           630 MiB given to the printing process from OS
             0 MiB allocation reported by mallinfo(arena+hblkhd)
          1860 MiB available memory on the node where the printing process lives
------------------
     ethr =  5.56E-06,  avg # of iterations =  7.5

     total cpu time spent up to now is     4129.9 secs

     total energy              =   -2510.02298221 Ry
     estimated scf accuracy    <       0.00435960 Ry

     iteration #  9     ecut=    60.00 Ry     beta= 0.70
     Davidson diagonalization with overlap

---- Real-time Memory Report at c_bands before calling an iterative solver
           631 MiB given to the printing process from OS
             0 MiB allocation reported by mallinfo(arena+hblkhd)
          1869 MiB available memory on the node where the printing process lives
------------------
     ethr =  1.70E-06,  avg # of iterations =  6.7

     total cpu time spent up to now is     4697.5 secs

     total energy              =   -2510.02513571 Ry
     estimated scf accuracy    <       0.00007134 Ry

     iteration # 10     ecut=    60.00 Ry     beta= 0.70
     Davidson diagonalization with overlap

---- Real-time Memory Report at c_bands before calling an iterative solver
           632 MiB given to the printing process from OS
             0 MiB allocation reported by mallinfo(arena+hblkhd)
          1864 MiB available memory on the node where the printing process lives
------------------
     c_bands:  3 eigenvalues not converged
     c_bands:  1 eigenvalues not converged
     c_bands:  1 eigenvalues not converged
     c_bands:  5 eigenvalues not converged
     c_bands:  1 eigenvalues not converged
     c_bands:  2 eigenvalues not converged
     ethr =  2.79E-08,  avg # of iterations = 18.2

     total cpu time spent up to now is     6491.0 secs

     total energy              =   -2510.02550850 Ry
     estimated scf accuracy    <       0.00010741 Ry

     iteration # 11     ecut=    60.00 Ry     beta= 0.70
     Davidson diagonalization with overlap

---- Real-time Memory Report at c_bands before calling an iterative solver
           633 MiB given to the printing process from OS
             0 MiB allocation reported by mallinfo(arena+hblkhd)
          1863 MiB available memory on the node where the printing process lives
------------------
     ethr =  2.79E-08,  avg # of iterations =  5.4

     total cpu time spent up to now is     6865.6 secs

     total energy              =   -2510.02552042 Ry
     estimated scf accuracy    <       0.00002366 Ry

     iteration # 12     ecut=    60.00 Ry     beta= 0.70
     Davidson diagonalization with overlap

---- Real-time Memory Report at c_bands before calling an iterative solver
           633 MiB given to the printing process from OS
             0 MiB allocation reported by mallinfo(arena+hblkhd)
          1855 MiB available memory on the node where the printing process lives
------------------
     ethr =  9.24E-09,  avg # of iterations =  5.6

     total cpu time spent up to now is     7296.0 secs

     total energy              =   -2510.02551535 Ry
     estimated scf accuracy    <       0.00002250 Ry

     iteration # 13     ecut=    60.00 Ry     beta= 0.70
     Davidson diagonalization with overlap

---- Real-time Memory Report at c_bands before calling an iterative solver
           633 MiB given to the printing process from OS
             0 MiB allocation reported by mallinfo(arena+hblkhd)
          1853 MiB available memory on the node where the printing process lives
------------------
     ethr =  8.79E-09,  avg # of iterations =  4.8

     total cpu time spent up to now is     7702.9 secs

     total energy              =   -2510.02551850 Ry
     estimated scf accuracy    <       0.00000278 Ry

     iteration # 14     ecut=    60.00 Ry     beta= 0.70
     Davidson diagonalization with overlap

---- Real-time Memory Report at c_bands before calling an iterative solver
           633 MiB given to the printing process from OS
             0 MiB allocation reported by mallinfo(arena+hblkhd)
          1858 MiB available memory on the node where the printing process lives
------------------
     ethr =  1.09E-09,  avg # of iterations =  9.1

     total cpu time spent up to now is     8734.3 secs

     total energy              =   -2510.02552370 Ry
     estimated scf accuracy    <       0.00001484 Ry

     iteration # 15     ecut=    60.00 Ry     beta= 0.70
     Davidson diagonalization with overlap

---- Real-time Memory Report at c_bands before calling an iterative solver
           633 MiB given to the printing process from OS
             0 MiB allocation reported by mallinfo(arena+hblkhd)
          1862 MiB available memory on the node where the printing process lives
------------------
     ethr =  1.09E-09,  avg # of iterations =  2.0

     total cpu time spent up to now is     9059.6 secs

     total energy              =   -2510.02551640 Ry
     estimated scf accuracy    <       0.00001035 Ry

     iteration # 16     ecut=    60.00 Ry     beta= 0.70
     Davidson diagonalization with overlap

---- Real-time Memory Report at c_bands before calling an iterative solver
           633 MiB given to the printing process from OS
             0 MiB allocation reported by mallinfo(arena+hblkhd)
          1866 MiB available memory on the node where the printing process lives
------------------
     ethr =  1.09E-09,  avg # of iterations =  9.9

     total cpu time spent up to now is    10151.4 secs

     total energy              =   -2510.02552120 Ry
     estimated scf accuracy    <       0.00000917 Ry

     iteration # 17     ecut=    60.00 Ry     beta= 0.70
     Davidson diagonalization with overlap

---- Real-time Memory Report at c_bands before calling an iterative solver
           633 MiB given to the printing process from OS
             0 MiB allocation reported by mallinfo(arena+hblkhd)
          1871 MiB available memory on the node where the printing process lives
------------------
     ethr =  1.09E-09,  avg # of iterations =  5.0

     total cpu time spent up to now is    10561.4 secs

     total energy              =   -2510.02552108 Ry
     estimated scf accuracy    <       0.00000237 Ry

     iteration # 18     ecut=    60.00 Ry     beta= 0.70
     Davidson diagonalization with overlap

---- Real-time Memory Report at c_bands before calling an iterative solver
           633 MiB given to the printing process from OS
             0 MiB allocation reported by mallinfo(arena+hblkhd)
          1861 MiB available memory on the node where the printing process lives
------------------
     ethr =  9.27E-10,  avg # of iterations =  6.0

     total cpu time spent up to now is    10982.0 secs

     End of self-consistent calculation

          k = 0.0000 0.0000 0.0000 ( 25927 PWs)   bands (ev):

   -68.7994 -68.7867 -68.6507 -68.2604 -68.1373 -68.1105 -35.5613 -35.5515
   -35.5489 -35.5416 -35.5367 -35.5295 -35.4198 -35.3994 -35.3863 -35.0423
   -34.9991 -34.9945 -34.8964 -34.8927 -34.8854 -34.8839 -34.8769 -34.8108
   -22.9608 -22.9130 -17.8273 -17.6709 -17.5985 -17.4679 -15.3544 -15.2990
   -14.3360 -14.2948 -13.8605 -13.8368 -13.7169 -13.6229 -13.6135 -13.3390
   -13.2616 -13.1780 -12.8975 -12.8404 -12.6669 -12.5558 -12.2933 -12.2616
   -11.8071 -11.5377  -6.4918  -6.4649  -6.4631  -6.4292  -6.4138  -6.4076
    -4.5393  -4.4797  -2.6155  -2.4863  -2.1175  -1.3685  -1.3289  -1.2118
    -1.1038  -0.9804  -0.8883  -0.7464  -0.7434  -0.4556  -0.2975  -0.2830
    -0.1578  -0.0874   0.0470   0.0993   0.1494   0.2816   0.3551   0.5049
     0.5229   0.6019   0.6156   0.6599   0.7391   0.8094   0.9074   0.9136
     0.9751   1.0483   1.2242   1.3895   1.4207   1.4703   1.5662   1.6440
     1.8323   1.8391   1.9395   1.9958   2.0474   2.1071   2.1553   2.1998
     2.3350   2.3835   2.4020   2.4967   2.5437   2.5574   2.6483   2.6670
     2.7789   2.8669   2.8924   3.0086   3.0312   3.2555   3.3027   3.3260
     3.3511   3.4154   3.4334   3.7010   3.7615   3.7898   3.9371   3.9872

     occupation numbers 
     1.0000   1.0000   1.0000   1.0000   1.0000   1.0000   1.0000   1.0000
     1.0000   1.0000   1.0000   1.0000   1.0000   1.0000   1.0000   1.0000
     1.0000   1.0000   1.0000   1.0000   1.0000   1.0000   1.0000   1.0000
     1.0000   1.0000   1.0000   1.0000   1.0000   1.0000   1.0000   1.0000
     1.0000   1.0000   1.0000   1.0000   1.0000   1.0000   1.0000   1.0000
     1.0000   1.0000   1.0000   1.0000   1.0000   1.0000   1.0000   1.0000
     1.0000   1.0000   1.0000   1.0000   1.0000   1.0000   1.0000   1.0000
     1.0000   1.0000   1.0000   1.0000   1.0000   1.0000   1.0000   1.0000
     1.0000   1.0000   1.0000   1.0000   1.0000   1.0000   1.0000   1.0000
     1.0000   1.0000   1.0000   1.0000   1.0000   1.0000   1.0000   1.0000
     1.0000   1.0000   1.0000   1.0000   1.0000   1.0000   1.0000   1.0000
     1.0000   1.0000   1.0000   1.0000   1.0000   1.0000   1.0000   1.0000
     1.0000   1.0000   1.0000   1.0000   1.0000   1.0000   1.0000   1.0000
     1.0000   1.0000   1.0000   1.0000   1.0000   1.0000   1.0000   1.0000
     1.0000   1.0000   1.0000   1.0000   1.0000   1.0000   1.0000   1.0000
     1.0000   1.0000   1.0000   1.0000   1.0000   1.0000   1.0000   1.0000

          k = 0.0000 0.0000 0.1758 ( 25971 PWs)   bands (ev):

   -68.7994 -68.7867 -68.6507 -68.2604 -68.1373 -68.1105 -35.5613 -35.5515
   -35.5490 -35.5416 -35.5367 -35.5296 -35.4198 -35.3994 -35.3863 -35.0423
   -34.9991 -34.9945 -34.8964 -34.8927 -34.8855 -34.8839 -34.8769 -34.8108
   -22.9608 -22.9130 -17.8273 -17.6709 -17.5985 -17.4679 -15.3415 -15.3128
   -14.3261 -14.3053 -13.8604 -13.8370 -13.7119 -13.6315 -13.6033 -13.3468
   -13.2531 -13.1886 -12.8839 -12.8536 -12.6479 -12.5703 -12.2936 -12.2613
   -11.8064 -11.5389  -6.4919  -6.4648  -6.4632  -6.4293  -6.4137  -6.4076
    -4.5329  -4.4866  -2.5912  -2.5166  -2.0740  -1.3884  -1.3283  -1.2454
    -1.0575  -0.9596  -0.9118  -0.8213  -0.7417  -0.4485  -0.3091  -0.2596
    -0.1888  -0.0863   0.0065   0.1329   0.1474   0.2748   0.3919   0.4683
     0.5204   0.5954   0.6229   0.6691   0.7446   0.7954   0.9015   0.9617
     1.0178   1.0447   1.3143   1.3391   1.4137   1.4770   1.5590   1.7042
     1.8470   1.8775   1.9059   1.9918   2.0344   2.0990   2.1422   2.2183
     2.2916   2.3321   2.4150   2.4517   2.5487   2.5780   2.6432   2.7032
     2.7575   2.8192   2.9608   3.0111   3.0784   3.1707   3.2850   3.3251
     3.3755   3.3965   3.4944   3.5994   3.6942   3.8677   3.9654   3.9840

     occupation numbers 
     1.0000   1.0000   1.0000   1.0000   1.0000   1.0000   1.0000   1.0000
     1.0000   1.0000   1.0000   1.0000   1.0000   1.0000   1.0000   1.0000
     1.0000   1.0000   1.0000   1.0000   1.0000   1.0000   1.0000   1.0000
     1.0000   1.0000   1.0000   1.0000   1.0000   1.0000   1.0000   1.0000
     1.0000   1.0000   1.0000   1.0000   1.0000   1.0000   1.0000   1.0000
     1.0000   1.0000   1.0000   1.0000   1.0000   1.0000   1.0000   1.0000
     1.0000   1.0000   1.0000   1.0000   1.0000   1.0000   1.0000   1.0000
     1.0000   1.0000   1.0000   1.0000   1.0000   1.0000   1.0000   1.0000
     1.0000   1.0000   1.0000   1.0000   1.0000   1.0000   1.0000   1.0000
     1.0000   1.0000   1.0000   1.0000   1.0000   1.0000   1.0000   1.0000
     1.0000   1.0000   1.0000   1.0000   1.0000   1.0000   1.0000   1.0000
     1.0000   1.0000   1.0000   1.0000   1.0000   1.0000   1.0000   1.0000
     1.0000   1.0000   1.0000   1.0000   1.0000   1.0000   1.0000   1.0000
     1.0000   1.0000   1.0000   1.0000   1.0000   1.0000   1.0000   1.0000
     1.0000   1.0000   1.0000   1.0000   1.0000   1.0000   1.0000   1.0000
     1.0000   1.0000   1.0000   1.0000   1.0000   1.0000   1.0000   1.0000

          k = 0.0000 0.1921 0.0000 ( 25933 PWs)   bands (ev):

   -68.7994 -68.7867 -68.6507 -68.2604 -68.1373 -68.1105 -35.5613 -35.5515
   -35.5489 -35.5416 -35.5367 -35.5295 -35.4198 -35.3994 -35.3863 -35.0423
   -34.9991 -34.9945 -34.8964 -34.8927 -34.8855 -34.8839 -34.8769 -34.8108
   -22.9608 -22.9130 -17.8271 -17.6711 -17.5985 -17.4679 -15.3521 -15.2958
   -14.3603 -14.3193 -13.8605 -13.8368 -13.7024 -13.5733 -13.5619 -13.3301
   -13.2909 -13.2035 -12.9202 -12.8565 -12.6625 -12.5532 -12.2933 -12.2616
   -11.8047 -11.5369  -6.4908  -6.4639  -6.4624  -6.4310  -6.4143  -6.4082
    -4.5035  -4.4427  -2.7541  -2.6194  -2.0609  -1.3132  -1.3050  -1.1268
    -1.0689  -0.9848  -0.9269  -0.7252  -0.7032  -0.4924  -0.3329  -0.3170
    -0.1443  -0.0988  -0.0742  -0.0213   0.2747   0.2801   0.4200   0.4317
     0.5837   0.6062   0.6194   0.6837   0.7653   0.8736   0.8780   0.9915
     1.1305   1.1344   1.2478   1.3865   1.4166   1.4653   1.6023   1.6148
     1.7763   1.8467   1.9225   1.9392   1.9821   2.0510   2.1675   2.2331
     2.3267   2.3947   2.4466   2.4931   2.4979   2.5469   2.5781   2.6314
     2.7384   2.8471   2.9416   3.0157   3.0317   3.2490   3.2904   3.3115
     3.3670   3.3914   3.4311   3.6793   3.7461   3.7909   3.9293   3.9768

     occupation numbers 
     1.0000   1.0000   1.0000   1.0000   1.0000   1.0000   1.0000   1.0000
     1.0000   1.0000   1.0000   1.0000   1.0000   1.0000   1.0000   1.0000
     1.0000   1.0000   1.0000   1.0000   1.0000   1.0000   1.0000   1.0000
     1.0000   1.0000   1.0000   1.0000   1.0000   1.0000   1.0000   1.0000
     1.0000   1.0000   1.0000   1.0000   1.0000   1.0000   1.0000   1.0000
     1.0000   1.0000   1.0000   1.0000   1.0000   1.0000   1.0000   1.0000
     1.0000   1.0000   1.0000   1.0000   1.0000   1.0000   1.0000   1.0000
     1.0000   1.0000   1.0000   1.0000   1.0000   1.0000   1.0000   1.0000
     1.0000   1.0000   1.0000   1.0000   1.0000   1.0000   1.0000   1.0000
     1.0000   1.0000   1.0000   1.0000   1.0000   1.0000   1.0000   1.0000
     1.0000   1.0000   1.0000   1.0000   1.0000   1.0000   1.0000   1.0000
     1.0000   1.0000   1.0000   1.0000   1.0000   1.0000   1.0000   1.0000
     1.0000   1.0000   1.0000   1.0000   1.0000   1.0000   1.0000   1.0000
     1.0000   1.0000   1.0000   1.0000   1.0000   1.0000   1.0000   1.0000
     1.0000   1.0000   1.0000   1.0000   1.0000   1.0000   1.0000   1.0000
     1.0000   1.0000   1.0000   1.0000   1.0000   1.0000   1.0000   1.0000

          k = 0.0000 0.1921 0.1758 ( 25924 PWs)   bands (ev):

   -68.7994 -68.7867 -68.6507 -68.2604 -68.1373 -68.1105 -35.5613 -35.5515
   -35.5489 -35.5416 -35.5367 -35.5296 -35.4198 -35.3994 -35.3863 -35.0423
   -34.9991 -34.9945 -34.8964 -34.8927 -34.8855 -34.8839 -34.8769 -34.8108
   -22.9608 -22.9130 -17.8271 -17.6711 -17.5985 -17.4679 -15.3390 -15.3099
   -14.3504 -14.3299 -13.8604 -13.8369 -13.6971 -13.5792 -13.5546 -13.3375
   -13.2799 -13.2174 -12.9058 -12.8701 -12.6435 -12.5676 -12.2936 -12.2613
   -11.8040 -11.5380  -6.4908  -6.4638  -6.4624  -6.4310  -6.4142  -6.4082
    -4.4945  -4.4522  -2.7238  -2.6539  -2.0199  -1.3139  -1.3071  -1.1728
    -1.0443  -0.9829  -0.9457  -0.7575  -0.6985  -0.4798  -0.3744  -0.3002
    -0.1425  -0.1324  -0.0570  -0.0383   0.2587   0.2907   0.3837   0.4516
     0.6005   0.6105   0.6413   0.6872   0.7640   0.8764   0.9514   0.9853
     1.1195   1.1933   1.3172   1.3493   1.3913   1.4997   1.5507   1.6755
     1.7673   1.8680   1.8847   1.9705   1.9908   2.0279   2.0919   2.2379
     2.2617   2.3464   2.4745   2.4897   2.5299   2.5528   2.5886   2.6154
     2.8047   2.8429   2.9303   2.9807   3.1133   3.1712   3.2933   3.2991
     3.3545   3.4014   3.5009   3.5766   3.6772   3.8620   3.9532   3.9790

     occupation numbers 
     1.0000   1.0000   1.0000   1.0000   1.0000   1.0000   1.0000   1.0000
     1.0000   1.0000   1.0000   1.0000   1.0000   1.0000   1.0000   1.0000
     1.0000   1.0000   1.0000   1.0000   1.0000   1.0000   1.0000   1.0000
     1.0000   1.0000   1.0000   1.0000   1.0000   1.0000   1.0000   1.0000
     1.0000   1.0000   1.0000   1.0000   1.0000   1.0000   1.0000   1.0000
     1.0000   1.0000   1.0000   1.0000   1.0000   1.0000   1.0000   1.0000
     1.0000   1.0000   1.0000   1.0000   1.0000   1.0000   1.0000   1.0000
     1.0000   1.0000   1.0000   1.0000   1.0000   1.0000   1.0000   1.0000
     1.0000   1.0000   1.0000   1.0000   1.0000   1.0000   1.0000   1.0000
     1.0000   1.0000   1.0000   1.0000   1.0000   1.0000   1.0000   1.0000
     1.0000   1.0000   1.0000   1.0000   1.0000   1.0000   1.0000   1.0000
     1.0000   1.0000   1.0000   1.0000   1.0000   1.0000   1.0000   1.0000
     1.0000   1.0000   1.0000   1.0000   1.0000   1.0000   1.0000   1.0000
     1.0000   1.0000   1.0000   1.0000   1.0000   1.0000   1.0000   1.0000
     1.0000   1.0000   1.0000   1.0000   1.0000   1.0000   1.0000   1.0000
     1.0000   1.0000   1.0000   1.0000   1.0000   1.0000   1.0000   1.0000

          k = 0.1667 0.0000 0.0301 ( 25941 PWs)   bands (ev):

   -68.7994 -68.7867 -68.6507 -68.2604 -68.1373 -68.1105 -35.5607 -35.5524
   -35.5489 -35.5412 -35.5367 -35.5297 -35.4199 -35.3993 -35.3863 -35.0423
   -34.9993 -34.9944 -34.8976 -34.8913 -34.8850 -34.8837 -34.8774 -34.8111
   -22.9606 -22.9128 -17.8189 -17.6637 -17.6054 -17.4739 -15.2974 -15.2423
   -14.3773 -14.3370 -13.9840 -13.9494 -13.6723 -13.5517 -13.5215 -13.3309
   -13.2554 -13.1701 -12.9095 -12.8530 -12.6541 -12.5545 -12.3470 -12.3042
   -11.7940 -11.5399  -6.4906  -6.4643  -6.4628  -6.4325  -6.4137  -6.4045
    -4.3822  -4.3173  -2.6069  -2.4693  -2.1218  -1.6488  -1.4522  -1.0416
    -0.9763  -0.9546  -0.8674  -0.7584  -0.7248  -0.4410  -0.3035  -0.2422
    -0.1840  -0.0995  -0.0240   0.0963   0.1504   0.2816   0.3473   0.3826
     0.4827   0.5466   0.6573   0.6997   0.7158   0.8682   0.9315   0.9957
     1.0844   1.1800   1.2445   1.3103   1.4204   1.4552   1.5232   1.6475
     1.6810   1.8666   1.9442   1.9630   1.9881   2.0537   2.1803   2.2249
     2.2888   2.3812   2.4108   2.4739   2.5009   2.5864   2.6525   2.7016
     2.7614   2.8474   2.9175   2.9846   3.0244   3.1769   3.2371   3.2816
     3.3563   3.4151   3.4596   3.6724   3.7358   3.7517   3.8701   3.9324

     occupation numbers 
     1.0000   1.0000   1.0000   1.0000   1.0000   1.0000   1.0000   1.0000
     1.0000   1.0000   1.0000   1.0000   1.0000   1.0000   1.0000   1.0000
     1.0000   1.0000   1.0000   1.0000   1.0000   1.0000   1.0000   1.0000
     1.0000   1.0000   1.0000   1.0000   1.0000   1.0000   1.0000   1.0000
     1.0000   1.0000   1.0000   1.0000   1.0000   1.0000   1.0000   1.0000
     1.0000   1.0000   1.0000   1.0000   1.0000   1.0000   1.0000   1.0000
     1.0000   1.0000   1.0000   1.0000   1.0000   1.0000   1.0000   1.0000
     1.0000   1.0000   1.0000   1.0000   1.0000   1.0000   1.0000   1.0000
     1.0000   1.0000   1.0000   1.0000   1.0000   1.0000   1.0000   1.0000
     1.0000   1.0000   1.0000   1.0000   1.0000   1.0000   1.0000   1.0000
     1.0000   1.0000   1.0000   1.0000   1.0000   1.0000   1.0000   1.0000
     1.0000   1.0000   1.0000   1.0000   1.0000   1.0000   1.0000   1.0000
     1.0000   1.0000   1.0000   1.0000   1.0000   1.0000   1.0000   1.0000
     1.0000   1.0000   1.0000   1.0000   1.0000   1.0000   1.0000   1.0000
     1.0000   1.0000   1.0000   1.0000   1.0000   1.0000   1.0000   1.0000
     1.0000   1.0000   1.0000   1.0000   1.0000   1.0000   1.0000   1.0000

          k = 0.1667 0.0000 0.2059 ( 25961 PWs)   bands (ev):

   -68.7994 -68.7867 -68.6507 -68.2604 -68.1373 -68.1105 -35.5607 -35.5524
   -35.5489 -35.5412 -35.5367 -35.5297 -35.4199 -35.3994 -35.3863 -35.0423
   -34.9993 -34.9944 -34.8976 -34.8914 -34.8850 -34.8837 -34.8774 -34.8111
   -22.9606 -22.9128 -17.8189 -17.6637 -17.6054 -17.4739 -15.2817 -15.2591
   -14.3713 -14.3434 -13.9779 -13.9560 -13.6656 -13.5556 -13.5153 -13.3400
   -13.2475 -13.1808 -12.8990 -12.8624 -12.6348 -12.5697 -12.3387 -12.3128
   -11.7927 -11.5413  -6.4906  -6.4642  -6.4628  -6.4326  -6.4135  -6.4045
    -4.3825  -4.3171  -2.5863  -2.4968  -2.0770  -1.6863  -1.4174  -1.0770
    -0.9618  -0.9328  -0.8748  -0.8130  -0.7229  -0.4476  -0.3215  -0.2492
    -0.1626  -0.1358  -0.0238   0.1025   0.1355   0.2994   0.3480   0.3988
     0.4689   0.5182   0.6690   0.7173   0.7330   0.8470   0.9640   1.0408
     1.1024   1.1568   1.2950   1.3118   1.4159   1.4372   1.5464   1.6647
     1.7328   1.8238   1.9065   1.9631   2.0001   2.0788   2.1813   2.2299
     2.2631   2.3247   2.4105   2.4258   2.5401   2.5694   2.6862   2.7238
     2.7615   2.8157   2.9447   2.9812   3.0471   3.1198   3.1955   3.2978
     3.3397   3.4112   3.5182   3.5859   3.7011   3.8354   3.8832   3.9283

     occupation numbers 
     1.0000   1.0000   1.0000   1.0000   1.0000   1.0000   1.0000   1.0000
     1.0000   1.0000   1.0000   1.0000   1.0000   1.0000   1.0000   1.0000
     1.0000   1.0000   1.0000   1.0000   1.0000   1.0000   1.0000   1.0000
     1.0000   1.0000   1.0000   1.0000   1.0000   1.0000   1.0000   1.0000
     1.0000   1.0000   1.0000   1.0000   1.0000   1.0000   1.0000   1.0000
     1.0000   1.0000   1.0000   1.0000   1.0000   1.0000   1.0000   1.0000
     1.0000   1.0000   1.0000   1.0000   1.0000   1.0000   1.0000   1.0000
     1.0000   1.0000   1.0000   1.0000   1.0000   1.0000   1.0000   1.0000
     1.0000   1.0000   1.0000   1.0000   1.0000   1.0000   1.0000   1.0000
     1.0000   1.0000   1.0000   1.0000   1.0000   1.0000   1.0000   1.0000
     1.0000   1.0000   1.0000   1.0000   1.0000   1.0000   1.0000   1.0000
     1.0000   1.0000   1.0000   1.0000   1.0000   1.0000   1.0000   1.0000
     1.0000   1.0000   1.0000   1.0000   1.0000   1.0000   1.0000   1.0000
     1.0000   1.0000   1.0000   1.0000   1.0000   1.0000   1.0000   1.0000
     1.0000   1.0000   1.0000   1.0000   1.0000   1.0000   1.0000   1.0000
     1.0000   1.0000   1.0000   1.0000   1.0000   1.0000   1.0000   1.0000

          k = 0.1667 0.0000-0.1457 ( 25956 PWs)   bands (ev):

   -68.7994 -68.7867 -68.6507 -68.2604 -68.1373 -68.1105 -35.5607 -35.5524
   -35.5489 -35.5412 -35.5367 -35.5297 -35.4199 -35.3993 -35.3863 -35.0423
   -34.9993 -34.9944 -34.8976 -34.8914 -34.8850 -34.8837 -34.8774 -34.8111
   -22.9606 -22.9128 -17.8189 -17.6637 -17.6054 -17.4739 -15.2874 -15.2531
   -14.3649 -14.3502 -13.9751 -13.9589 -13.6673 -13.5475 -13.5248 -13.3380
   -13.2451 -13.1813 -12.8910 -12.8708 -12.6360 -12.5694 -12.3398 -12.3113
   -11.7924 -11.5413  -6.4906  -6.4642  -6.4628  -6.4325  -6.4135  -6.4045
    -4.3605  -4.3397  -2.5870  -2.4933  -2.0945  -1.6751  -1.4201  -1.0703
    -0.9607  -0.9371  -0.8818  -0.7893  -0.7402  -0.4325  -0.3107  -0.2462
    -0.1805  -0.1175  -0.0229   0.0836   0.1451   0.2979   0.3416   0.3880
     0.4891   0.5355   0.6590   0.7051   0.7192   0.8553   0.9653   1.0334
     1.0761   1.1856   1.2703   1.3453   1.3894   1.4389   1.5251   1.6917
     1.7200   1.8222   1.9360   1.9654   2.0334   2.0514   2.1577   2.1957
     2.2490   2.3472   2.4083   2.4123   2.5464   2.5860   2.6685   2.7248
     2.7907   2.8061   2.9414   2.9975   3.0493   3.1635   3.2213   3.2927
     3.3339   3.4291   3.4806   3.5981   3.6545   3.8079   3.9092   3.9331

     occupation numbers 
     1.0000   1.0000   1.0000   1.0000   1.0000   1.0000   1.0000   1.0000
     1.0000   1.0000   1.0000   1.0000   1.0000   1.0000   1.0000   1.0000
     1.0000   1.0000   1.0000   1.0000   1.0000   1.0000   1.0000   1.0000
     1.0000   1.0000   1.0000   1.0000   1.0000   1.0000   1.0000   1.0000
     1.0000   1.0000   1.0000   1.0000   1.0000   1.0000   1.0000   1.0000
     1.0000   1.0000   1.0000   1.0000   1.0000   1.0000   1.0000   1.0000
     1.0000   1.0000   1.0000   1.0000   1.0000   1.0000   1.0000   1.0000
     1.0000   1.0000   1.0000   1.0000   1.0000   1.0000   1.0000   1.0000
     1.0000   1.0000   1.0000   1.0000   1.0000   1.0000   1.0000   1.0000
     1.0000   1.0000   1.0000   1.0000   1.0000   1.0000   1.0000   1.0000
     1.0000   1.0000   1.0000   1.0000   1.0000   1.0000   1.0000   1.0000
     1.0000   1.0000   1.0000   1.0000   1.0000   1.0000   1.0000   1.0000
     1.0000   1.0000   1.0000   1.0000   1.0000   1.0000   1.0000   1.0000
     1.0000   1.0000   1.0000   1.0000   1.0000   1.0000   1.0000   1.0000
     1.0000   1.0000   1.0000   1.0000   1.0000   1.0000   1.0000   1.0000
     1.0000   1.0000   1.0000   1.0000   1.0000   1.0000   1.0000   1.0000

          k = 0.1667 0.1921 0.0301 ( 25937 PWs)   bands (ev):

   -68.7994 -68.7867 -68.6507 -68.2604 -68.1373 -68.1105 -35.5607 -35.5524
   -35.5489 -35.5412 -35.5367 -35.5297 -35.4199 -35.3993 -35.3863 -35.0423
   -34.9992 -34.9944 -34.8976 -34.8914 -34.8850 -34.8837 -34.8774 -34.8111
   -22.9606 -22.9128 -17.8187 -17.6639 -17.6054 -17.4739 -15.2952 -15.2393
   -14.3983 -14.3573 -13.9709 -13.9399 -13.6709 -13.5233 -13.4814 -13.3225
   -13.2784 -13.1892 -12.9292 -12.8664 -12.6505 -12.5524 -12.3460 -12.3036
   -11.7924 -11.5394  -6.4899  -6.4636  -6.4625  -6.4339  -6.4138  -6.4050
    -4.3493  -4.2834  -2.7518  -2.6152  -2.0463  -1.5155  -1.3956  -1.0600
    -0.9915  -0.9463  -0.8905  -0.7273  -0.7026  -0.4516  -0.3614  -0.2800
    -0.1625  -0.1188  -0.0723   0.0061   0.2102   0.2988   0.3616   0.4328
     0.5219   0.5996   0.6362   0.7011   0.8184   0.8865   0.9203   1.0654
     1.1739   1.2051   1.2496   1.2989   1.3951   1.4562   1.5440   1.6664
     1.6898   1.7904   1.8417   1.8738   1.9066   2.0998   2.1769   2.2419
     2.2759   2.4033   2.4453   2.4824   2.5130   2.5550   2.5810   2.6517
     2.7025   2.8394   2.9307   3.0010   3.0355   3.2171   3.2674   3.2990
     3.3618   3.3931   3.4637   3.6480   3.7296   3.7462   3.8562   3.9252

     occupation numbers 
     1.0000   1.0000   1.0000   1.0000   1.0000   1.0000   1.0000   1.0000
     1.0000   1.0000   1.0000   1.0000   1.0000   1.0000   1.0000   1.0000
     1.0000   1.0000   1.0000   1.0000   1.0000   1.0000   1.0000   1.0000
     1.0000   1.0000   1.0000   1.0000   1.0000   1.0000   1.0000   1.0000
     1.0000   1.0000   1.0000   1.0000   1.0000   1.0000   1.0000   1.0000
     1.0000   1.0000   1.0000   1.0000   1.0000   1.0000   1.0000   1.0000
     1.0000   1.0000   1.0000   1.0000   1.0000   1.0000   1.0000   1.0000
     1.0000   1.0000   1.0000   1.0000   1.0000   1.0000   1.0000   1.0000
     1.0000   1.0000   1.0000   1.0000   1.0000   1.0000   1.0000   1.0000
     1.0000   1.0000   1.0000   1.0000   1.0000   1.0000   1.0000   1.0000
     1.0000   1.0000   1.0000   1.0000   1.0000   1.0000   1.0000   1.0000
     1.0000   1.0000   1.0000   1.0000   1.0000   1.0000   1.0000   1.0000
     1.0000   1.0000   1.0000   1.0000   1.0000   1.0000   1.0000   1.0000
     1.0000   1.0000   1.0000   1.0000   1.0000   1.0000   1.0000   1.0000
     1.0000   1.0000   1.0000   1.0000   1.0000   1.0000   1.0000   1.0000
     1.0000   1.0000   1.0000   1.0000   1.0000   1.0000   1.0000   1.0000

          k = 0.1667 0.1921 0.2059 ( 25944 PWs)   bands (ev):

   -68.7994 -68.7867 -68.6507 -68.2604 -68.1373 -68.1105 -35.5607 -35.5524
   -35.5489 -35.5412 -35.5367 -35.5297 -35.4199 -35.3993 -35.3863 -35.0423
   -34.9992 -34.9944 -34.8976 -34.8914 -34.8850 -34.8837 -34.8774 -34.8111
   -22.9606 -22.9128 -17.8187 -17.6639 -17.6054 -17.4739 -15.2793 -15.2564
   -14.3916 -14.3645 -13.9663 -13.9450 -13.6639 -13.5276 -13.4759 -13.3307
   -13.2669 -13.2040 -12.9175 -12.8770 -12.6313 -12.5674 -12.3380 -12.3119
   -11.7912 -11.5408  -6.4899  -6.4635  -6.4625  -6.4339  -6.4137  -6.4050
    -4.3468  -4.2861  -2.7198  -2.6520  -2.0074  -1.5400  -1.3701  -1.0893
    -0.9833  -0.9506  -0.9024  -0.7561  -0.6844  -0.4609  -0.3833  -0.2822
    -0.1608  -0.1262  -0.0873   0.0011   0.1992   0.2934   0.3435   0.4366
     0.5234   0.6035   0.6694   0.7267   0.8581   0.8786   0.9796   1.0471
     1.1590   1.2453   1.2828   1.3262   1.3850   1.4585   1.5214   1.6492
     1.7135   1.7667   1.8014   1.8673   2.0077   2.0282   2.1751   2.2114
     2.2376   2.3598   2.4542   2.4823   2.5338   2.5506   2.6179   2.6446
     2.7770   2.8166   2.9105   2.9823   3.0933   3.1471   3.2323   3.2941
     3.3552   3.4123   3.5159   3.5717   3.6776   3.8336   3.8645   3.9250

     occupation numbers 
     1.0000   1.0000   1.0000   1.0000   1.0000   1.0000   1.0000   1.0000
     1.0000   1.0000   1.0000   1.0000   1.0000   1.0000   1.0000   1.0000
     1.0000   1.0000   1.0000   1.0000   1.0000   1.0000   1.0000   1.0000
     1.0000   1.0000   1.0000   1.0000   1.0000   1.0000   1.0000   1.0000
     1.0000   1.0000   1.0000   1.0000   1.0000   1.0000   1.0000   1.0000
     1.0000   1.0000   1.0000   1.0000   1.0000   1.0000   1.0000   1.0000
     1.0000   1.0000   1.0000   1.0000   1.0000   1.0000   1.0000   1.0000
     1.0000   1.0000   1.0000   1.0000   1.0000   1.0000   1.0000   1.0000
     1.0000   1.0000   1.0000   1.0000   1.0000   1.0000   1.0000   1.0000
     1.0000   1.0000   1.0000   1.0000   1.0000   1.0000   1.0000   1.0000
     1.0000   1.0000   1.0000   1.0000   1.0000   1.0000   1.0000   1.0000
     1.0000   1.0000   1.0000   1.0000   1.0000   1.0000   1.0000   1.0000
     1.0000   1.0000   1.0000   1.0000   1.0000   1.0000   1.0000   1.0000
     1.0000   1.0000   1.0000   1.0000   1.0000   1.0000   1.0000   1.0000
     1.0000   1.0000   1.0000   1.0000   1.0000   1.0000   1.0000   1.0000
     1.0000   1.0000   1.0000   1.0000   1.0000   1.0000   1.0000   1.0000

          k = 0.1667 0.1921-0.1457 ( 25923 PWs)   bands (ev):

   -68.7994 -68.7867 -68.6507 -68.2604 -68.1373 -68.1105 -35.5607 -35.5524
   -35.5489 -35.5412 -35.5367 -35.5297 -35.4199 -35.3993 -35.3863 -35.0423
   -34.9992 -34.9944 -34.8976 -34.8913 -34.8850 -34.8837 -34.8774 -34.8111
   -22.9606 -22.9128 -17.8187 -17.6639 -17.6054 -17.4739 -15.2850 -15.2503
   -14.3858 -14.3705 -13.9632 -13.9483 -13.6657 -13.5214 -13.4827 -13.3290
   -13.2670 -13.2026 -12.9099 -12.8845 -12.6320 -12.5676 -12.3392 -12.3104
   -11.7908 -11.5407  -6.4899  -6.4636  -6.4625  -6.4339  -6.4137  -6.4049
    -4.3259  -4.3076  -2.7265  -2.6440  -2.0207  -1.5345  -1.3704  -1.0721
    -0.9959  -0.9464  -0.9004  -0.7553  -0.6981  -0.4461  -0.3704  -0.2796
    -0.1742  -0.1297  -0.0714  -0.0063   0.2162   0.3139   0.3540   0.4280
     0.5254   0.5906   0.6600   0.7096   0.8198   0.8757   0.9584   1.0715
     1.1759   1.2321   1.2743   1.2969   1.3746   1.4747   1.5271   1.6796
     1.7235   1.7643   1.8094   1.8957   1.9681   2.0909   2.1405   2.2015
     2.2268   2.3952   2.4416   2.4622   2.5025   2.5458   2.5942   2.6467
     2.7895   2.8541   2.9182   2.9773   3.0944   3.1826   3.2710   3.3003
     3.3299   3.4238   3.4812   3.5874   3.6400   3.7949   3.8937   3.9294

     occupation numbers 
     1.0000   1.0000   1.0000   1.0000   1.0000   1.0000   1.0000   1.0000
     1.0000   1.0000   1.0000   1.0000   1.0000   1.0000   1.0000   1.0000
     1.0000   1.0000   1.0000   1.0000   1.0000   1.0000   1.0000   1.0000
     1.0000   1.0000   1.0000   1.0000   1.0000   1.0000   1.0000   1.0000
     1.0000   1.0000   1.0000   1.0000   1.0000   1.0000   1.0000   1.0000
     1.0000   1.0000   1.0000   1.0000   1.0000   1.0000   1.0000   1.0000
     1.0000   1.0000   1.0000   1.0000   1.0000   1.0000   1.0000   1.0000
     1.0000   1.0000   1.0000   1.0000   1.0000   1.0000   1.0000   1.0000
     1.0000   1.0000   1.0000   1.0000   1.0000   1.0000   1.0000   1.0000
     1.0000   1.0000   1.0000   1.0000   1.0000   1.0000   1.0000   1.0000
     1.0000   1.0000   1.0000   1.0000   1.0000   1.0000   1.0000   1.0000
     1.0000   1.0000   1.0000   1.0000   1.0000   1.0000   1.0000   1.0000
     1.0000   1.0000   1.0000   1.0000   1.0000   1.0000   1.0000   1.0000
     1.0000   1.0000   1.0000   1.0000   1.0000   1.0000   1.0000   1.0000
     1.0000   1.0000   1.0000   1.0000   1.0000   1.0000   1.0000   1.0000
     1.0000   1.0000   1.0000   1.0000   1.0000   1.0000   1.0000   1.0000

          k = 0.3333 0.0000 0.0601 ( 25907 PWs)   bands (ev):

   -68.7994 -68.7867 -68.6507 -68.2603 -68.1373 -68.1105 -35.5594 -35.5542
   -35.5487 -35.5400 -35.5371 -35.5300 -35.4200 -35.3992 -35.3863 -35.0421
   -34.9995 -34.9943 -34.8988 -34.8901 -34.8843 -34.8826 -34.8785 -34.8117
   -22.9603 -22.9125 -17.8000 -17.6478 -17.6210 -17.4876 -15.1393 -15.0858
   -14.5521 -14.5089 -14.0780 -14.0384 -13.6228 -13.4970 -13.4090 -13.3088
   -13.2293 -13.1445 -12.9483 -12.8877 -12.6180 -12.5406 -12.4591 -12.3997
   -11.7730 -11.5463  -6.4889  -6.4640  -6.4611  -6.4391  -6.4132  -6.3982
    -3.9718  -3.8891  -2.7987  -2.6371  -2.0671  -1.8496  -1.4395  -1.0594
    -0.8857  -0.8714  -0.8258  -0.7984  -0.6989  -0.4002  -0.3054  -0.2555
    -0.1737  -0.0380  -0.0310   0.0830   0.1429   0.2578   0.2699   0.3105
     0.4133   0.5283   0.6920   0.6970   0.8500   0.8823   0.9089   1.0393
     1.1964   1.2065   1.2720   1.3228   1.4121   1.4802   1.5118   1.5771
     1.6306   1.7172   1.7363   1.8520   1.9200   1.9809   2.2108   2.2701
     2.3613   2.3986   2.4245   2.4285   2.4614   2.5841   2.6460   2.7143
     2.7319   2.8318   2.9310   2.9591   2.9748   3.1172   3.1630   3.2511
     3.3705   3.4346   3.5039   3.5851   3.6327   3.6758   3.7425   3.8509

     occupation numbers 
     1.0000   1.0000   1.0000   1.0000   1.0000   1.0000   1.0000   1.0000
     1.0000   1.0000   1.0000   1.0000   1.0000   1.0000   1.0000   1.0000
     1.0000   1.0000   1.0000   1.0000   1.0000   1.0000   1.0000   1.0000
     1.0000   1.0000   1.0000   1.0000   1.0000   1.0000   1.0000   1.0000
     1.0000   1.0000   1.0000   1.0000   1.0000   1.0000   1.0000   1.0000
     1.0000   1.0000   1.0000   1.0000   1.0000   1.0000   1.0000   1.0000
     1.0000   1.0000   1.0000   1.0000   1.0000   1.0000   1.0000   1.0000
     1.0000   1.0000   1.0000   1.0000   1.0000   1.0000   1.0000   1.0000
     1.0000   1.0000   1.0000   1.0000   1.0000   1.0000   1.0000   1.0000
     1.0000   1.0000   1.0000   1.0000   1.0000   1.0000   1.0000   1.0000
     1.0000   1.0000   1.0000   1.0000   1.0000   1.0000   1.0000   1.0000
     1.0000   1.0000   1.0000   1.0000   1.0000   1.0000   1.0000   1.0000
     1.0000   1.0000   1.0000   1.0000   1.0000   1.0000   1.0000   1.0000
     1.0000   1.0000   1.0000   1.0000   1.0000   1.0000   1.0000   1.0000
     1.0000   1.0000   1.0000   1.0000   1.0000   1.0000   1.0000   1.0000
     1.0000   1.0000   1.0000   1.0000   1.0000   1.0000   1.0000   1.0000

          k = 0.3333 0.0000 0.2360 ( 25948 PWs)   bands (ev):

   -68.7994 -68.7868 -68.6507 -68.2604 -68.1373 -68.1106 -35.5594 -35.5542
   -35.5487 -35.5400 -35.5371 -35.5301 -35.4200 -35.3992 -35.3864 -35.0422
   -34.9995 -34.9943 -34.8988 -34.8902 -34.8843 -34.8826 -34.8786 -34.8117
   -22.9603 -22.9125 -17.8000 -17.6478 -17.6210 -17.4876 -15.1213 -15.1051
   -14.5497 -14.5113 -14.0688 -14.0483 -13.6160 -13.4994 -13.4042 -13.3176
   -13.2201 -13.1568 -12.9407 -12.8936 -12.6024 -12.5542 -12.4374 -12.4212
   -11.7707 -11.5481  -6.4889  -6.4639  -6.4611  -6.4391  -6.4131  -6.3982
    -3.9728  -3.8882  -2.7757  -2.6653  -2.0384  -1.8819  -1.3845  -1.0787
    -0.9302  -0.8413  -0.8222  -0.7808  -0.7187  -0.4287  -0.3403  -0.2661
    -0.1770  -0.0523  -0.0189   0.0755   0.1411   0.2665   0.2905   0.3314
     0.4276   0.5142   0.6851   0.7005   0.8524   0.8647   0.9961   1.0248
     1.1323   1.2303   1.2833   1.3623   1.4260   1.4867   1.4909   1.5832
     1.6361   1.6726   1.7935   1.8318   1.9571   1.9902   2.1812   2.2003
     2.3156   2.3754   2.4006   2.4561   2.5235   2.5866   2.6675   2.7145
     2.7639   2.7891   2.9194   3.0026   3.0203   3.0488   3.1347   3.2767
     3.3234   3.4226   3.5157   3.5744   3.6169   3.7241   3.7761   3.8320

     occupation numbers 
     1.0000   1.0000   1.0000   1.0000   1.0000   1.0000   1.0000   1.0000
     1.0000   1.0000   1.0000   1.0000   1.0000   1.0000   1.0000   1.0000
     1.0000   1.0000   1.0000   1.0000   1.0000   1.0000   1.0000   1.0000
     1.0000   1.0000   1.0000   1.0000   1.0000   1.0000   1.0000   1.0000
     1.0000   1.0000   1.0000   1.0000   1.0000   1.0000   1.0000   1.0000
     1.0000   1.0000   1.0000   1.0000   1.0000   1.0000   1.0000   1.0000
     1.0000   1.0000   1.0000   1.0000   1.0000   1.0000   1.0000   1.0000
     1.0000   1.0000   1.0000   1.0000   1.0000   1.0000   1.0000   1.0000
     1.0000   1.0000   1.0000   1.0000   1.0000   1.0000   1.0000   1.0000
     1.0000   1.0000   1.0000   1.0000   1.0000   1.0000   1.0000   1.0000
     1.0000   1.0000   1.0000   1.0000   1.0000   1.0000   1.0000   1.0000
     1.0000   1.0000   1.0000   1.0000   1.0000   1.0000   1.0000   1.0000
     1.0000   1.0000   1.0000   1.0000   1.0000   1.0000   1.0000   1.0000
     1.0000   1.0000   1.0000   1.0000   1.0000   1.0000   1.0000   1.0000
     1.0000   1.0000   1.0000   1.0000   1.0000   1.0000   1.0000   1.0000
     1.0000   1.0000   1.0000   1.0000   1.0000   1.0000   1.0000   1.0000

          k = 0.3333 0.0000-0.1157 ( 25913 PWs)   bands (ev):

   -68.7994 -68.7867 -68.6507 -68.2603 -68.1373 -68.1105 -35.5594 -35.5542
   -35.5487 -35.5400 -35.5371 -35.5300 -35.4200 -35.3992 -35.3863 -35.0421
   -34.9995 -34.9943 -34.8988 -34.8902 -34.8843 -34.8826 -34.8785 -34.8117
   -22.9603 -22.9125 -17.8000 -17.6478 -17.6210 -17.4876 -15.1321 -15.0937
   -14.5342 -14.5277 -14.0696 -14.0474 -13.6186 -13.4939 -13.4111 -13.3154
   -13.2187 -13.1555 -12.9243 -12.9105 -12.5989 -12.5588 -12.4502 -12.4076
   -11.7707 -11.5480  -6.4888  -6.4640  -6.4610  -6.4391  -6.4131  -6.3981
    -3.9375  -3.9250  -2.7890  -2.6502  -2.0483  -1.8714  -1.4110  -1.0467
    -0.9055  -0.8678  -0.8325  -0.7711  -0.7365  -0.4121  -0.3214  -0.2553
    -0.1801  -0.0555  -0.0231   0.0785   0.1543   0.2510   0.2703   0.3317
     0.4281   0.5383   0.6745   0.6969   0.8411   0.8759   0.9595   1.0421
     1.1436   1.2452   1.2810   1.3635   1.3764   1.4526   1.5197   1.5792
     1.6307   1.7087   1.7636   1.8828   1.9498   1.9939   2.1626   2.2014
     2.3134   2.3548   2.4150   2.4445   2.5161   2.5860   2.6838   2.6920
     2.7618   2.8114   2.9254   2.9537   3.0164   3.1610   3.1837   3.2542
     3.3211   3.4353   3.4759   3.5558   3.6410   3.6591   3.7625   3.8662

     occupation numbers 
     1.0000   1.0000   1.0000   1.0000   1.0000   1.0000   1.0000   1.0000
     1.0000   1.0000   1.0000   1.0000   1.0000   1.0000   1.0000   1.0000
     1.0000   1.0000   1.0000   1.0000   1.0000   1.0000   1.0000   1.0000
     1.0000   1.0000   1.0000   1.0000   1.0000   1.0000   1.0000   1.0000
     1.0000   1.0000   1.0000   1.0000   1.0000   1.0000   1.0000   1.0000
     1.0000   1.0000   1.0000   1.0000   1.0000   1.0000   1.0000   1.0000
     1.0000   1.0000   1.0000   1.0000   1.0000   1.0000   1.0000   1.0000
     1.0000   1.0000   1.0000   1.0000   1.0000   1.0000   1.0000   1.0000
     1.0000   1.0000   1.0000   1.0000   1.0000   1.0000   1.0000   1.0000
     1.0000   1.0000   1.0000   1.0000   1.0000   1.0000   1.0000   1.0000
     1.0000   1.0000   1.0000   1.0000   1.0000   1.0000   1.0000   1.0000
     1.0000   1.0000   1.0000   1.0000   1.0000   1.0000   1.0000   1.0000
     1.0000   1.0000   1.0000   1.0000   1.0000   1.0000   1.0000   1.0000
     1.0000   1.0000   1.0000   1.0000   1.0000   1.0000   1.0000   1.0000
     1.0000   1.0000   1.0000   1.0000   1.0000   1.0000   1.0000   1.0000
     1.0000   1.0000   1.0000   1.0000   1.0000   1.0000   1.0000   1.0000

          k = 0.3333 0.1921 0.0601 ( 25923 PWs)   bands (ev):

   -68.7994 -68.7868 -68.6507 -68.2604 -68.1373 -68.1106 -35.5594 -35.5542
   -35.5487 -35.5400 -35.5371 -35.5300 -35.4200 -35.3992 -35.3864 -35.0422
   -34.9995 -34.9943 -34.8988 -34.8902 -34.8843 -34.8826 -34.8785 -34.8117
   -22.9603 -22.9125 -17.7999 -17.6477 -17.6212 -17.4876 -15.1379 -15.0837
   -14.5598 -14.5158 -14.0721 -14.0359 -13.6230 -13.4908 -13.3928 -13.3050
   -13.2380 -13.1493 -12.9575 -12.8940 -12.6168 -12.5394 -12.4577 -12.3986
   -11.7725 -11.5463  -6.4887  -6.4642  -6.4614  -6.4397  -6.4127  -6.3983
    -3.9514  -3.8689  -2.8802  -2.7397  -2.0091  -1.7486  -1.4093  -1.0636
    -0.9234  -0.8668  -0.8314  -0.7681  -0.7085  -0.4610  -0.3621  -0.2537
    -0.1790  -0.0462   0.0221   0.0559   0.1494   0.2911   0.3453   0.4089
     0.4772   0.5503   0.6678   0.7594   0.7958   0.8900   0.9292   1.0755
     1.1647   1.2084   1.2555   1.2892   1.3699   1.4703   1.5217   1.5466
     1.6488   1.6888   1.7174   1.7609   1.8476   2.0408   2.2159   2.2394
     2.3313   2.3956   2.4049   2.4429   2.4853   2.5552   2.6185   2.6391
     2.6752   2.8214   2.8824   3.0035   3.0156   3.1892   3.2385   3.2979
     3.3923   3.4332   3.4964   3.5893   3.6314   3.6627   3.7460   3.8532

     occupation numbers 
     1.0000   1.0000   1.0000   1.0000   1.0000   1.0000   1.0000   1.0000
     1.0000   1.0000   1.0000   1.0000   1.0000   1.0000   1.0000   1.0000
     1.0000   1.0000   1.0000   1.0000   1.0000   1.0000   1.0000   1.0000
     1.0000   1.0000   1.0000   1.0000   1.0000   1.0000   1.0000   1.0000
     1.0000   1.0000   1.0000   1.0000   1.0000   1.0000   1.0000   1.0000
     1.0000   1.0000   1.0000   1.0000   1.0000   1.0000   1.0000   1.0000
     1.0000   1.0000   1.0000   1.0000   1.0000   1.0000   1.0000   1.0000
     1.0000   1.0000   1.0000   1.0000   1.0000   1.0000   1.0000   1.0000
     1.0000   1.0000   1.0000   1.0000   1.0000   1.0000   1.0000   1.0000
     1.0000   1.0000   1.0000   1.0000   1.0000   1.0000   1.0000   1.0000
     1.0000   1.0000   1.0000   1.0000   1.0000   1.0000   1.0000   1.0000
     1.0000   1.0000   1.0000   1.0000   1.0000   1.0000   1.0000   1.0000
     1.0000   1.0000   1.0000   1.0000   1.0000   1.0000   1.0000   1.0000
     1.0000   1.0000   1.0000   1.0000   1.0000   1.0000   1.0000   1.0000
     1.0000   1.0000   1.0000   1.0000   1.0000   1.0000   1.0000   1.0000
     1.0000   1.0000   1.0000   1.0000   1.0000   1.0000   1.0000   1.0000

          k = 0.3333 0.1921 0.2360 ( 25909 PWs)   bands (ev):

   -68.7994 -68.7867 -68.6507 -68.2603 -68.1373 -68.1105 -35.5594 -35.5542
   -35.5487 -35.5400 -35.5371 -35.5300 -35.4200 -35.3992 -35.3863 -35.0421
   -34.9995 -34.9943 -34.8988 -34.8902 -34.8843 -34.8826 -34.8785 -34.8117
   -22.9603 -22.9125 -17.7999 -17.6477 -17.6211 -17.4876 -15.1196 -15.1032
   -14.5567 -14.5190 -14.0641 -14.0445 -13.6158 -13.4935 -13.3897 -13.3126
   -13.2253 -13.1647 -12.9481 -12.9019 -12.6020 -12.5523 -12.4353 -12.4203
   -11.7704 -11.5480  -6.4887  -6.4641  -6.4614  -6.4397  -6.4126  -6.3983
    -3.9500  -3.8703  -2.8472  -2.7782  -1.9856  -1.7729  -1.3581  -1.0821
    -0.9337  -0.8884  -0.8226  -0.7415  -0.7221  -0.4876  -0.3716  -0.2689
    -0.2056  -0.0418   0.0203   0.0549   0.1384   0.3014   0.3425   0.4180
     0.4920   0.5587   0.6862   0.7607   0.8192   0.8953   0.9662   1.0595
     1.1197   1.2027   1.2698   1.3220   1.4141   1.4477   1.4710   1.5883
     1.6097   1.6548   1.7329   1.8097   1.9344   1.9850   2.1574   2.2000
     2.3205   2.3795   2.4012   2.4472   2.4991   2.5571   2.6250   2.6822
     2.7207   2.7653   2.8987   3.0045   3.0597   3.1125   3.2299   3.3011
     3.3785   3.4256   3.5071   3.5760   3.6078   3.7123   3.7798   3.8362

     occupation numbers 
     1.0000   1.0000   1.0000   1.0000   1.0000   1.0000   1.0000   1.0000
     1.0000   1.0000   1.0000   1.0000   1.0000   1.0000   1.0000   1.0000
     1.0000   1.0000   1.0000   1.0000   1.0000   1.0000   1.0000   1.0000
     1.0000   1.0000   1.0000   1.0000   1.0000   1.0000   1.0000   1.0000
     1.0000   1.0000   1.0000   1.0000   1.0000   1.0000   1.0000   1.0000
     1.0000   1.0000   1.0000   1.0000   1.0000   1.0000   1.0000   1.0000
     1.0000   1.0000   1.0000   1.0000   1.0000   1.0000   1.0000   1.0000
     1.0000   1.0000   1.0000   1.0000   1.0000   1.0000   1.0000   1.0000
     1.0000   1.0000   1.0000   1.0000   1.0000   1.0000   1.0000   1.0000
     1.0000   1.0000   1.0000   1.0000   1.0000   1.0000   1.0000   1.0000
     1.0000   1.0000   1.0000   1.0000   1.0000   1.0000   1.0000   1.0000
     1.0000   1.0000   1.0000   1.0000   1.0000   1.0000   1.0000   1.0000
     1.0000   1.0000   1.0000   1.0000   1.0000   1.0000   1.0000   1.0000
     1.0000   1.0000   1.0000   1.0000   1.0000   1.0000   1.0000   1.0000
     1.0000   1.0000   1.0000   1.0000   1.0000   1.0000   1.0000   1.0000
     1.0000   1.0000   1.0000   1.0000   1.0000   1.0000   1.0000   1.0000

          k = 0.3333 0.1921-0.1157 ( 25902 PWs)   bands (ev):

   -68.7994 -68.7867 -68.6507 -68.2603 -68.1373 -68.1105 -35.5594 -35.5542
   -35.5487 -35.5400 -35.5371 -35.5300 -35.4200 -35.3992 -35.3863 -35.0421
   -34.9995 -34.9943 -34.8988 -34.8902 -34.8843 -34.8826 -34.8785 -34.8117
   -22.9603 -22.9125 -17.7999 -17.6477 -17.6212 -17.4876 -15.1305 -15.0918
   -14.5422 -14.5343 -14.0639 -14.0446 -13.6185 -13.4884 -13.3943 -13.3111
   -13.2282 -13.1608 -12.9334 -12.9164 -12.5966 -12.5585 -12.4494 -12.4060
   -11.7703 -11.5479  -6.4887  -6.4642  -6.4613  -6.4397  -6.4126  -6.3983
    -3.9164  -3.9055  -2.8680  -2.7546  -1.9961  -1.7637  -1.3831  -1.0507
    -0.9161  -0.8829  -0.8387  -0.7643  -0.7260  -0.4741  -0.3706  -0.2560
    -0.1966  -0.0562   0.0173   0.0625   0.1639   0.3091   0.3528   0.4075
     0.4833   0.5480   0.6681   0.7663   0.7954   0.8838   0.9456   1.0813
     1.1312   1.2126   1.2616   1.3060   1.3650   1.4367   1.5082   1.5794
     1.6515   1.6789   1.7481   1.7914   1.8766   2.0687   2.1651   2.1937
     2.2915   2.3789   2.4093   2.4595   2.4760   2.5255   2.5990   2.6319
     2.7584   2.8309   2.9000   2.9668   3.0595   3.2252   3.2464   3.2864
     3.3392   3.4562   3.4746   3.5629   3.6250   3.6657   3.7565   3.8658

     occupation numbers 
     1.0000   1.0000   1.0000   1.0000   1.0000   1.0000   1.0000   1.0000
     1.0000   1.0000   1.0000   1.0000   1.0000   1.0000   1.0000   1.0000
     1.0000   1.0000   1.0000   1.0000   1.0000   1.0000   1.0000   1.0000
     1.0000   1.0000   1.0000   1.0000   1.0000   1.0000   1.0000   1.0000
     1.0000   1.0000   1.0000   1.0000   1.0000   1.0000   1.0000   1.0000
     1.0000   1.0000   1.0000   1.0000   1.0000   1.0000   1.0000   1.0000
     1.0000   1.0000   1.0000   1.0000   1.0000   1.0000   1.0000   1.0000
     1.0000   1.0000   1.0000   1.0000   1.0000   1.0000   1.0000   1.0000
     1.0000   1.0000   1.0000   1.0000   1.0000   1.0000   1.0000   1.0000
     1.0000   1.0000   1.0000   1.0000   1.0000   1.0000   1.0000   1.0000
     1.0000   1.0000   1.0000   1.0000   1.0000   1.0000   1.0000   1.0000
     1.0000   1.0000   1.0000   1.0000   1.0000   1.0000   1.0000   1.0000
     1.0000   1.0000   1.0000   1.0000   1.0000   1.0000   1.0000   1.0000
     1.0000   1.0000   1.0000   1.0000   1.0000   1.0000   1.0000   1.0000
     1.0000   1.0000   1.0000   1.0000   1.0000   1.0000   1.0000   1.0000
     1.0000   1.0000   1.0000   1.0000   1.0000   1.0000   1.0000   1.0000

          k =-0.5000 0.0000-0.0902 ( 25894 PWs)   bands (ev):

   -68.7993 -68.7868 -68.6507 -68.2603 -68.1373 -68.1106 -35.5585 -35.5554
   -35.5486 -35.5386 -35.5379 -35.5304 -35.4201 -35.3992 -35.3864 -35.0421
   -34.9996 -34.9942 -34.8991 -34.8899 -34.8841 -34.8816 -34.8795 -34.8120
   -22.9601 -22.9124 -17.7891 -17.6394 -17.6295 -17.4956 -14.9838 -14.9352
   -14.7297 -14.6847 -14.0933 -14.0531 -13.5916 -13.4968 -13.3666 -13.2949
   -13.2005 -13.1216 -12.9817 -12.9150 -12.5729 -12.5417 -12.4995 -12.4798
   -11.7641 -11.5504  -6.4884  -6.4637  -6.4602  -6.4424  -6.4129  -6.3949
    -3.5882  -3.5068  -3.0901  -3.0017  -1.9998  -1.8224  -1.2998  -1.2017
    -0.9145  -0.8301  -0.8228  -0.7796  -0.6729  -0.4287  -0.3390  -0.2430
    -0.1598  -0.0396   0.0259   0.0826   0.2339   0.2488   0.2730   0.3302
     0.4412   0.4890   0.6794   0.7229   0.8114   0.8558   0.8993   0.9613
     1.1512   1.2103   1.2620   1.3193   1.4257   1.4694   1.5218   1.5698
     1.6643   1.6846   1.7356   1.7615   1.8879   1.9100   2.2333   2.2669
     2.3578   2.3865   2.4189   2.4375   2.4971   2.5639   2.6670   2.6722
     2.7228   2.7335   2.9267   2.9862   2.9862   3.1333   3.2447   3.2644
     3.3834   3.4224   3.4527   3.5251   3.5723   3.6209   3.6947   3.8252

     occupation numbers 
     1.0000   1.0000   1.0000   1.0000   1.0000   1.0000   1.0000   1.0000
     1.0000   1.0000   1.0000   1.0000   1.0000   1.0000   1.0000   1.0000
     1.0000   1.0000   1.0000   1.0000   1.0000   1.0000   1.0000   1.0000
     1.0000   1.0000   1.0000   1.0000   1.0000   1.0000   1.0000   1.0000
     1.0000   1.0000   1.0000   1.0000   1.0000   1.0000   1.0000   1.0000
     1.0000   1.0000   1.0000   1.0000   1.0000   1.0000   1.0000   1.0000
     1.0000   1.0000   1.0000   1.0000   1.0000   1.0000   1.0000   1.0000
     1.0000   1.0000   1.0000   1.0000   1.0000   1.0000   1.0000   1.0000
     1.0000   1.0000   1.0000   1.0000   1.0000   1.0000   1.0000   1.0000
     1.0000   1.0000   1.0000   1.0000   1.0000   1.0000   1.0000   1.0000
     1.0000   1.0000   1.0000   1.0000   1.0000   1.0000   1.0000   1.0000
     1.0000   1.0000   1.0000   1.0000   1.0000   1.0000   1.0000   1.0000
     1.0000   1.0000   1.0000   1.0000   1.0000   1.0000   1.0000   1.0000
     1.0000   1.0000   1.0000   1.0000   1.0000   1.0000   1.0000   1.0000
     1.0000   1.0000   1.0000   1.0000   1.0000   1.0000   1.0000   1.0000
     1.0000   1.0000   1.0000   1.0000   1.0000   1.0000   1.0000   1.0000

          k =-0.5000 0.0000 0.0856 ( 25921 PWs)   bands (ev):

   -68.7993 -68.7868 -68.6507 -68.2603 -68.1373 -68.1106 -35.5585 -35.5554
   -35.5486 -35.5386 -35.5380 -35.5304 -35.4201 -35.3992 -35.3864 -35.0421
   -34.9997 -34.9942 -34.8991 -34.8899 -34.8841 -34.8816 -34.8795 -34.8120
   -22.9601 -22.9124 -17.7891 -17.6394 -17.6295 -17.4956 -14.9722 -14.9477
   -14.7189 -14.6959 -14.0849 -14.0620 -13.5861 -13.4965 -13.3657 -13.3019
   -13.1913 -13.1329 -12.9649 -12.9299 -12.5582 -12.5302 -12.5119 -12.4916
   -11.7617 -11.5523  -6.4884  -6.4636  -6.4602  -6.4424  -6.4129  -6.3948
    -3.5688  -3.5271  -3.0715  -3.0239  -1.9850  -1.8404  -1.2685  -1.1822
    -0.9113  -0.8769  -0.8002  -0.7747  -0.6839  -0.4486  -0.3555  -0.2591
    -0.1770  -0.0478   0.0262   0.0904   0.2414   0.2669   0.2901   0.3294
     0.4626   0.4935   0.6720   0.7231   0.8342   0.8644   0.8854   0.9463
     1.1155   1.1994   1.2744   1.3556   1.4280   1.4653   1.5166   1.5651
     1.6495   1.7007   1.7378   1.7900   1.9137   1.9465   2.1612   2.1822
     2.3103   2.3768   2.4275   2.5065   2.5529   2.5850   2.6143   2.6382
     2.7202   2.7575   2.9308   2.9866   3.0392   3.1452   3.2317   3.2981
     3.3524   3.4007   3.4398   3.4730   3.5769   3.6624   3.7074   3.8253

     occupation numbers 
     1.0000   1.0000   1.0000   1.0000   1.0000   1.0000   1.0000   1.0000
     1.0000   1.0000   1.0000   1.0000   1.0000   1.0000   1.0000   1.0000
     1.0000   1.0000   1.0000   1.0000   1.0000   1.0000   1.0000   1.0000
     1.0000   1.0000   1.0000   1.0000   1.0000   1.0000   1.0000   1.0000
     1.0000   1.0000   1.0000   1.0000   1.0000   1.0000   1.0000   1.0000
     1.0000   1.0000   1.0000   1.0000   1.0000   1.0000   1.0000   1.0000
     1.0000   1.0000   1.0000   1.0000   1.0000   1.0000   1.0000   1.0000
     1.0000   1.0000   1.0000   1.0000   1.0000   1.0000   1.0000   1.0000
     1.0000   1.0000   1.0000   1.0000   1.0000   1.0000   1.0000   1.0000
     1.0000   1.0000   1.0000   1.0000   1.0000   1.0000   1.0000   1.0000
     1.0000   1.0000   1.0000   1.0000   1.0000   1.0000   1.0000   1.0000
     1.0000   1.0000   1.0000   1.0000   1.0000   1.0000   1.0000   1.0000
     1.0000   1.0000   1.0000   1.0000   1.0000   1.0000   1.0000   1.0000
     1.0000   1.0000   1.0000   1.0000   1.0000   1.0000   1.0000   1.0000
     1.0000   1.0000   1.0000   1.0000   1.0000   1.0000   1.0000   1.0000
     1.0000   1.0000   1.0000   1.0000   1.0000   1.0000   1.0000   1.0000

          k =-0.5000 0.1921-0.0902 ( 25924 PWs)   bands (ev):

   -68.7994 -68.7868 -68.6507 -68.2603 -68.1373 -68.1106 -35.5585 -35.5554
[...]
     atom   36 type  5   force =     1.16561285   -2.13963398   10.60656792
     atom   37 type  2   force =    -0.24325488    0.92723486   18.16902947
     atom   38 type  2   force =     0.24324245    0.92723494  -18.16902949
     atom   39 type  2   force =     0.06232129   -0.75362893   17.40786016
     atom   40 type  2   force =    -0.06231281   -0.75362878  -17.40791100
     The core correction contribution to forces
     atom    1 type  3   force =     0.00000000   -0.00165721    0.00000000
     atom    2 type  3   force =    -0.00000000    0.00180997    0.00000000
     atom    3 type  4   force =    -0.00000000    0.00027460    0.00000000
     atom    4 type  4   force =     0.00000000   -0.00028216    0.00000000
     atom    5 type  4   force =     0.00000000    0.00006083    0.00000000
     atom    6 type  4   force =    -0.00000000   -0.00087570    0.00000000
     atom    7 type  4   force =     0.00000000   -0.00022528    0.00000000
     atom    8 type  4   force =    -0.00000000    0.00101577    0.00000000
     atom    9 type  6   force =     0.00276177    0.01168512   -0.00064987
     atom   10 type  6   force =    -0.00276177    0.01168510    0.00064980
     atom   11 type  6   force =     0.00064989    0.00418291   -0.00833799
     atom   12 type  6   force =    -0.00064987    0.00418291    0.00833795
     atom   13 type  6   force =    -0.00167827   -0.01287772    0.00507206
     atom   14 type  6   force =     0.00167828   -0.01287771   -0.00507210
     atom   15 type  1   force =    -0.00072080   -0.00278672   -0.00574425
     atom   16 type  1   force =     0.00072081   -0.00278673    0.00574419
     atom   17 type  5   force =    -0.00011469    0.00022768    0.00583848
     atom   18 type  5   force =     0.00011467    0.00022767   -0.00583847
     atom   19 type  5   force =    -0.00007564    0.00007426   -0.00646463
     atom   20 type  5   force =     0.00007564    0.00007426    0.00646463
     atom   21 type  5   force =     0.00007838   -0.00018777    0.00626699
     atom   22 type  5   force =    -0.00007839   -0.00018777   -0.00626699
     atom   23 type  5   force =     0.00009877    0.00007304   -0.00266826
     atom   24 type  5   force =    -0.00009877    0.00007304    0.00266828
     atom   25 type  5   force =     0.00465856   -0.00169170   -0.00598173
     atom   26 type  5   force =    -0.00465856   -0.00169170    0.00598175
     atom   27 type  5   force =    -0.00338220    0.00090662   -0.00718947
     atom   28 type  5   force =     0.00338220    0.00090662    0.00718945
     atom   29 type  5   force =    -0.00165908    0.00239859    0.00733464
     atom   30 type  5   force =     0.00165908    0.00239860   -0.00733466
     atom   31 type  5   force =     0.00087281   -0.00216574   -0.00750808
     atom   32 type  5   force =    -0.00087281   -0.00216574    0.00750808
     atom   33 type  5   force =    -0.00242741   -0.00365560   -0.00670586
     atom   34 type  5   force =     0.00242742   -0.00365559    0.00670587
     atom   35 type  5   force =     0.00118269    0.00403726    0.00662808
     atom   36 type  5   force =    -0.00118269    0.00403726   -0.00662805
     atom   37 type  2   force =     0.00004935   -0.00030314   -0.00261542
     atom   38 type  2   force =    -0.00004936   -0.00030314    0.00261542
     atom   39 type  2   force =    -0.00012091    0.00026158   -0.00262279
     atom   40 type  2   force =     0.00012092    0.00026158    0.00262272
     The Hubbard contrib.    to forces
     atom    1 type  3   force =     0.00000000    0.00000000    0.00000000
     atom    2 type  3   force =     0.00000000    0.00000000    0.00000000
     atom    3 type  4   force =     0.00000000    0.00000000    0.00000000
     atom    4 type  4   force =     0.00000000    0.00000000    0.00000000
     atom    5 type  4   force =     0.00000000    0.00000000    0.00000000
     atom    6 type  4   force =     0.00000000    0.00000000    0.00000000
     atom    7 type  4   force =     0.00000000    0.00000000    0.00000000
     atom    8 type  4   force =     0.00000000    0.00000000    0.00000000
     atom    9 type  6   force =     0.00000000    0.00000000    0.00000000
     atom   10 type  6   force =     0.00000000    0.00000000    0.00000000
     atom   11 type  6   force =     0.00000000    0.00000000    0.00000000
     atom   12 type  6   force =     0.00000000    0.00000000    0.00000000
     atom   13 type  6   force =     0.00000000    0.00000000    0.00000000
     atom   14 type  6   force =     0.00000000    0.00000000    0.00000000
     atom   15 type  1   force =     0.00000000    0.00000000    0.00000000
     atom   16 type  1   force =     0.00000000    0.00000000    0.00000000
     atom   17 type  5   force =     0.00000000    0.00000000    0.00000000
     atom   18 type  5   force =     0.00000000    0.00000000    0.00000000
     atom   19 type  5   force =     0.00000000    0.00000000    0.00000000
     atom   20 type  5   force =     0.00000000    0.00000000    0.00000000
     atom   21 type  5   force =     0.00000000    0.00000000    0.00000000
     atom   22 type  5   force =     0.00000000    0.00000000    0.00000000
     atom   23 type  5   force =     0.00000000    0.00000000    0.00000000
     atom   24 type  5   force =     0.00000000    0.00000000    0.00000000
     atom   25 type  5   force =     0.00000000    0.00000000    0.00000000
     atom   26 type  5   force =     0.00000000    0.00000000    0.00000000
     atom   27 type  5   force =     0.00000000    0.00000000    0.00000000
     atom   28 type  5   force =     0.00000000    0.00000000    0.00000000
     atom   29 type  5   force =     0.00000000    0.00000000    0.00000000
     atom   30 type  5   force =     0.00000000    0.00000000    0.00000000
     atom   31 type  5   force =     0.00000000    0.00000000    0.00000000
     atom   32 type  5   force =     0.00000000    0.00000000    0.00000000
     atom   33 type  5   force =     0.00000000    0.00000000    0.00000000
     atom   34 type  5   force =     0.00000000    0.00000000    0.00000000
     atom   35 type  5   force =     0.00000000    0.00000000    0.00000000
     atom   36 type  5   force =     0.00000000    0.00000000    0.00000000
     atom   37 type  2   force =     0.00000000    0.00000000    0.00000000
     atom   38 type  2   force =     0.00000000    0.00000000    0.00000000
     atom   39 type  2   force =     0.00000000    0.00000000    0.00000000
     atom   40 type  2   force =     0.00000000    0.00000000    0.00000000
     The SCF correction term to forces
     atom    1 type  3   force =    -0.00000000   -0.00000259    0.00000000
     atom    2 type  3   force =    -0.00000000    0.00000865    0.00000000
     atom    3 type  4   force =     0.00000000    0.00001545   -0.00000000
     atom    4 type  4   force =    -0.00000000   -0.00002124   -0.00000000
     atom    5 type  4   force =     0.00000000    0.00000281   -0.00000000
     atom    6 type  4   force =     0.00000000   -0.00001661   -0.00000000
     atom    7 type  4   force =     0.00000000    0.00000190   -0.00000000
     atom    8 type  4   force =    -0.00000000    0.00001681   -0.00000000
     atom    9 type  6   force =     0.00000220   -0.00001427    0.00000773
     atom   10 type  6   force =    -0.00000220   -0.00001427   -0.00000773
     atom   11 type  6   force =     0.00000301    0.00001307    0.00000096
     atom   12 type  6   force =    -0.00000301    0.00001307   -0.00000096
     atom   13 type  6   force =     0.00000114   -0.00000764    0.00000140
     atom   14 type  6   force =    -0.00000114   -0.00000764   -0.00000140
     atom   15 type  1   force =     0.00000399    0.00000311   -0.00000553
     atom   16 type  1   force =    -0.00000399    0.00000311    0.00000553
     atom   17 type  5   force =    -0.00000435   -0.00000260    0.00000918
     atom   18 type  5   force =     0.00000435   -0.00000260   -0.00000918
     atom   19 type  5   force =     0.00000187    0.00000843   -0.00000211
     atom   20 type  5   force =    -0.00000187    0.00000843    0.00000211
     atom   21 type  5   force =     0.00000229   -0.00000219    0.00001297
     atom   22 type  5   force =    -0.00000229   -0.00000219   -0.00001297
     atom   23 type  5   force =    -0.00000062   -0.00000612    0.00000248
     atom   24 type  5   force =     0.00000062   -0.00000612   -0.00000248
     atom   25 type  5   force =     0.00001528   -0.00000137    0.00000527
     atom   26 type  5   force =    -0.00001528   -0.00000137   -0.00000527
     atom   27 type  5   force =    -0.00000438    0.00000236    0.00000097
     atom   28 type  5   force =     0.00000438    0.00000236   -0.00000097
     atom   29 type  5   force =     0.00000757    0.00001570   -0.00000109
     atom   30 type  5   force =    -0.00000757    0.00001570    0.00000109
     atom   31 type  5   force =     0.00000808    0.00000629    0.00000036
     atom   32 type  5   force =    -0.00000808    0.00000629   -0.00000036
     atom   33 type  5   force =    -0.00000255   -0.00002915   -0.00000433
     atom   34 type  5   force =     0.00000255   -0.00002915    0.00000433
     atom   35 type  5   force =     0.00001280    0.00000130   -0.00001235
     atom   36 type  5   force =    -0.00001280    0.00000130    0.00001235
     atom   37 type  2   force =    -0.00000094   -0.00000859    0.00000451
     atom   38 type  2   force =     0.00000094   -0.00000859   -0.00000451
     atom   39 type  2   force =     0.00000315    0.00000846    0.00000344
     atom   40 type  2   force =    -0.00000315    0.00000846   -0.00000344

     DFT-D3 dispersion contribution to forces:
     atom    1 type  3   force =     0.00000000    0.00091323   -0.00000000
     atom    2 type  3   force =     0.00000000   -0.00089190   -0.00000000
     atom    3 type  4   force =     0.00000000    0.00029315    0.00000000
     atom    4 type  4   force =     0.00000000    0.00149007    0.00000000
     atom    5 type  4   force =    -0.00000000   -0.00170651    0.00000000
     atom    6 type  4   force =    -0.00000000   -0.00048113    0.00000000
     atom    7 type  4   force =    -0.00000000    0.00164400    0.00000000
     atom    8 type  4   force =    -0.00000000   -0.00107403    0.00000000
     atom    9 type  6   force =     0.00012076   -0.00008580   -0.00028740
     atom   10 type  6   force =    -0.00012076   -0.00008580    0.00028740
     atom   11 type  6   force =     0.00008555    0.00002990    0.00024553
     atom   12 type  6   force =    -0.00008555    0.00002990   -0.00024553
     atom   13 type  6   force =    -0.00010462    0.00005598   -0.00022874
     atom   14 type  6   force =     0.00010462    0.00005598    0.00022874
     atom   15 type  1   force =    -0.00005626   -0.00001624   -0.00118374
     atom   16 type  1   force =     0.00005626   -0.00001624    0.00118374
     atom   17 type  5   force =     0.00000661    0.00000664    0.00047125
     atom   18 type  5   force =    -0.00000661    0.00000664   -0.00047125
     atom   19 type  5   force =    -0.00001903    0.00002385   -0.00046151
     atom   20 type  5   force =     0.00001903    0.00002385    0.00046151
     atom   21 type  5   force =     0.00000435   -0.00008661    0.00048607
     atom   22 type  5   force =    -0.00000435   -0.00008661   -0.00048607
     atom   23 type  5   force =    -0.00005283    0.00000861    0.00004211
     atom   24 type  5   force =     0.00005283    0.00000861   -0.00004211
     atom   25 type  5   force =    -0.00007952    0.00079013    0.00019092
     atom   26 type  5   force =     0.00007952    0.00079013   -0.00019092
     atom   27 type  5   force =     0.00076131    0.00004818    0.00009580
     atom   28 type  5   force =    -0.00076131    0.00004818   -0.00009580
     atom   29 type  5   force =     0.00037887   -0.00058492    0.00003189
     atom   30 type  5   force =    -0.00037888   -0.00058492   -0.00003189
     atom   31 type  5   force =    -0.00022675    0.00038082   -0.00004405
     atom   32 type  5   force =     0.00022675    0.00038082    0.00004405
     atom   33 type  5   force =     0.00079159   -0.00040168    0.00033268
     atom   34 type  5   force =    -0.00079159   -0.00040168   -0.00033268
     atom   35 type  5   force =     0.00050483   -0.00029485   -0.00037481
     atom   36 type  5   force =    -0.00050483   -0.00029485    0.00037481
     atom   37 type  2   force =     0.00000547    0.00004784   -0.00048424
     atom   38 type  2   force =    -0.00000547    0.00004784    0.00048424
     atom   39 type  2   force =     0.00004536   -0.00001529   -0.00052891
     atom   40 type  2   force =    -0.00004536   -0.00001529    0.00052891

     Total force =     0.002994     Total SCF correction =     0.000086

     DFT-D3 dispersion Force =     0.004825
     Energy error            =      1.9E-05 Ry
     Gradient error          =      9.4E-04 Ry/Bohr

     bfgs converged in  15 scf cycles and  14 bfgs steps
     (criteria: energy <  1.0E-04 Ry, force <  1.0E-03 Ry/Bohr)

     End of BFGS Geometry Optimization

     Final energy             =   -2510.0343608141 Ry

     File ./temp/phl-f.bfgs deleted, as requested
Begin final coordinates

ATOMIC_POSITIONS (crystal)
K                0.0000000000        0.4880181586        0.0000000000
K                0.5000000000        0.0096370708        0.0000000000
Mg              -0.0000000000        0.0038372684        0.5000000000
Mg              -0.0000000000        0.3321576308        0.5000000000
Mg              -0.0000000000        0.6662735008        0.5000000000
Mg               0.5000000000        0.4944556460        0.5000000000
Mg               0.5000000000        0.8331095147        0.5000000000
Mg               0.5000000000        0.1736938014        0.5000000000
Si               0.0821279347        0.1649405091        0.2219980998
Si               0.9178720513        0.1649405091        0.7780018702
Si               0.9337206712        0.8339063832        0.7723274673
Si               0.0662793428        0.8339063832        0.2276725177
Si               0.5647746815        0.6660986429        0.2252755793
Si               0.4352253185        0.6660986429        0.7747244057
Al               0.4164533705        0.3311740723        0.7761623488
Al               0.5835466295        0.3311740723        0.2238376212
O                0.1283089723        0.1628136104        0.3862443812
O                0.8716909977        0.1628136104        0.6137556478
O                0.8745017344        0.8325945064        0.6098043705
O                0.1254982656        0.8325945064        0.3901955995
O                0.6252940571        0.6691742437        0.3886637861
O                0.3747059139        0.6691742437        0.6113362139
O                0.3596003143        0.3345390809        0.6023037031
O                0.6403996857        0.3345390809        0.3976963269
O                0.3368592485        0.2083455068        0.1646701039
O                0.6631407515        0.2083455068        0.8353299251
O                1.0031489914        0.9967218538        0.1679383267
O               -0.0031489954        0.9967218538        0.8320616583
O                0.6840854715        0.7725240203        0.8307382086
O                0.3159145585        0.7725240203        0.1692617764
O                0.8142930762        0.7342944307        0.1683686816
O                0.1857069238        0.7342944307        0.8316313184
O                0.5036679038        0.5076664102        0.1614113480
O                0.4963321262        0.5076664102        0.8385886670
O                0.1499428996        0.2715486663        0.8410116005
O                0.8500571154        0.2715486663        0.1589884295
F                0.1309752727        0.5064687490        0.3985004502
F                0.8690247423        0.5064687490        0.6014995498
F                0.6342633416        0.9981245588        0.4030427013
F                0.3657366584        0.9981245588        0.5969573287
End final coordinates



     Writing all to output data dir ./temp/phl-f.save/ :
     XML data file, charge density, pseudopotentials, collected wavefunctions

     init_run     :    156.40s CPU    161.99s WALL (       1 calls)
     electrons    :  70428.31s CPU  70799.76s WALL (      15 calls)
     update_pot   :     13.89s CPU     14.09s WALL (      14 calls)
     forces       :   1614.75s CPU   1625.01s WALL (      15 calls)
     force_dftd3  :     28.31s CPU     28.41s WALL (      15 calls)

     Called by init_run:
     wfcinit      :    150.53s CPU    155.54s WALL (       1 calls)
     wfcinit:atom :      0.16s CPU      0.16s WALL (      20 calls)
     wfcinit:wfcr :    149.14s CPU    154.10s WALL (      20 calls)
     potinit      :      1.08s CPU      1.16s WALL (       1 calls)
     hinit0       :      0.54s CPU      0.56s WALL (       1 calls)

     Called by electrons:
     c_bands      :  65159.56s CPU  65403.92s WALL (     119 calls)
     sum_band     :   4721.24s CPU   4799.97s WALL (     119 calls)
     v_of_rho     :     37.68s CPU     38.88s WALL (     123 calls)
     v_h          :      3.95s CPU      4.10s WALL (     123 calls)
     v_xc         :     37.87s CPU     39.03s WALL (     138 calls)
     newd         :    482.26s CPU    534.63s WALL (     123 calls)
     PAW_pot      :     72.68s CPU     72.79s WALL (     137 calls)
     mix_rho      :      6.95s CPU      7.16s WALL (     119 calls)
     energy_dftd3 :     22.07s CPU     22.08s WALL (      15 calls)

     Called by c_bands:
     init_us_2    :    207.13s CPU    208.78s WALL (    5360 calls)
     cegterg      :  64957.89s CPU  65200.99s WALL (    2382 calls)

     Called by sum_band:
     sum_band:wei :      0.01s CPU      0.01s WALL (     119 calls)
     sum_band:loo :   3923.14s CPU   3947.42s WALL (     119 calls)
     sum_band:buf :     23.84s CPU     24.03s WALL (    2380 calls)
     sum_band:ini :     92.68s CPU     93.39s WALL (    2380 calls)
     sum_band:cal :   3110.75s CPU   3114.97s WALL (    2660 calls)
     sum_band:bec :      3.66s CPU      3.67s WALL (    2660 calls)
     addusdens    :    791.06s CPU    844.98s WALL (     119 calls)
                                        0.00s GPU  (     119 calls)
     addusd:skk   :      5.29s CPU      5.31s WALL (     714 calls)
                                        0.00s GPU  (     714 calls)

     Called by *egterg:
     cdiaghg      :    759.28s CPU    760.42s WALL (   17840 calls)
     cegterg:over :   7418.17s CPU   7435.55s WALL (   15958 calls)
     cegterg:upda :   4849.05s CPU   4859.17s WALL (   15958 calls)
     cegterg:last :  13558.23s CPU  13588.12s WALL (    8361 calls)
     h_psi        :  26031.04s CPU  26194.14s WALL (   18360 calls)
     s_psi        :  10653.77s CPU  10674.65s WALL (   18360 calls)
     g_psi        :     16.88s CPU     16.93s WALL (   15958 calls)

     Called by h_psi:
     h_psi:calbec :  10537.36s CPU  10559.76s WALL (   18360 calls)
     vloc_psi     :   4731.28s CPU   4850.94s WALL (   18360 calls)
     add_vuspsi   :  10673.53s CPU  10694.04s WALL (   18360 calls)

     General routines
     calbec       :  15052.30s CPU  15080.93s WALL (   22220 calls)
     fft          :     31.94s CPU     33.87s WALL (    1759 calls)
     ffts         :      0.93s CPU      0.97s WALL (     242 calls)
     fftw         :   2650.08s CPU   2704.76s WALL ( 2608676 calls)
     interpolate  :      3.49s CPU      3.64s WALL (     123 calls)

     Parallel routines

     PAW routines
     PAW_pot      :     72.68s CPU     72.79s WALL (     137 calls)
     PAW_symme    :      0.05s CPU      0.05s WALL (     256 calls)

     PWSCF        :     20h10m CPU     20h16m WALL


   This run was terminated on:   8:39: 0  23Jan2025            

=------------------------------------------------------------------------------=
   JOB DONE.
=------------------------------------------------------------------------------=
