
     Program PWSCF v.7.3.1 starts on  2Jan2025 at 19:46:33 

     This program is part of the open-source Quantum ESPRESSO suite
     for quantum simulation of materials; please cite
         "P. Giannozzi et al., J. Phys.:Condens. Matter 21 395502 (2009);
         "P. Giannozzi et al., J. Phys.:Condens. Matter 29 465901 (2017);
         "P. Giannozzi et al., J. Chem. Phys. 152 154105 (2020);
          URL http://www.quantum-espresso.org", 
     in publications or presentations arising from this work. More details at
     http://www.quantum-espresso.org/quote

     Parallel version (MPI), running on     6 processors

     MPI processes distributed on     1 nodes
     4194 MiB available memory on the printing compute node when the environment starts

     Reading input from relax.in
Warning: card  &CELL ignored
Warning: card    CELL_DOFREE     = 'IBRAV' ignored
Warning: card  / ignored

     Current dimensions of program PWSCF are:
     Max number of different atomic species (ntypx) = 10
     Max number of k-points (npk) =  40000
     Max angular momentum in pseudopotentials (lmaxx) =  4
     file Al.pbe-n-kjpaw_psl.1.0.0.UPF: wavefunction(s)  3S 3P renormalized
     file Fe.pbe-spn-kjpaw_psl.1.0.0.UPF: wavefunction(s)  3P 3D renormalized
     file H.pbe-kjpaw_psl.1.0.0.UPF: wavefunction(s)  1S renormalized
     file K.pbe-spn-kjpaw_psl.1.0.0.UPF: wavefunction(s)  3S renormalized
     file Mg.pbe-spnl-kjpaw_psl.1.0.0.UPF: wavefunction(s)  2P renormalized
     file O.pbe-n-kjpaw_psl.1.0.0.UPF: wavefunction(s)  2S 2P renormalized
     file Si.pbe-n-kjpaw_psl.1.0.0.UPF: wavefunction(s)  3S 3P renormalized

     R & G space division:  proc/nbgrp/npool/nimage =       6
     Subspace diagonalization in iterative solution of the eigenvalue problem:
     one sub-group per band group will be used
     custom distributed-memory algorithm (size of sub-group:  2*  2 procs)


     Parallelization info
     --------------------
     sticks:   dense  smooth     PW     G-vecs:    dense   smooth      PW
     Min        1105     554    150                97744    34578    4918
     Max        1106     555    151                97745    34580    4920
     Sum        6633    3329    905               586467   207475   29511

     Using Slab Decomposition



     bravais-lattice index     =          -12
     lattice parameter (alat)  =      10.0136  a.u.
     unit-cell volume          =    3303.4414 (a.u.)^3
     number of atoms/cell      =           44
     number of atomic types    =            7
     number of electrons       =       262.00
     number of Kohn-Sham states=          157
     kinetic-energy cutoff     =      60.0000  Ry
     charge density cutoff     =     480.0000  Ry
     scf convergence threshold =      1.0E-06
     mixing beta               =       0.7000
     number of iterations used =            8  plain     mixing
     energy convergence thresh.=      1.0E-04
     force convergence thresh. =      1.0E-03
     Exchange-correlation= SLA  PW   PBX  PBC
                           (   1   4   3   4   0   0   0)
     nstep                     =           50


     celldm(1)=  10.013640  celldm(2)=   1.735306  celldm(3)=   1.926511
     celldm(4)=   0.000000  celldm(5)=  -0.177565  celldm(6)=   0.000000

     crystal axes: (cart. coord. in units of alat)
               a(1) = (   1.000000   0.000000   0.000000 )  
               a(2) = (   0.000000   1.735306   0.000000 )  
               a(3) = (  -0.342081   0.000000   1.895896 )  

     reciprocal axes: (cart. coord. in units 2 pi/alat)
               b(1) = (  1.000000 -0.000000  0.180432 )  
               b(2) = (  0.000000  0.576267 -0.000000 )  
               b(3) = (  0.000000  0.000000  0.527455 )  


     PseudoPot. # 1 for Al read from file:
     ./../../pseudos/Al.pbe-n-kjpaw_psl.1.0.0.UPF
     MD5 check sum: 502b6b27b9c6270cab5dd1084b96fa6d
     Pseudo is Projector augmented-wave + core cor, Zval =  3.0
     Generated using &quot;atomic&quot; code by A. Dal Corso  v.6.3
     Shape of augmentation charge: PSQ
     Using radial grid of 1135 points,  6 beta functions with: 
                l(1) =   0
                l(2) =   0
                l(3) =   1
                l(4) =   1
                l(5) =   2
                l(6) =   2
     Q(r) pseudized with 0 coefficients 


     PseudoPot. # 2 for Fe read from file:
     ./../../pseudos/Fe.pbe-spn-kjpaw_psl.1.0.0.UPF
     MD5 check sum: fc81f059e5c5069939230b1155715ae8
     Pseudo is Projector augmented-wave + core cor, Zval = 16.0
     Generated using &quot;atomic&quot; code by A. Dal Corso  v.6.3
     Shape of augmentation charge: PSQ
     Using radial grid of 1191 points,  6 beta functions with: 
                l(1) =   0
                l(2) =   0
                l(3) =   1
                l(4) =   1
                l(5) =   2
                l(6) =   2
     Q(r) pseudized with 0 coefficients 


     PseudoPot. # 3 for H  read from file:
     ./../../pseudos/H.pbe-kjpaw_psl.1.0.0.UPF
     MD5 check sum: d81a744832360e4a8af0b0b5b123bc2a
     Pseudo is Projector augmented-wave, Zval =  1.0
     Generated using &quot;atomic&quot; code by A. Dal Corso  v.6.3MaX
     Shape of augmentation charge: PSQ
     Using radial grid of  929 points,  2 beta functions with: 
                l(1) =   0
                l(2) =   0
     Q(r) pseudized with 0 coefficients 


     PseudoPot. # 4 for K  read from file:
     ./../../pseudos/K.pbe-spn-kjpaw_psl.1.0.0.UPF
     MD5 check sum: 34cc42130a09071ebe376fd42eb21491
     Pseudo is Projector augmented-wave + core cor, Zval =  9.0
     Generated using &quot;atomic&quot; code by A. Dal Corso  v.6.2.2
     Shape of augmentation charge: PSQ
     Using radial grid of 1165 points,  6 beta functions with: 
                l(1) =   0
                l(2) =   0
                l(3) =   1
                l(4) =   1
                l(5) =   2
                l(6) =   2
     Q(r) pseudized with 0 coefficients 


     PseudoPot. # 5 for Mg read from file:
     ./../../pseudos/Mg.pbe-spnl-kjpaw_psl.1.0.0.UPF
     MD5 check sum: fda14e0d92a6a9a5ebed782e5a4b3067
     Pseudo is Projector augmented-wave + core cor, Zval = 10.0
     Generated using &quot;atomic&quot; code by A. Dal Corso  v.6.3
     Shape of augmentation charge: PSQ
     Using radial grid of 1129 points,  4 beta functions with: 
                l(1) =   0
                l(2) =   0
                l(3) =   1
                l(4) =   1
     Q(r) pseudized with 0 coefficients 


     PseudoPot. # 6 for O  read from file:
     ./../../pseudos/O.pbe-n-kjpaw_psl.1.0.0.UPF
     MD5 check sum: e99d9cef9b487d1ca56f5b95ecd0fd7a
     Pseudo is Projector augmented-wave + core cor, Zval =  6.0
     Generated using &quot;atomic&quot; code by A. Dal Corso  v.6.3
     Shape of augmentation charge: PSQ
     Using radial grid of 1095 points,  4 beta functions with: 
                l(1) =   0
                l(2) =   0
                l(3) =   1
                l(4) =   1
     Q(r) pseudized with 0 coefficients 


     PseudoPot. # 7 for Si read from file:
     ./../../pseudos/Si.pbe-n-kjpaw_psl.1.0.0.UPF
     MD5 check sum: c39c59da582df4a0d9f10159256ea34e
     Pseudo is Projector augmented-wave + core cor, Zval =  4.0
     Generated using &quot;atomic&quot; code by A. Dal Corso  v.6.3
     Shape of augmentation charge: PSQ
     Using radial grid of 1141 points,  6 beta functions with: 
                l(1) =   0
                l(2) =   0
                l(3) =   1
                l(4) =   1
                l(5) =   2
                l(6) =   2
     Q(r) pseudized with 0 coefficients 


     atomic species   valence    mass     pseudopotential
     Al                3.00    26.98154     Al( 1.00)
     Fe               16.00    55.84500     Fe( 1.00)
     H                 1.00     1.00794     H ( 1.00)
     K                 9.00    39.09830     K ( 1.00)
     Mg               10.00    24.30500     Mg( 1.00)
     O                 6.00    15.99940     O ( 1.00)
     Si                4.00    28.08550     Si( 1.00)

      2 Sym. Ops. (no inversion) found


                                    s                        frac. trans.

      isym =  1     identity                                     

 cryst.   s( 1) = (     1          0          0      )
                  (     0          1          0      )
                  (     0          0          1      )

 cart.    s( 1) = (  1.0000000  0.0000000 -0.0000000 )
                  (  0.0000000  1.0000000  0.0000000 )
                  (  0.0000000  0.0000000  1.0000000 )


      isym =  2     180 deg rotation - cart. axis [0,1,0]        

 cryst.   s( 2) = (    -1          0          0      )
                  (     0          1          0      )
                  (     0          0         -1      )

 cart.    s( 2) = ( -1.0000000  0.0000000  0.0000000 )
                  (  0.0000000  1.0000000  0.0000000 )
                  (  0.0000000  0.0000000 -1.0000000 )


     point group C_2  (2)   
     there are  2 classes
     the character table:

       E     C2   
A      1.00  1.00
B      1.00 -1.00

     the symmetry operations in each class and the name of the first element:

     E        1
          identity                                               
     C2       2
          180 deg rotation - cart. axis [0,1,0]                  

   Cartesian axes

     site n.     atom                  positions (alat units)
         1        K      tau(   1) = (   0.0000000   0.8559224   0.0000000  )
         2        K      tau(   2) = (   0.5000000   0.0093568   0.0000000  )
         3        Mg     tau(   3) = (  -0.1710407   0.5780843   0.9479482  )
         4        Mg     tau(   4) = (  -0.1710407   1.1543881   0.9479482  )
         5        Mg     tau(   5) = (   0.3289593   0.8562226   0.9479482  )
         6        Mg     tau(   6) = (   0.3289593   1.4480089   0.9479482  )
         7        Mg     tau(   7) = (   0.3289593   0.2986375   0.9479482  )
         8        Si     tau(   8) = (   0.0066674   0.2865251   0.4219393  )
         9        Si     tau(   9) = (   0.6512512   0.2865251   1.4739571  )
        10        Si     tau(  10) = (   0.6701371   1.4476688   1.4628623  )
        11        Si     tau(  11) = (  -0.0122184   1.4476688   0.4330341  )
        12        Si     tau(  12) = (   0.4872056   1.1568454   0.4292651  )
        13        Si     tau(  13) = (   0.1707131   1.1568454   1.4666313  )
        14        Al     tau(  14) = (   0.1506005   0.5746762   1.4713786  )
        15        Al     tau(  15) = (   0.5073182   0.5746762   0.4245178  )
        16        O      tau(  16) = (  -0.0043508   0.2833738   0.7297400  )
        17        O      tau(  17) = (   0.6622695   0.2833738   1.1661564  )
        18        O      tau(  18) = (   0.6658139   1.4451231   1.1576912  )
        19        O      tau(  19) = (  -0.0078952   1.4451231   0.7382052  )
        20        O      tau(  20) = (   0.4926234   1.1618863   0.7357690  )
        21        O      tau(  21) = (   0.1652953   1.1618863   1.1601274  )
        22        O      tau(  22) = (   0.1548298   0.5779784   1.1454267  )
        23        O      tau(  23) = (   0.5030889   0.5779784   0.7504697  )
        24        O      tau(  24) = (   0.2847398   0.3548857   0.3143567  )
        25        O      tau(  25) = (   0.3731789   0.3548857   1.5815397  )
        26        O      tau(  26) = (   0.9404978   1.7303189   0.3181314  )
        27        O      tau(  27) = (  -0.2825791   1.7303189   1.5777650  )
        28        O      tau(  28) = (   0.3988927   1.3439356   1.5754330  )
        29        O      tau(  29) = (   0.2590260   1.3439356   0.3204634  )
        30        O      tau(  30) = (   0.7582660   1.2710892   0.3185125  )
        31        O      tau(  31) = (  -0.1003473   1.2710892   1.5773839  )
        32        O      tau(  32) = (   0.4432368   0.8811364   0.3085875  )
        33        O      tau(  33) = (   0.2146819   0.8811364   1.5873090  )
        34        O      tau(  34) = (  -0.1423236   0.4782556   1.5925436  )
        35        O      tau(  35) = (   0.8002423   0.4782556   0.3033529  )
        36        O      tau(  36) = (  -0.0041068   0.8750247   0.7469263  )
        37        O      tau(  37) = (   0.6620255   0.8750247   1.1489701  )
        38        O      tau(  38) = (   0.4966158   1.7335917   0.7534577  )
        39        O      tau(  39) = (   0.1613029   1.7335917   1.1424387  )
        40        H      tau(  40) = (  -0.0032097   0.8603995   0.5673129  )
        41        H      tau(  41) = (   0.6611284   0.8603995   1.3285835  )
        42        H      tau(  42) = (   0.4926802   0.0219534   0.5746291  )
        43        H      tau(  43) = (   0.1652385   0.0219534   1.3212673  )
        44        Fe     tau(  44) = (  -0.1710407   0.0067712   0.9479482  )

     --------------------------------------------
     DFT-D3 Dispersion Correction (3-body terms):
     --------------------------------------------
       Reference C6 values for interpolation: 

         atom   Coordination number   C6
         H          0.912             6.05
         H          0.000            15.18
         O          0.000            31.01
         O          0.993            25.63
         O          1.989            20.74
         Mg         0.000          1366.75
         Mg         0.963           902.54
         Mg         1.950           351.12
         Al         0.000          1081.08
         Al         0.965           875.51
         Al         1.931           513.50
         Al         2.915           307.19
         Si         0.000           635.71
         Si         0.951           540.53
         Si         1.944           466.25
         Si         2.941           443.01
         Si         3.868           299.55
         K          0.000          9967.00
         K          0.977           676.04
         Fe         0.000           982.67
         Fe         1.648           409.99
         Fe         9.138           219.01

       Values used:

         atom   Coordination number  R0_AB[au]  C6      C8
         K         13.614            4.007    676.04 129074.98
         K         13.806            4.007    676.04 129074.98
         Mg        11.914            3.292    351.12  31436.69
         Mg        11.468            3.292    351.12  31436.69
         Mg        12.069            3.292    351.12  31436.69
         Mg        11.124            3.292    351.12  31436.69
         Mg        11.596            3.292    351.12  31436.69
         Si         6.805            3.583    299.55  21425.58
         Si         6.805            3.583    299.55  21425.58
         Si         6.360            3.583    299.55  21425.58
         Si         6.360            3.583    299.55  21425.58
         Si         6.593            3.583    299.55  21425.58
         Si         6.593            3.583    299.55  21425.58
         Al         7.862            3.789    307.19  29441.29
         Al         7.862            3.789    307.19  29441.29
         O          3.739            2.345     20.74    418.58
         O          3.739            2.345     20.74    418.58
         O          3.682            2.345     20.74    418.58
         O          3.682            2.345     20.74    418.58
         O          3.909            2.345     20.74    418.58
         O          3.909            2.345     20.74    418.58
         O          3.986            2.345     20.74    418.58
         O          3.986            2.345     20.74    418.58
         O          3.191            2.345     20.74    418.58
         O          3.191            2.345     20.74    418.58
         O          3.143            2.345     20.74    418.58
         O          3.143            2.345     20.74    418.58
         O          3.055            2.345     20.74    418.58
         O          3.055            2.345     20.74    418.58
         O          3.058            2.345     20.74    418.58
         O          3.058            2.345     20.74    418.58
         O          3.190            2.345     20.74    418.58
         O          3.190            2.345     20.74    418.58
         O          3.262            2.345     20.74    418.58
         O          3.262            2.345     20.74    418.58
         O          4.005            2.345     20.74    418.58
         O          4.005            2.345     20.74    418.58
         O          3.836            2.345     20.74    418.58
         O          3.836            2.345     20.74    418.58
         H          1.323            2.062      6.07     73.32
         H          1.323            2.062      6.07     73.32
         H          1.274            2.062      6.07     73.39
         H          1.274            2.062      6.07     73.39
         Fe         7.867            3.252    219.01  20487.87

         Molecular C6 ( Ry / a.u.^6 ) =    165305.34


   Crystallographic axes

     site n.     atom                  positions (cryst. coord.)
         1        K      tau(   1) = (  0.0000000  0.4932400  0.0000000  )
         2        K      tau(   2) = (  0.5000000  0.0053920  0.0000000  )
         3        Mg     tau(   3) = (  0.0000000  0.3331310  0.5000000  )
         4        Mg     tau(   4) = (  0.0000000  0.6652360  0.5000000  )
         5        Mg     tau(   5) = (  0.5000000  0.4934130  0.5000000  )
         6        Mg     tau(   6) = (  0.5000000  0.8344400  0.5000000  )
         7        Mg     tau(   7) = (  0.5000000  0.1720950  0.5000000  )
         8        Si     tau(   8) = (  0.0827990  0.1651150  0.2225540  )
         9        Si     tau(   9) = (  0.9172010  0.1651150  0.7774460  )
        10        Si     tau(  10) = (  0.9340850  0.8342440  0.7715940  )
        11        Si     tau(  11) = (  0.0659150  0.8342440  0.2284060  )
        12        Si     tau(  12) = (  0.5646590  0.6666520  0.2264180  )
        13        Si     tau(  13) = (  0.4353410  0.6666520  0.7735820  )
        14        Al     tau(  14) = (  0.4160850  0.3311670  0.7760860  )
        15        Al     tau(  15) = (  0.5839150  0.3311670  0.2239140  )
        16        O      tau(  16) = (  0.1273180  0.1632990  0.3849050  )
        17        O      tau(  17) = (  0.8726820  0.1632990  0.6150950  )
        18        O      tau(  18) = (  0.8746990  0.8327770  0.6106300  )
        19        O      tau(  19) = (  0.1253010  0.8327770  0.3893700  )
        20        O      tau(  20) = (  0.6253800  0.6695570  0.3880850  )
        21        O      tau(  21) = (  0.3746200  0.6695570  0.6119150  )
        22        O      tau(  22) = (  0.3615020  0.3330700  0.6041610  )
        23        O      tau(  23) = (  0.6384980  0.3330700  0.3958390  )
        24        O      tau(  24) = (  0.3414600  0.2045090  0.1658090  )
        25        O      tau(  25) = (  0.6585400  0.2045090  0.8341910  )
        26        O      tau(  26) = (  0.9978990  0.9971260  0.1678000  )
        27        O      tau(  27) = (  0.0021010  0.9971260  0.8322000  )
        28        O      tau(  28) = (  0.6831520  0.7744660  0.8309700  )
        29        O      tau(  29) = (  0.3168480  0.7744660  0.1690300  )
        30        O      tau(  30) = (  0.8157360  0.7324870  0.1680010  )
        31        O      tau(  31) = (  0.1842640  0.7324870  0.8319990  )
        32        O      tau(  32) = (  0.4989160  0.5077700  0.1627660  )
        33        O      tau(  33) = (  0.5010840  0.5077700  0.8372340  )
        34        O      tau(  34) = (  0.1450230  0.2756030  0.8399950  )
        35        O      tau(  35) = (  0.8549770  0.2756030  0.1600050  )
        36        O      tau(  36) = (  0.1306630  0.5042480  0.3939700  )
        37        O      tau(  37) = (  0.8693370  0.5042480  0.6060300  )
        38        O      tau(  38) = (  0.6325640  0.9990120  0.3974150  )
        39        O      tau(  39) = (  0.3674360  0.9990120  0.6025850  )
        40        H      tau(  40) = (  0.0991520  0.4958200  0.2992320  )
        41        H      tau(  41) = (  0.9008480  0.4958200  0.7007680  )
        42        H      tau(  42) = (  0.5963620  0.0126510  0.3030910  )
        43        H      tau(  43) = (  0.4036380  0.0126510  0.6969090  )
        44        Fe     tau(  44) = (  0.0000000  0.0039020  0.5000000  )

     number of k points=    20  Gaussian smearing, width (Ry)=  0.0010
                       cart. coord. in units 2pi/alat
        k(    1) = (   0.0000000   0.0000000   0.0000000), wk =   0.0370370
        k(    2) = (   0.0000000   0.0000000   0.1758183), wk =   0.0740741
        k(    3) = (   0.0000000   0.1920891   0.0000000), wk =   0.0740741
        k(    4) = (   0.0000000   0.1920891   0.1758183), wk =   0.1481481
        k(    5) = (   0.1666667   0.0000000   0.0300721), wk =   0.0740741
        k(    6) = (   0.1666667   0.0000000   0.2058904), wk =   0.0740741
        k(    7) = (   0.1666667   0.0000000  -0.1457462), wk =   0.0740741
        k(    8) = (   0.1666667   0.1920891   0.0300721), wk =   0.1481481
        k(    9) = (   0.1666667   0.1920891   0.2058904), wk =   0.1481481
        k(   10) = (   0.1666667   0.1920891  -0.1457462), wk =   0.1481481
        k(   11) = (   0.3333333   0.0000000   0.0601442), wk =   0.0740741
        k(   12) = (   0.3333333   0.0000000   0.2359625), wk =   0.0740741
        k(   13) = (   0.3333333   0.0000000  -0.1156742), wk =   0.0740741
        k(   14) = (   0.3333333   0.1920891   0.0601442), wk =   0.1481481
        k(   15) = (   0.3333333   0.1920891   0.2359625), wk =   0.1481481
        k(   16) = (   0.3333333   0.1920891  -0.1156742), wk =   0.1481481
        k(   17) = (  -0.5000000   0.0000000  -0.0902162), wk =   0.0370370
        k(   18) = (  -0.5000000   0.0000000   0.0856021), wk =   0.0740741
        k(   19) = (  -0.5000000   0.1920891  -0.0902162), wk =   0.0740741
        k(   20) = (  -0.5000000   0.1920891   0.0856021), wk =   0.1481481

                       cryst. coord.
        k(    1) = (   0.0000000   0.0000000   0.0000000), wk =   0.0370370
        k(    2) = (   0.0000000   0.0000000   0.3333333), wk =   0.0740741
        k(    3) = (   0.0000000   0.3333333   0.0000000), wk =   0.0740741
        k(    4) = (   0.0000000   0.3333333   0.3333333), wk =   0.1481481
        k(    5) = (   0.1666667   0.0000000  -0.0000000), wk =   0.0740741
        k(    6) = (   0.1666667   0.0000000   0.3333333), wk =   0.0740741
        k(    7) = (   0.1666667   0.0000000  -0.3333333), wk =   0.0740741
        k(    8) = (   0.1666667   0.3333333  -0.0000000), wk =   0.1481481
        k(    9) = (   0.1666667   0.3333333   0.3333333), wk =   0.1481481
        k(   10) = (   0.1666667   0.3333333  -0.3333333), wk =   0.1481481
        k(   11) = (   0.3333333   0.0000000  -0.0000000), wk =   0.0740741
        k(   12) = (   0.3333333   0.0000000   0.3333333), wk =   0.0740741
        k(   13) = (   0.3333333   0.0000000  -0.3333333), wk =   0.0740741
        k(   14) = (   0.3333333   0.3333333  -0.0000000), wk =   0.1481481
        k(   15) = (   0.3333333   0.3333333   0.3333333), wk =   0.1481481
        k(   16) = (   0.3333333   0.3333333  -0.3333333), wk =   0.1481481
        k(   17) = (  -0.5000000   0.0000000   0.0000000), wk =   0.0370370
        k(   18) = (  -0.5000000   0.0000000   0.3333333), wk =   0.0740741
        k(   19) = (  -0.5000000   0.3333333   0.0000000), wk =   0.0740741
        k(   20) = (  -0.5000000   0.3333333   0.3333333), wk =   0.1481481

     Dense  grid:   586467 G-vectors     FFT dimensions: (  72, 125, 135)

     Smooth grid:   207475 G-vectors     FFT dimensions: (  50,  90,  96)

     Dynamical RAM for                 wfc:      10.35 MB

     Dynamical RAM for     wfc (w. buffer):     217.38 MB

     Dynamical RAM for           str. fact:      10.44 MB

     Dynamical RAM for           local pot:       0.00 MB

     Dynamical RAM for          nlocal pot:      28.88 MB

     Dynamical RAM for                qrad:      12.30 MB

     Dynamical RAM for          rho,v,vnew:       9.21 MB

     Dynamical RAM for               rhoin:       3.07 MB

     Dynamical RAM for            rho*nmix:      23.86 MB

     Dynamical RAM for           G-vectors:       5.86 MB

     Dynamical RAM for          h,s,v(r/c):       1.13 MB

     Dynamical RAM for          <psi|beta>:       1.05 MB

     Dynamical RAM for                 psi:      20.70 MB

     Dynamical RAM for                hpsi:      20.70 MB

     Dynamical RAM for                spsi:      20.70 MB

     Dynamical RAM for      wfcinit/wfcrot:      24.90 MB

     Dynamical RAM for           addusdens:     313.21 MB

     Dynamical RAM for          addusforce:     382.66 MB

     Dynamical RAM for         addusstress:     299.79 MB

     Estimated static dynamical RAM per process >     306.97 MB

     Estimated max dynamical RAM per process >     713.49 MB

     Estimated total dynamical RAM >       4.18 GB

     Check: negative core charge=   -0.000004

     Initial potential from superposition of free atoms

     starting charge     261.9493, renormalised to     262.0000
     Starting wfcs are  183 randomized atomic wfcs
     Checking if some PAW data can be deallocated... 
       PAW data deallocated on    5 nodes for type:  1
       PAW data deallocated on    5 nodes for type:  2
       PAW data deallocated on    5 nodes for type:  3
       PAW data deallocated on    5 nodes for type:  4
       PAW data deallocated on    5 nodes for type:  5
       PAW data deallocated on    1 nodes for type:  6
       PAW data deallocated on    4 nodes for type:  7

     total cpu time spent up to now is      107.3 secs

     Self-consistent Calculation

     iteration #  1     ecut=    60.00 Ry     beta= 0.70
     Davidson diagonalization with overlap

---- Real-time Memory Report at c_bands before calling an iterative solver
           405 MiB given to the printing process from OS
             0 MiB allocation reported by mallinfo(arena+hblkhd)
          2451 MiB available memory on the node where the printing process lives
------------------
     ethr =  1.00E-02,  avg # of iterations =  5.9

     total cpu time spent up to now is      384.1 secs

     total energy              =   -2623.77617392 Ry
     estimated scf accuracy    <      12.28556029 Ry

     iteration #  2     ecut=    60.00 Ry     beta= 0.70
     Davidson diagonalization with overlap

---- Real-time Memory Report at c_bands before calling an iterative solver
           654 MiB given to the printing process from OS
             0 MiB allocation reported by mallinfo(arena+hblkhd)
          1444 MiB available memory on the node where the printing process lives
------------------
     ethr =  4.69E-03,  avg # of iterations =  5.3

     total cpu time spent up to now is      827.1 secs

     total energy              =   -2629.07737266 Ry
     estimated scf accuracy    <      11.35766717 Ry

     iteration #  3     ecut=    60.00 Ry     beta= 0.70
     Davidson diagonalization with overlap

---- Real-time Memory Report at c_bands before calling an iterative solver
           655 MiB given to the printing process from OS
             0 MiB allocation reported by mallinfo(arena+hblkhd)
          1292 MiB available memory on the node where the printing process lives
------------------
     ethr =  4.33E-03,  avg # of iterations =  2.0

     total cpu time spent up to now is     1056.2 secs

     total energy              =   -2629.89065994 Ry
     estimated scf accuracy    <       3.53950917 Ry

     iteration #  4     ecut=    60.00 Ry     beta= 0.70
     Davidson diagonalization with overlap

---- Real-time Memory Report at c_bands before calling an iterative solver
           656 MiB given to the printing process from OS
             0 MiB allocation reported by mallinfo(arena+hblkhd)
          1423 MiB available memory on the node where the printing process lives
------------------
     ethr =  1.35E-03,  avg # of iterations =  4.5

     total cpu time spent up to now is     1301.0 secs

     total energy              =   -2630.69496789 Ry
     estimated scf accuracy    <       0.54544044 Ry

     iteration #  5     ecut=    60.00 Ry     beta= 0.70
     Davidson diagonalization with overlap

---- Real-time Memory Report at c_bands before calling an iterative solver
           657 MiB given to the printing process from OS
             0 MiB allocation reported by mallinfo(arena+hblkhd)
          1512 MiB available memory on the node where the printing process lives
------------------
     c_bands:  2 eigenvalues not converged
     c_bands:  2 eigenvalues not converged
     ethr =  2.08E-04,  avg # of iterations = 14.1

     total cpu time spent up to now is     1731.1 secs

     total energy              =   -2631.16963378 Ry
     estimated scf accuracy    <       0.13159957 Ry

     iteration #  6     ecut=    60.00 Ry     beta= 0.70
     Davidson diagonalization with overlap

---- Real-time Memory Report at c_bands before calling an iterative solver
           658 MiB given to the printing process from OS
             0 MiB allocation reported by mallinfo(arena+hblkhd)
          1594 MiB available memory on the node where the printing process lives
------------------
     c_bands:  1 eigenvalues not converged
     c_bands:  1 eigenvalues not converged
     c_bands:  4 eigenvalues not converged
     ethr =  5.02E-05,  avg # of iterations = 13.6

     total cpu time spent up to now is     2049.5 secs

     total energy              =   -2631.17351929 Ry
     estimated scf accuracy    <       0.05208583 Ry

     iteration #  7     ecut=    60.00 Ry     beta= 0.70
     Davidson diagonalization with overlap

---- Real-time Memory Report at c_bands before calling an iterative solver
           660 MiB given to the printing process from OS
             0 MiB allocation reported by mallinfo(arena+hblkhd)
          1342 MiB available memory on the node where the printing process lives
------------------
     c_bands:  1 eigenvalues not converged
     c_bands:  1 eigenvalues not converged
     ethr =  1.99E-05,  avg # of iterations =  8.1

     total cpu time spent up to now is     2342.2 secs

     total energy              =   -2631.17701319 Ry
     estimated scf accuracy    <       0.01423329 Ry

     iteration #  8     ecut=    60.00 Ry     beta= 0.70
     Davidson diagonalization with overlap

---- Real-time Memory Report at c_bands before calling an iterative solver
           661 MiB given to the printing process from OS
             0 MiB allocation reported by mallinfo(arena+hblkhd)
          1325 MiB available memory on the node where the printing process lives
------------------
     c_bands:  1 eigenvalues not converged
     c_bands:  1 eigenvalues not converged
     c_bands:  2 eigenvalues not converged
     ethr =  5.43E-06,  avg # of iterations = 10.7

     total cpu time spent up to now is     2780.2 secs

     total energy              =   -2631.18340958 Ry
     estimated scf accuracy    <       0.00125820 Ry

     iteration #  9     ecut=    60.00 Ry     beta= 0.70
     Davidson diagonalization with overlap

---- Real-time Memory Report at c_bands before calling an iterative solver
           662 MiB given to the printing process from OS
             0 MiB allocation reported by mallinfo(arena+hblkhd)
          1687 MiB available memory on the node where the printing process lives
------------------
     c_bands:  1 eigenvalues not converged
     c_bands:  1 eigenvalues not converged
     c_bands:  1 eigenvalues not converged
     c_bands:  2 eigenvalues not converged
     c_bands:  1 eigenvalues not converged
     c_bands:  1 eigenvalues not converged
     ethr =  4.80E-07,  avg # of iterations = 13.7

     total cpu time spent up to now is     3222.1 secs

     total energy              =   -2631.18447569 Ry
     estimated scf accuracy    <       0.00073378 Ry

     iteration # 10     ecut=    60.00 Ry     beta= 0.70
     Davidson diagonalization with overlap

---- Real-time Memory Report at c_bands before calling an iterative solver
           663 MiB given to the printing process from OS
             0 MiB allocation reported by mallinfo(arena+hblkhd)
          1443 MiB available memory on the node where the printing process lives
------------------
     c_bands:  1 eigenvalues not converged
     c_bands:  1 eigenvalues not converged
     c_bands:  2 eigenvalues not converged
     ethr =  2.80E-07,  avg # of iterations =  5.0

     total cpu time spent up to now is     3438.2 secs

     total energy              =   -2631.18449667 Ry
     estimated scf accuracy    <       0.00014049 Ry

     iteration # 11     ecut=    60.00 Ry     beta= 0.70
     Davidson diagonalization with overlap

---- Real-time Memory Report at c_bands before calling an iterative solver
           663 MiB given to the printing process from OS
             0 MiB allocation reported by mallinfo(arena+hblkhd)
          1836 MiB available memory on the node where the printing process lives
------------------
     c_bands:  1 eigenvalues not converged
     ethr =  5.36E-08,  avg # of iterations =  8.1

     total cpu time spent up to now is     3831.2 secs

     total energy              =   -2631.18457887 Ry
     estimated scf accuracy    <       0.00008475 Ry

     iteration # 12     ecut=    60.00 Ry     beta= 0.70
     Davidson diagonalization with overlap

---- Real-time Memory Report at c_bands before calling an iterative solver
           663 MiB given to the printing process from OS
             0 MiB allocation reported by mallinfo(arena+hblkhd)
          1756 MiB available memory on the node where the printing process lives
------------------
     c_bands:  3 eigenvalues not converged
     ethr =  3.23E-08,  avg # of iterations =  3.0

     total cpu time spent up to now is     4067.1 secs

     total energy              =   -2631.18457987 Ry
     estimated scf accuracy    <       0.00003128 Ry

     iteration # 13     ecut=    60.00 Ry     beta= 0.70
     Davidson diagonalization with overlap

---- Real-time Memory Report at c_bands before calling an iterative solver
           663 MiB given to the printing process from OS
             0 MiB allocation reported by mallinfo(arena+hblkhd)
          1538 MiB available memory on the node where the printing process lives
------------------
     c_bands:  1 eigenvalues not converged
     ethr =  1.19E-08,  avg # of iterations =  5.0

     total cpu time spent up to now is     4337.1 secs

     total energy              =   -2631.18458477 Ry
     estimated scf accuracy    <       0.00000765 Ry

     iteration # 14     ecut=    60.00 Ry     beta= 0.70
     Davidson diagonalization with overlap

---- Real-time Memory Report at c_bands before calling an iterative solver
           663 MiB given to the printing process from OS
             0 MiB allocation reported by mallinfo(arena+hblkhd)
          1418 MiB available memory on the node where the printing process lives
------------------
     ethr =  2.92E-09,  avg # of iterations =  6.4

     total cpu time spent up to now is     4699.2 secs

     End of self-consistent calculation

          k = 0.0000 0.0000 0.0000 ( 25927 PWs)   bands (ev):

   -78.5754 -67.5135 -67.4883 -67.0478 -66.9347 -66.9061 -44.7170 -44.7013
   -44.6332 -34.2813 -34.2649 -34.2594 -34.2495 -34.2375 -34.2269 -33.8052
   -33.7989 -33.7977 -33.7045 -33.7037 -33.6791 -33.6602 -33.6466 -33.6404
   -23.0629 -23.0538 -15.1031 -15.0500 -14.1449 -14.0977 -13.6540 -13.6307
   -13.4147 -13.3102 -13.3006 -13.1040 -12.9398 -12.8525 -12.8456 -12.8302
   -12.7902 -12.6751 -12.4694 -12.3899 -12.3159 -12.2955 -12.2573 -12.1375
   -11.0233 -10.7763  -6.6364  -6.6145  -6.5559  -6.5522  -6.5299  -6.5262
    -4.3019  -4.2467  -2.4306  -2.3342  -1.8256  -1.3629  -1.1617  -1.1613
    -1.1108  -1.0214  -0.6503  -0.5582  -0.4693  -0.4033  -0.3791  -0.1652
     0.0138   0.1384   0.2642   0.3992   0.5584   0.5765   0.6925   0.8562
     0.8700   1.1490   1.3166   1.3383   1.4090   1.5409   1.5590   1.6570
     1.8110   1.8685   1.9694   2.0819   2.0986   2.1958   2.2159   2.3196
     2.4371   2.4841   2.5117   2.6352   2.6956   2.7175   2.7723   2.8631
     2.8799   3.0122   3.0220   3.0428   3.1574   3.2186   3.2978   3.3696
     3.4454   3.4503   3.5411   3.6030   3.6605   3.7293   3.7909   3.8144
     3.8977   3.9220   3.9482   4.1182   4.1767   4.3262   4.5055   4.6317
     7.6000   7.6663   7.8263   8.9282   9.1409   9.1842  10.6451  11.2870
    11.5919  11.9362  12.1286  12.2753  12.5872  12.6945  13.0328  13.0564
    13.1459  13.3268  13.3348  13.5724  13.6597  13.6799  13.8280  13.8554
    13.8581  14.0633  14.1931  14.2358  14.3818

     occupation numbers 
     1.0000   1.0000   1.0000   1.0000   1.0000   1.0000   1.0000   1.0000
     1.0000   1.0000   1.0000   1.0000   1.0000   1.0000   1.0000   1.0000
     1.0000   1.0000   1.0000   1.0000   1.0000   1.0000   1.0000   1.0000
     1.0000   1.0000   1.0000   1.0000   1.0000   1.0000   1.0000   1.0000
     1.0000   1.0000   1.0000   1.0000   1.0000   1.0000   1.0000   1.0000
     1.0000   1.0000   1.0000   1.0000   1.0000   1.0000   1.0000   1.0000
     1.0000   1.0000   1.0000   1.0000   1.0000   1.0000   1.0000   1.0000
     1.0000   1.0000   1.0000   1.0000   1.0000   1.0000   1.0000   1.0000
     1.0000   1.0000   1.0000   1.0000   1.0000   1.0000   1.0000   1.0000
     1.0000   1.0000   1.0000   1.0000   1.0000   1.0000   1.0000   1.0000
     1.0000   1.0000   1.0000   1.0000   1.0000   1.0000   1.0000   1.0000
     1.0000   1.0000   1.0000   1.0000   1.0000   1.0000   1.0000   1.0000
     1.0000   1.0000   1.0000   1.0000   1.0000   1.0000   1.0000   1.0000
     1.0000   1.0000   1.0000   1.0000   1.0000   1.0000   1.0000   1.0000
     1.0000   1.0000   1.0000   1.0000   1.0000   1.0000   1.0000   1.0000
     1.0000   1.0000   1.0000   1.0000   1.0000   1.0000   1.0000   1.0000
     1.0000   1.0000   1.0000   0.0000   0.0000   0.0000   0.0000   0.0000
     0.0000   0.0000   0.0000   0.0000   0.0000   0.0000   0.0000   0.0000
     0.0000   0.0000   0.0000   0.0000   0.0000   0.0000   0.0000   0.0000
     0.0000   0.0000   0.0000   0.0000   0.0000

          k = 0.0000 0.0000 0.1758 ( 25971 PWs)   bands (ev):

   -78.5755 -67.5135 -67.4883 -67.0478 -66.9347 -66.9061 -44.7170 -44.7013
   -44.6332 -34.2813 -34.2649 -34.2594 -34.2495 -34.2375 -34.2269 -33.8052
   -33.7990 -33.7977 -33.7046 -33.7037 -33.6791 -33.6603 -33.6466 -33.6404
   -23.0629 -23.0538 -15.0903 -15.0636 -14.1336 -14.1097 -13.6545 -13.6301
   -13.4037 -13.3306 -13.2923 -13.1000 -12.9404 -12.8549 -12.8484 -12.8278
   -12.7846 -12.6797 -12.4627 -12.3961 -12.3209 -12.2863 -12.2540 -12.1445
   -11.0230 -10.7770  -6.6365  -6.6145  -6.5559  -6.5521  -6.5298  -6.5262
    -4.3000  -4.2489  -2.4082  -2.3601  -1.7953  -1.3463  -1.1832  -1.1363
    -1.1045  -1.0462  -0.6220  -0.5711  -0.5033  -0.3873  -0.3703  -0.2677
     0.0450   0.1610   0.2122   0.3341   0.5513   0.5627   0.7196   0.8680
     0.9187   1.2355   1.2499   1.3599   1.4512   1.4841   1.5919   1.7199
     1.8315   1.8671   2.0659   2.0916   2.1135   2.1976   2.2583   2.3005
     2.3868   2.4334   2.5047   2.5764   2.6312   2.7386   2.7521   2.8409
     2.8495   3.0231   3.0690   3.0998   3.1132   3.1770   3.2809   3.3880
     3.4202   3.4491   3.5712   3.6495   3.6749   3.7422   3.7547   3.8102
     3.8706   3.9041   3.9316   4.1506   4.1824   4.3186   4.5047   4.6369
     7.6011   7.6661   7.8254   8.9156   9.1871   9.4506  10.1794  11.3457
    11.6544  11.8192  12.1454  12.2035  12.6955  12.9106  12.9981  13.1287
    13.2383  13.2759  13.3686  13.5022  13.5423  13.7074  13.8158  13.8372
    13.9486  14.0509  14.1509  14.2595  14.2844

     occupation numbers 
     1.0000   1.0000   1.0000   1.0000   1.0000   1.0000   1.0000   1.0000
     1.0000   1.0000   1.0000   1.0000   1.0000   1.0000   1.0000   1.0000
     1.0000   1.0000   1.0000   1.0000   1.0000   1.0000   1.0000   1.0000
     1.0000   1.0000   1.0000   1.0000   1.0000   1.0000   1.0000   1.0000
     1.0000   1.0000   1.0000   1.0000   1.0000   1.0000   1.0000   1.0000
     1.0000   1.0000   1.0000   1.0000   1.0000   1.0000   1.0000   1.0000
     1.0000   1.0000   1.0000   1.0000   1.0000   1.0000   1.0000   1.0000
     1.0000   1.0000   1.0000   1.0000   1.0000   1.0000   1.0000   1.0000
     1.0000   1.0000   1.0000   1.0000   1.0000   1.0000   1.0000   1.0000
     1.0000   1.0000   1.0000   1.0000   1.0000   1.0000   1.0000   1.0000
     1.0000   1.0000   1.0000   1.0000   1.0000   1.0000   1.0000   1.0000
     1.0000   1.0000   1.0000   1.0000   1.0000   1.0000   1.0000   1.0000
     1.0000   1.0000   1.0000   1.0000   1.0000   1.0000   1.0000   1.0000
     1.0000   1.0000   1.0000   1.0000   1.0000   1.0000   1.0000   1.0000
     1.0000   1.0000   1.0000   1.0000   1.0000   1.0000   1.0000   1.0000
     1.0000   1.0000   1.0000   1.0000   1.0000   1.0000   1.0000   1.0000
     1.0000   1.0000   1.0000   0.0000   0.0000   0.0000   0.0000   0.0000
     0.0000   0.0000   0.0000   0.0000   0.0000   0.0000   0.0000   0.0000
     0.0000   0.0000   0.0000   0.0000   0.0000   0.0000   0.0000   0.0000
     0.0000   0.0000   0.0000   0.0000   0.0000

          k = 0.0000 0.1921 0.0000 ( 25933 PWs)   bands (ev):

   -78.5754 -67.5135 -67.4883 -67.0478 -66.9347 -66.9061 -44.7170 -44.7013
   -44.6332 -34.2813 -34.2649 -34.2594 -34.2495 -34.2375 -34.2269 -33.8052
   -33.7989 -33.7977 -33.7045 -33.7037 -33.6791 -33.6602 -33.6466 -33.6404
   -23.0629 -23.0539 -15.0982 -15.0451 -14.1793 -14.1290 -13.6541 -13.6308
   -13.3432 -13.2668 -13.2053 -13.1192 -12.9579 -12.9267 -12.9211 -12.8309
   -12.7911 -12.6694 -12.4642 -12.3855 -12.3155 -12.2938 -12.2503 -12.1349
   -11.0221 -10.7758  -6.6315  -6.6197  -6.5552  -6.5494  -6.5323  -6.5272
    -4.2624  -4.2061  -2.5764  -2.4741  -1.7811  -1.3904  -1.1046  -1.0989
    -1.0045  -0.9427  -0.7523  -0.6337  -0.4717  -0.3112  -0.2835  -0.1588
    -0.0803   0.1800   0.2204   0.4239   0.5127   0.5298   0.6937   0.8576
     0.8928   1.1474   1.2160   1.3179   1.4024   1.5441   1.5835   1.7027
     1.8746   1.9354   1.9574   2.0700   2.1452   2.2208   2.3154   2.3652
     2.4082   2.4799   2.5198   2.5454   2.6170   2.7176   2.8639   2.8705
     2.9035   2.9887   3.0496   3.0831   3.1899   3.2222   3.3150   3.3817
     3.4114   3.4554   3.4651   3.5991   3.6413   3.6715   3.7746   3.8417
     3.9139   3.9180   3.9318   4.1046   4.1861   4.2931   4.3211   4.6268
     7.6051   7.6713   7.8265   8.9019   9.1834   9.5446  10.4888  10.8848
    11.4872  11.8483  12.2791  12.5862  12.6161  12.8399  12.9396  13.0810
    13.1933  13.3306  13.3604  13.5164  13.5290  13.6683  13.7461  13.8141
    13.8273  13.8647  14.2849  14.3781  14.4833

     occupation numbers 
     1.0000   1.0000   1.0000   1.0000   1.0000   1.0000   1.0000   1.0000
     1.0000   1.0000   1.0000   1.0000   1.0000   1.0000   1.0000   1.0000
     1.0000   1.0000   1.0000   1.0000   1.0000   1.0000   1.0000   1.0000
     1.0000   1.0000   1.0000   1.0000   1.0000   1.0000   1.0000   1.0000
     1.0000   1.0000   1.0000   1.0000   1.0000   1.0000   1.0000   1.0000
     1.0000   1.0000   1.0000   1.0000   1.0000   1.0000   1.0000   1.0000
     1.0000   1.0000   1.0000   1.0000   1.0000   1.0000   1.0000   1.0000
     1.0000   1.0000   1.0000   1.0000   1.0000   1.0000   1.0000   1.0000
     1.0000   1.0000   1.0000   1.0000   1.0000   1.0000   1.0000   1.0000
     1.0000   1.0000   1.0000   1.0000   1.0000   1.0000   1.0000   1.0000
     1.0000   1.0000   1.0000   1.0000   1.0000   1.0000   1.0000   1.0000
     1.0000   1.0000   1.0000   1.0000   1.0000   1.0000   1.0000   1.0000
     1.0000   1.0000   1.0000   1.0000   1.0000   1.0000   1.0000   1.0000
     1.0000   1.0000   1.0000   1.0000   1.0000   1.0000   1.0000   1.0000
     1.0000   1.0000   1.0000   1.0000   1.0000   1.0000   1.0000   1.0000
     1.0000   1.0000   1.0000   1.0000   1.0000   1.0000   1.0000   1.0000
     1.0000   1.0000   1.0000   0.0000   0.0000   0.0000   0.0000   0.0000
     0.0000   0.0000   0.0000   0.0000   0.0000   0.0000   0.0000   0.0000
     0.0000   0.0000   0.0000   0.0000   0.0000   0.0000   0.0000   0.0000
     0.0000   0.0000   0.0000   0.0000   0.0000

          k = 0.0000 0.1921 0.1758 ( 25924 PWs)   bands (ev):

   -78.5754 -67.5134 -67.4883 -67.0478 -66.9347 -66.9061 -44.7170 -44.7013
   -44.6332 -34.2813 -34.2649 -34.2594 -34.2495 -34.2375 -34.2269 -33.8052
   -33.7989 -33.7977 -33.7045 -33.7037 -33.6791 -33.6602 -33.6466 -33.6404
   -23.0629 -23.0539 -15.0854 -15.0588 -14.1672 -14.1419 -13.6547 -13.6302
   -13.3383 -13.2574 -13.2234 -13.1103 -12.9694 -12.9315 -12.9052 -12.8338
   -12.7872 -12.6743 -12.4582 -12.3915 -12.3204 -12.2858 -12.2457 -12.1418
   -11.0218 -10.7764  -6.6315  -6.6198  -6.5552  -6.5493  -6.5322  -6.5272
    -4.2576  -4.2112  -2.5537  -2.4991  -1.7553  -1.3773  -1.1030  -1.0967
    -0.9947  -0.9587  -0.7270  -0.6621  -0.4869  -0.3297  -0.2795  -0.2276
    -0.0369   0.1456   0.1903   0.3896   0.5108   0.5154   0.7388   0.8415
     0.9510   1.1244   1.1981   1.3642   1.4631   1.5412   1.6714   1.7452
     1.8762   1.9214   1.9986   2.0475   2.1274   2.2472   2.3031   2.3533
     2.4105   2.4684   2.5083   2.5230   2.5666   2.7483   2.7902   2.8582
     2.9032   2.9619   3.0672   3.1037   3.1610   3.2174   3.3417   3.3537
     3.4004   3.4336   3.5211   3.5943   3.6386   3.7026   3.7607   3.8340
     3.8820   3.9089   3.9356   4.1096   4.1935   4.2958   4.3418   4.6326
     7.6066   7.6710   7.8248   8.8826   9.1908   9.8150  10.4714  10.6767
    11.1979  11.8253  12.2536  12.6244  12.7195  12.9076  13.0959  13.1766
    13.2411  13.3300  13.4407  13.4797  13.6110  13.6295  13.6762  13.7792
    13.8276  13.9967  14.2522  14.3014  14.4254

     occupation numbers 
     1.0000   1.0000   1.0000   1.0000   1.0000   1.0000   1.0000   1.0000
     1.0000   1.0000   1.0000   1.0000   1.0000   1.0000   1.0000   1.0000
     1.0000   1.0000   1.0000   1.0000   1.0000   1.0000   1.0000   1.0000
     1.0000   1.0000   1.0000   1.0000   1.0000   1.0000   1.0000   1.0000
     1.0000   1.0000   1.0000   1.0000   1.0000   1.0000   1.0000   1.0000
     1.0000   1.0000   1.0000   1.0000   1.0000   1.0000   1.0000   1.0000
     1.0000   1.0000   1.0000   1.0000   1.0000   1.0000   1.0000   1.0000
     1.0000   1.0000   1.0000   1.0000   1.0000   1.0000   1.0000   1.0000
     1.0000   1.0000   1.0000   1.0000   1.0000   1.0000   1.0000   1.0000
     1.0000   1.0000   1.0000   1.0000   1.0000   1.0000   1.0000   1.0000
     1.0000   1.0000   1.0000   1.0000   1.0000   1.0000   1.0000   1.0000
     1.0000   1.0000   1.0000   1.0000   1.0000   1.0000   1.0000   1.0000
     1.0000   1.0000   1.0000   1.0000   1.0000   1.0000   1.0000   1.0000
     1.0000   1.0000   1.0000   1.0000   1.0000   1.0000   1.0000   1.0000
     1.0000   1.0000   1.0000   1.0000   1.0000   1.0000   1.0000   1.0000
     1.0000   1.0000   1.0000   1.0000   1.0000   1.0000   1.0000   1.0000
     1.0000   1.0000   1.0000   0.0000   0.0000   0.0000   0.0000   0.0000
     0.0000   0.0000   0.0000   0.0000   0.0000   0.0000   0.0000   0.0000
     0.0000   0.0000   0.0000   0.0000   0.0000   0.0000   0.0000   0.0000
     0.0000   0.0000   0.0000   0.0000   0.0000

          k = 0.1667 0.0000 0.0301 ( 25941 PWs)   bands (ev):

   -78.5754 -67.5134 -67.4883 -67.0478 -66.9347 -66.9061 -44.7170 -44.7013
   -44.6332 -34.2808 -34.2660 -34.2584 -34.2501 -34.2371 -34.2270 -33.8051
   -33.7991 -33.7977 -33.7055 -33.7027 -33.6788 -33.6600 -33.6470 -33.6407
   -23.0628 -23.0537 -15.0441 -14.9922 -14.1642 -14.1204 -13.7666 -13.7362
   -13.3519 -13.2650 -13.2242 -13.0876 -12.9514 -12.8827 -12.8361 -12.8270
   -12.7801 -12.6836 -12.4882 -12.4156 -12.3777 -12.3209 -12.2386 -12.1244
   -11.0198 -10.7814  -6.6363  -6.6186  -6.5545  -6.5502  -6.5302  -6.5231
    -4.1440  -4.0855  -2.3944  -2.2989  -1.8252  -1.4537  -1.4298  -1.3037
    -0.8960  -0.8213  -0.6607  -0.6350  -0.4511  -0.3927  -0.3419  -0.1632
     0.0253   0.1438   0.2395   0.3857   0.5075   0.6087   0.6408   0.7402
     1.0667   1.1680   1.2756   1.3389   1.3713   1.4846   1.5306   1.6336
     1.7343   1.9139   1.9217   2.0143   2.0789   2.2774   2.3065   2.3600
     2.3851   2.5072   2.5621   2.6269   2.6803   2.7072   2.7220   2.8645
     2.9170   2.9540   3.0243   3.1037   3.1917   3.2147   3.2766   3.3356
     3.3990   3.4085   3.5601   3.6193   3.6575   3.7129   3.7304   3.8192
     3.8611   3.8831   3.9440   4.0448   4.1335   4.3341   4.4944   4.5465
     7.6042   7.6641   7.8041   8.9348   9.1687   9.4686  10.8284  11.3521
    11.7211  11.9849  12.1448  12.4349  12.5586  12.8233  12.9447  13.0449
    13.1654  13.2891  13.3169  13.5641  13.6151  13.6534  13.7434  13.8334
    13.8730  14.1416  14.1973  14.2576  14.3655

     occupation numbers 
     1.0000   1.0000   1.0000   1.0000   1.0000   1.0000   1.0000   1.0000
     1.0000   1.0000   1.0000   1.0000   1.0000   1.0000   1.0000   1.0000
     1.0000   1.0000   1.0000   1.0000   1.0000   1.0000   1.0000   1.0000
     1.0000   1.0000   1.0000   1.0000   1.0000   1.0000   1.0000   1.0000
     1.0000   1.0000   1.0000   1.0000   1.0000   1.0000   1.0000   1.0000
     1.0000   1.0000   1.0000   1.0000   1.0000   1.0000   1.0000   1.0000
     1.0000   1.0000   1.0000   1.0000   1.0000   1.0000   1.0000   1.0000
     1.0000   1.0000   1.0000   1.0000   1.0000   1.0000   1.0000   1.0000
     1.0000   1.0000   1.0000   1.0000   1.0000   1.0000   1.0000   1.0000
     1.0000   1.0000   1.0000   1.0000   1.0000   1.0000   1.0000   1.0000
     1.0000   1.0000   1.0000   1.0000   1.0000   1.0000   1.0000   1.0000
     1.0000   1.0000   1.0000   1.0000   1.0000   1.0000   1.0000   1.0000
     1.0000   1.0000   1.0000   1.0000   1.0000   1.0000   1.0000   1.0000
     1.0000   1.0000   1.0000   1.0000   1.0000   1.0000   1.0000   1.0000
     1.0000   1.0000   1.0000   1.0000   1.0000   1.0000   1.0000   1.0000
     1.0000   1.0000   1.0000   1.0000   1.0000   1.0000   1.0000   1.0000
     1.0000   1.0000   1.0000   0.0000   0.0000   0.0000   0.0000   0.0000
     0.0000   0.0000   0.0000   0.0000   0.0000   0.0000   0.0000   0.0000
     0.0000   0.0000   0.0000   0.0000   0.0000   0.0000   0.0000   0.0000
     0.0000   0.0000   0.0000   0.0000   0.0000

          k = 0.1667 0.0000 0.2059 ( 25961 PWs)   bands (ev):

   -78.5755 -67.5134 -67.4883 -67.0478 -66.9347 -66.9061 -44.7170 -44.7013
   -44.6332 -34.2808 -34.2661 -34.2584 -34.2501 -34.2371 -34.2270 -33.8051
   -33.7991 -33.7977 -33.7055 -33.7027 -33.6788 -33.6600 -33.6470 -33.6407
   -23.0628 -23.0537 -15.0280 -15.0092 -14.1543 -14.1308 -13.7632 -13.7398
   -13.3425 -13.2703 -13.2302 -13.0826 -12.9515 -12.8790 -12.8523 -12.8166
   -12.7756 -12.6882 -12.4814 -12.4268 -12.3660 -12.3288 -12.2284 -12.1333
   -11.0193 -10.7822  -6.6364  -6.6186  -6.5545  -6.5502  -6.5301  -6.5231
    -4.1471  -4.0826  -2.3749  -2.3226  -1.7920  -1.4929  -1.3972  -1.2896
    -0.8941  -0.8255  -0.6645  -0.6274  -0.4550  -0.3723  -0.3564  -0.2692
     0.0690   0.1787   0.1832   0.3145   0.4906   0.6065   0.6183   0.8000
     1.1180   1.2028   1.2475   1.3640   1.3759   1.4777   1.5853   1.6314
     1.8024   1.8828   1.9663   1.9954   2.1678   2.2718   2.3216   2.3459
     2.3971   2.4761   2.5037   2.5441   2.6354   2.7059   2.7554   2.8339
     2.9078   2.9411   3.0774   3.1392   3.1560   3.1974   3.2365   3.3313
     3.3770   3.4375   3.5440   3.6352   3.6683   3.7140   3.7529   3.8211
     3.8463   3.8743   3.9112   4.0845   4.1499   4.3108   4.4967   4.5667
     7.6050   7.6634   7.8035   8.9240   9.1624   9.8363  10.3027  11.4024
    11.7649  11.8894  12.1872  12.3368  12.5230  12.8537  13.0755  13.2108
    13.2622  13.3560  13.3980  13.4303  13.5793  13.6922  13.7508  13.8437
    13.8854  13.9572  14.0923  14.3310  14.3850

     occupation numbers 
     1.0000   1.0000   1.0000   1.0000   1.0000   1.0000   1.0000   1.0000
     1.0000   1.0000   1.0000   1.0000   1.0000   1.0000   1.0000   1.0000
     1.0000   1.0000   1.0000   1.0000   1.0000   1.0000   1.0000   1.0000
     1.0000   1.0000   1.0000   1.0000   1.0000   1.0000   1.0000   1.0000
     1.0000   1.0000   1.0000   1.0000   1.0000   1.0000   1.0000   1.0000
     1.0000   1.0000   1.0000   1.0000   1.0000   1.0000   1.0000   1.0000
     1.0000   1.0000   1.0000   1.0000   1.0000   1.0000   1.0000   1.0000
     1.0000   1.0000   1.0000   1.0000   1.0000   1.0000   1.0000   1.0000
     1.0000   1.0000   1.0000   1.0000   1.0000   1.0000   1.0000   1.0000
     1.0000   1.0000   1.0000   1.0000   1.0000   1.0000   1.0000   1.0000
     1.0000   1.0000   1.0000   1.0000   1.0000   1.0000   1.0000   1.0000
     1.0000   1.0000   1.0000   1.0000   1.0000   1.0000   1.0000   1.0000
     1.0000   1.0000   1.0000   1.0000   1.0000   1.0000   1.0000   1.0000
     1.0000   1.0000   1.0000   1.0000   1.0000   1.0000   1.0000   1.0000
     1.0000   1.0000   1.0000   1.0000   1.0000   1.0000   1.0000   1.0000
     1.0000   1.0000   1.0000   1.0000   1.0000   1.0000   1.0000   1.0000
     1.0000   1.0000   1.0000   0.0000   0.0000   0.0000   0.0000   0.0000
     0.0000   0.0000   0.0000   0.0000   0.0000   0.0000   0.0000   0.0000
     0.0000   0.0000   0.0000   0.0000   0.0000   0.0000   0.0000   0.0000
     0.0000   0.0000   0.0000   0.0000   0.0000

          k = 0.1667 0.0000-0.1457 ( 25956 PWs)   bands (ev):

   -78.5755 -67.5134 -67.4883 -67.0478 -66.9347 -66.9061 -44.7170 -44.7013
   -44.6332 -34.2808 -34.2660 -34.2585 -34.2501 -34.2371 -34.2270 -33.8051
   -33.7991 -33.7977 -33.7055 -33.7027 -33.6787 -33.6600 -33.6470 -33.6407
   -23.0628 -23.0537 -15.0351 -15.0019 -14.1553 -14.1298 -13.7622 -13.7408
   -13.3469 -13.2531 -13.2436 -13.0837 -12.9511 -12.8782 -12.8503 -12.8157
   -12.7791 -12.6888 -12.4787 -12.4276 -12.3580 -12.3388 -12.2282 -12.1320
   -11.0192 -10.7821  -6.6365  -6.6186  -6.5545  -6.5501  -6.5301  -6.5231
    -4.1309  -4.0991  -2.3707  -2.3251  -1.8047  -1.4901  -1.3980  -1.2930
    -0.8788  -0.8447  -0.6479  -0.6111  -0.4775  -0.3733  -0.3517  -0.2560
     0.0344   0.1748   0.2028   0.3237   0.5233   0.5993   0.6784   0.7774
     1.0701   1.1846   1.2278   1.3542   1.3965   1.5077   1.5824   1.6157
     1.7914   1.8760   1.9528   2.0077   2.1162   2.2542   2.3072   2.3537
     2.3922   2.4984   2.5169   2.5755   2.6344   2.7363   2.7514   2.7938
     2.9059   2.9929   3.0698   3.1284   3.1735   3.2074   3.2481   3.3744
     3.4141   3.4553   3.5492   3.6087   3.6325   3.6909   3.7513   3.7833
     3.8403   3.8658   3.9145   4.0634   4.1743   4.3187   4.4996   4.5600
     7.6048   7.6623   7.8050   8.9240   9.1698   9.6559  10.5266  11.4649
    11.8052  11.8562  12.2224  12.3132  12.5490  12.9340  12.9945  13.0739
    13.1955  13.2963  13.4096  13.4501  13.5465  13.6754  13.6973  13.8519
    13.9108  14.0386  14.1924  14.3364  14.3597

     occupation numbers 
     1.0000   1.0000   1.0000   1.0000   1.0000   1.0000   1.0000   1.0000
     1.0000   1.0000   1.0000   1.0000   1.0000   1.0000   1.0000   1.0000
     1.0000   1.0000   1.0000   1.0000   1.0000   1.0000   1.0000   1.0000
     1.0000   1.0000   1.0000   1.0000   1.0000   1.0000   1.0000   1.0000
     1.0000   1.0000   1.0000   1.0000   1.0000   1.0000   1.0000   1.0000
     1.0000   1.0000   1.0000   1.0000   1.0000   1.0000   1.0000   1.0000
     1.0000   1.0000   1.0000   1.0000   1.0000   1.0000   1.0000   1.0000
     1.0000   1.0000   1.0000   1.0000   1.0000   1.0000   1.0000   1.0000
     1.0000   1.0000   1.0000   1.0000   1.0000   1.0000   1.0000   1.0000
     1.0000   1.0000   1.0000   1.0000   1.0000   1.0000   1.0000   1.0000
     1.0000   1.0000   1.0000   1.0000   1.0000   1.0000   1.0000   1.0000
     1.0000   1.0000   1.0000   1.0000   1.0000   1.0000   1.0000   1.0000
     1.0000   1.0000   1.0000   1.0000   1.0000   1.0000   1.0000   1.0000
     1.0000   1.0000   1.0000   1.0000   1.0000   1.0000   1.0000   1.0000
     1.0000   1.0000   1.0000   1.0000   1.0000   1.0000   1.0000   1.0000
     1.0000   1.0000   1.0000   1.0000   1.0000   1.0000   1.0000   1.0000
     1.0000   1.0000   1.0000   0.0000   0.0000   0.0000   0.0000   0.0000
     0.0000   0.0000   0.0000   0.0000   0.0000   0.0000   0.0000   0.0000
     0.0000   0.0000   0.0000   0.0000   0.0000   0.0000   0.0000   0.0000
     0.0000   0.0000   0.0000   0.0000   0.0000

          k = 0.1667 0.1921 0.0301 ( 25937 PWs)   bands (ev):

   -78.5754 -67.5134 -67.4883 -67.0478 -66.9347 -66.9061 -44.7170 -44.7013
   -44.6332 -34.2808 -34.2660 -34.2584 -34.2501 -34.2371 -34.2270 -33.8051
   -33.7991 -33.7977 -33.7055 -33.7027 -33.6788 -33.6600 -33.6470 -33.6407
   -23.0628 -23.0537 -15.0395 -14.9875 -14.1944 -14.1474 -13.7543 -13.7267
   -13.3122 -13.2330 -13.1520 -13.0853 -12.9565 -12.9272 -12.9175 -12.8313
   -12.7956 -12.6776 -12.4849 -12.4026 -12.3714 -12.3264 -12.2346 -12.1231
   -11.0188 -10.7810  -6.6324  -6.6230  -6.5542  -6.5479  -6.5320  -6.5237
    -4.1074  -4.0483  -2.5548  -2.4541  -1.7555  -1.3664  -1.3139  -1.2864
    -0.8871  -0.8282  -0.7570  -0.6128  -0.4678  -0.2941  -0.2658  -0.1419
    -0.0234   0.1435   0.1951   0.3956   0.4642   0.5832   0.6454   0.7179
     1.0708   1.1087   1.2676   1.3284   1.3764   1.4610   1.5455   1.6464
     1.7654   1.8938   1.9216   2.0618   2.1448   2.2625   2.3089   2.3744
     2.4601   2.4886   2.5560   2.5829   2.6574   2.7254   2.8380   2.8672
     2.9069   3.0041   3.0703   3.1183   3.1891   3.2139   3.2646   3.3469
     3.3801   3.4436   3.4730   3.5953   3.6324   3.6699   3.7418   3.7955
     3.8191   3.8680   3.9695   4.0460   4.1302   4.3019   4.3638   4.5765
     7.6085   7.6693   7.8035   8.9100   9.1802   9.8159  10.6660  11.0431
    11.5906  11.8982  12.2550  12.5961  12.6889  12.8025  13.0358  13.0646
    13.1842  13.3240  13.3426  13.4822  13.5287  13.6157  13.7212  13.7917
    13.9415  14.0145  14.2301  14.4074  14.5648

     occupation numbers 
     1.0000   1.0000   1.0000   1.0000   1.0000   1.0000   1.0000   1.0000
     1.0000   1.0000   1.0000   1.0000   1.0000   1.0000   1.0000   1.0000
     1.0000   1.0000   1.0000   1.0000   1.0000   1.0000   1.0000   1.0000
     1.0000   1.0000   1.0000   1.0000   1.0000   1.0000   1.0000   1.0000
     1.0000   1.0000   1.0000   1.0000   1.0000   1.0000   1.0000   1.0000
     1.0000   1.0000   1.0000   1.0000   1.0000   1.0000   1.0000   1.0000
     1.0000   1.0000   1.0000   1.0000   1.0000   1.0000   1.0000   1.0000
     1.0000   1.0000   1.0000   1.0000   1.0000   1.0000   1.0000   1.0000
     1.0000   1.0000   1.0000   1.0000   1.0000   1.0000   1.0000   1.0000
     1.0000   1.0000   1.0000   1.0000   1.0000   1.0000   1.0000   1.0000
     1.0000   1.0000   1.0000   1.0000   1.0000   1.0000   1.0000   1.0000
     1.0000   1.0000   1.0000   1.0000   1.0000   1.0000   1.0000   1.0000
     1.0000   1.0000   1.0000   1.0000   1.0000   1.0000   1.0000   1.0000
     1.0000   1.0000   1.0000   1.0000   1.0000   1.0000   1.0000   1.0000
     1.0000   1.0000   1.0000   1.0000   1.0000   1.0000   1.0000   1.0000
     1.0000   1.0000   1.0000   1.0000   1.0000   1.0000   1.0000   1.0000
     1.0000   1.0000   1.0000   0.0000   0.0000   0.0000   0.0000   0.0000
     0.0000   0.0000   0.0000   0.0000   0.0000   0.0000   0.0000   0.0000
     0.0000   0.0000   0.0000   0.0000   0.0000   0.0000   0.0000   0.0000
     0.0000   0.0000   0.0000   0.0000   0.0000

          k = 0.1667 0.1921 0.2059 ( 25944 PWs)   bands (ev):

   -78.5754 -67.5134 -67.4883 -67.0478 -66.9347 -66.9061 -44.7170 -44.7013
   -44.6332 -34.2808 -34.2660 -34.2585 -34.2501 -34.2371 -34.2270 -33.8051
   -33.7991 -33.7977 -33.7055 -33.7027 -33.6788 -33.6600 -33.6470 -33.6407
   -23.0628 -23.0537 -15.0234 -15.0045 -14.1821 -14.1606 -13.7526 -13.7285
   -13.3078 -13.2237 -13.1720 -13.0735 -12.9618 -12.9385 -12.9036 -12.8311
   -12.7926 -12.6826 -12.4790 -12.4138 -12.3624 -12.3309 -12.2247 -12.1318
   -11.0184 -10.7817  -6.6325  -6.6230  -6.5542  -6.5479  -6.5319  -6.5236
    -4.1074  -4.0484  -2.5314  -2.4801  -1.7302  -1.3505  -1.3369  -1.2672
    -0.8930  -0.8223  -0.7540  -0.6064  -0.4739  -0.3548  -0.2467  -0.1929
     0.0123   0.1081   0.1983   0.3449   0.4546   0.5756   0.6248   0.7660
     1.0746   1.1214   1.2457   1.3848   1.4051   1.4892   1.5934   1.7266
     1.7978   1.8433   1.9157   2.0487   2.1551   2.2588   2.3285   2.3847
     2.4651   2.4798   2.5278   2.5574   2.6010   2.7485   2.8008   2.8581
     2.8893   2.9870   3.0603   3.1278   3.1486   3.2343   3.2813   3.3381
     3.3771   3.4204   3.4976   3.5929   3.6466   3.6601   3.7334   3.7860
     3.8169   3.8950   3.9353   4.0834   4.1443   4.2852   4.3783   4.5898
     7.6097   7.6684   7.8025   8.8965   9.1779  10.1252  10.5890  10.8607
    11.2948  11.8686  12.2280  12.5958  12.7586  12.8366  13.1068  13.2575
    13.3097  13.3601  13.4076  13.4654  13.5430  13.6586  13.7126  13.7745
    13.8657  14.0156  14.1664  14.3018  14.5249

     occupation numbers 
     1.0000   1.0000   1.0000   1.0000   1.0000   1.0000   1.0000   1.0000
     1.0000   1.0000   1.0000   1.0000   1.0000   1.0000   1.0000   1.0000
     1.0000   1.0000   1.0000   1.0000   1.0000   1.0000   1.0000   1.0000
     1.0000   1.0000   1.0000   1.0000   1.0000   1.0000   1.0000   1.0000
     1.0000   1.0000   1.0000   1.0000   1.0000   1.0000   1.0000   1.0000
     1.0000   1.0000   1.0000   1.0000   1.0000   1.0000   1.0000   1.0000
     1.0000   1.0000   1.0000   1.0000   1.0000   1.0000   1.0000   1.0000
     1.0000   1.0000   1.0000   1.0000   1.0000   1.0000   1.0000   1.0000
     1.0000   1.0000   1.0000   1.0000   1.0000   1.0000   1.0000   1.0000
     1.0000   1.0000   1.0000   1.0000   1.0000   1.0000   1.0000   1.0000
     1.0000   1.0000   1.0000   1.0000   1.0000   1.0000   1.0000   1.0000
     1.0000   1.0000   1.0000   1.0000   1.0000   1.0000   1.0000   1.0000
     1.0000   1.0000   1.0000   1.0000   1.0000   1.0000   1.0000   1.0000
     1.0000   1.0000   1.0000   1.0000   1.0000   1.0000   1.0000   1.0000
     1.0000   1.0000   1.0000   1.0000   1.0000   1.0000   1.0000   1.0000
     1.0000   1.0000   1.0000   1.0000   1.0000   1.0000   1.0000   1.0000
     1.0000   1.0000   1.0000   0.0000   0.0000   0.0000   0.0000   0.0000
     0.0000   0.0000   0.0000   0.0000   0.0000   0.0000   0.0000   0.0000
     0.0000   0.0000   0.0000   0.0000   0.0000   0.0000   0.0000   0.0000
     0.0000   0.0000   0.0000   0.0000   0.0000

          k = 0.1667 0.1921-0.1457 ( 25923 PWs)   bands (ev):

   -78.5754 -67.5134 -67.4883 -67.0478 -66.9347 -66.9061 -44.7170 -44.7013
   -44.6332 -34.2808 -34.2660 -34.2584 -34.2501 -34.2371 -34.2270 -33.8051
   -33.7991 -33.7977 -33.7055 -33.7027 -33.6787 -33.6600 -33.6470 -33.6407
   -23.0628 -23.0537 -15.0304 -14.9973 -14.1848 -14.1577 -13.7501 -13.7310
   -13.3098 -13.2242 -13.1667 -13.0787 -12.9593 -12.9373 -12.9054 -12.8338
   -12.7910 -12.6827 -12.4760 -12.4137 -12.3541 -12.3421 -12.2246 -12.1307
   -11.0182 -10.7817  -6.6326  -6.6231  -6.5542  -6.5478  -6.5319  -6.5236
    -4.0923  -4.0639  -2.5314  -2.4796  -1.7394  -1.3640  -1.3299  -1.2646
    -0.8711  -0.8475  -0.7209  -0.6238  -0.4894  -0.3208  -0.2558  -0.1886
    -0.0098   0.1241   0.1659   0.3783   0.4780   0.5648   0.6907   0.7446
     1.0518   1.0938   1.2352   1.3657   1.4004   1.5092   1.5814   1.6897
     1.7996   1.8631   1.9172   2.0708   2.1456   2.2040   2.3322   2.3953
     2.4426   2.4883   2.5258   2.5636   2.6225   2.7731   2.7842   2.8346
     2.9127   3.0204   3.0732   3.1234   3.1637   3.2118   3.2908   3.3776
     3.3900   3.4369   3.5263   3.5776   3.5949   3.6940   3.7340   3.7711
     3.8265   3.8557   3.9004   4.0849   4.1504   4.2843   4.3779   4.5844
     7.6093   7.6675   7.8044   8.8933   9.1795  10.0017  10.7602  10.8245
    11.3708  11.9403  12.2734  12.5964  12.6666  12.8462  13.0370  13.1742
    13.2448  13.3310  13.4053  13.4776  13.5459  13.6485  13.6921  13.8755
    13.9061  13.9539  14.1091  14.3545  14.4861

     occupation numbers 
     1.0000   1.0000   1.0000   1.0000   1.0000   1.0000   1.0000   1.0000
     1.0000   1.0000   1.0000   1.0000   1.0000   1.0000   1.0000   1.0000
     1.0000   1.0000   1.0000   1.0000   1.0000   1.0000   1.0000   1.0000
     1.0000   1.0000   1.0000   1.0000   1.0000   1.0000   1.0000   1.0000
     1.0000   1.0000   1.0000   1.0000   1.0000   1.0000   1.0000   1.0000
     1.0000   1.0000   1.0000   1.0000   1.0000   1.0000   1.0000   1.0000
     1.0000   1.0000   1.0000   1.0000   1.0000   1.0000   1.0000   1.0000
     1.0000   1.0000   1.0000   1.0000   1.0000   1.0000   1.0000   1.0000
     1.0000   1.0000   1.0000   1.0000   1.0000   1.0000   1.0000   1.0000
     1.0000   1.0000   1.0000   1.0000   1.0000   1.0000   1.0000   1.0000
     1.0000   1.0000   1.0000   1.0000   1.0000   1.0000   1.0000   1.0000
     1.0000   1.0000   1.0000   1.0000   1.0000   1.0000   1.0000   1.0000
     1.0000   1.0000   1.0000   1.0000   1.0000   1.0000   1.0000   1.0000
     1.0000   1.0000   1.0000   1.0000   1.0000   1.0000   1.0000   1.0000
     1.0000   1.0000   1.0000   1.0000   1.0000   1.0000   1.0000   1.0000
     1.0000   1.0000   1.0000   1.0000   1.0000   1.0000   1.0000   1.0000
     1.0000   1.0000   1.0000   0.0000   0.0000   0.0000   0.0000   0.0000
     0.0000   0.0000   0.0000   0.0000   0.0000   0.0000   0.0000   0.0000
     0.0000   0.0000   0.0000   0.0000   0.0000   0.0000   0.0000   0.0000
     0.0000   0.0000   0.0000   0.0000   0.0000

          k = 0.3333 0.0000 0.0601 ( 25907 PWs)   bands (ev):

   -78.5754 -67.5134 -67.4883 -67.0478 -66.9347 -66.9062 -44.7169 -44.7013
   -44.6332 -34.2796 -34.2681 -34.2567 -34.2514 -34.2363 -34.2274 -33.8047
   -33.7994 -33.7977 -33.7059 -33.7022 -33.6780 -33.6595 -33.6478 -33.6413
   -23.0624 -23.0534 -14.8814 -14.8330 -14.2961 -14.2584 -13.8771 -13.8417
   -13.2641 -13.1637 -13.0912 -13.0664 -12.9697 -12.9374 -12.8590 -12.8329
   -12.7872 -12.6873 -12.5553 -12.4994 -12.4372 -12.3439 -12.2189 -12.1153
   -11.0133 -10.7920  -6.6364  -6.6270  -6.5512  -6.5463  -6.5311  -6.5165
    -3.7306  -3.6621  -2.5309  -2.4240  -1.8298  -1.6696  -1.4064  -1.2373
    -0.8711  -0.7403  -0.7238  -0.6913  -0.4102  -0.3394  -0.2146  -0.1551
    -0.0631   0.1241   0.2545   0.4018   0.4845   0.6002   0.6455   0.6897
     1.0091   1.1147   1.2535   1.3073   1.3938   1.4581   1.5605   1.6006
     1.6470   1.6652   1.8043   1.9778   2.0793   2.3124   2.3459   2.4007
     2.4415   2.5483   2.6281   2.6768   2.6943   2.7734   2.8101   2.8613
     2.9132   2.9768   3.0010   3.1508   3.1650   3.2155   3.2313   3.2786
     3.3211   3.4496   3.4779   3.5623   3.5959   3.6149   3.6674   3.7191
     3.7744   3.8276   3.9815   4.0228   4.0630   4.3602   4.4379   4.4772
     7.6112   7.6601   7.7589   8.9469   9.1539  10.2455  11.2496  11.4698
    11.9348  12.0715  12.1910  12.2938  12.7198  12.7371  12.8051  13.0522
    13.1618  13.2488  13.4650  13.5156  13.5663  13.6228  13.7398  13.9125
    13.9827  14.2046  14.2628  14.3427  14.4563

     occupation numbers 
     1.0000   1.0000   1.0000   1.0000   1.0000   1.0000   1.0000   1.0000
     1.0000   1.0000   1.0000   1.0000   1.0000   1.0000   1.0000   1.0000
     1.0000   1.0000   1.0000   1.0000   1.0000   1.0000   1.0000   1.0000
     1.0000   1.0000   1.0000   1.0000   1.0000   1.0000   1.0000   1.0000
     1.0000   1.0000   1.0000   1.0000   1.0000   1.0000   1.0000   1.0000
     1.0000   1.0000   1.0000   1.0000   1.0000   1.0000   1.0000   1.0000
     1.0000   1.0000   1.0000   1.0000   1.0000   1.0000   1.0000   1.0000
     1.0000   1.0000   1.0000   1.0000   1.0000   1.0000   1.0000   1.0000
     1.0000   1.0000   1.0000   1.0000   1.0000   1.0000   1.0000   1.0000
     1.0000   1.0000   1.0000   1.0000   1.0000   1.0000   1.0000   1.0000
     1.0000   1.0000   1.0000   1.0000   1.0000   1.0000   1.0000   1.0000
     1.0000   1.0000   1.0000   1.0000   1.0000   1.0000   1.0000   1.0000
     1.0000   1.0000   1.0000   1.0000   1.0000   1.0000   1.0000   1.0000
     1.0000   1.0000   1.0000   1.0000   1.0000   1.0000   1.0000   1.0000
     1.0000   1.0000   1.0000   1.0000   1.0000   1.0000   1.0000   1.0000
     1.0000   1.0000   1.0000   1.0000   1.0000   1.0000   1.0000   1.0000
     1.0000   1.0000   1.0000   0.0000   0.0000   0.0000   0.0000   0.0000
     0.0000   0.0000   0.0000   0.0000   0.0000   0.0000   0.0000   0.0000
     0.0000   0.0000   0.0000   0.0000   0.0000   0.0000   0.0000   0.0000
     0.0000   0.0000   0.0000   0.0000   0.0000

          k = 0.3333 0.0000 0.2360 ( 25948 PWs)   bands (ev):

   -78.5754 -67.5134 -67.4883 -67.0478 -66.9347 -66.9062 -44.7170 -44.7013
   -44.6332 -34.2796 -34.2681 -34.2567 -34.2514 -34.2363 -34.2274 -33.8047
   -33.7994 -33.7977 -33.7059 -33.7022 -33.6780 -33.6595 -33.6478 -33.6413
   -23.0624 -23.0534 -14.8636 -14.8517 -14.2942 -14.2603 -13.8705 -13.8487
   -13.2593 -13.1590 -13.1074 -13.0616 -12.9657 -12.9312 -12.8741 -12.8248
   -12.7855 -12.6910 -12.5471 -12.5112 -12.4226 -12.3538 -12.2084 -12.1248
   -11.0125 -10.7930  -6.6366  -6.6270  -6.5511  -6.5462  -6.5311  -6.5165
    -3.7336  -3.6590  -2.5043  -2.4539  -1.8019  -1.7067  -1.3777  -1.2268
    -0.8816  -0.7456  -0.7148  -0.6739  -0.3879  -0.3236  -0.2637  -0.2302
    -0.0056   0.0655   0.2633   0.3587   0.4873   0.5905   0.6230   0.7427
     1.0673   1.1362   1.2158   1.3063   1.3441   1.4867   1.5767   1.6342
     1.6944   1.7170   1.7481   2.0284   2.1142   2.2748   2.3486   2.3831
     2.4173   2.4766   2.6225   2.6793   2.7343   2.7646   2.7815   2.8381
     2.9281   2.9365   3.0420   3.1138   3.1655   3.1777   3.2793   3.3075
     3.3316   3.4599   3.4781   3.5634   3.5878   3.6116   3.6441   3.7262
     3.7773   3.8538   3.9113   4.0150   4.1162   4.3383   4.4614   4.4936
     7.6115   7.6573   7.7598   8.9394   9.1500  10.5641  10.8079  11.5247
    11.9801  12.0148  12.1729  12.3337  12.6457  12.7080  12.7978  12.9620
    13.3072  13.3813  13.4642  13.4970  13.5754  13.6431  13.8426  13.9093
    13.9702  14.0243  14.0542  14.4833  14.5771

     occupation numbers 
     1.0000   1.0000   1.0000   1.0000   1.0000   1.0000   1.0000   1.0000
     1.0000   1.0000   1.0000   1.0000   1.0000   1.0000   1.0000   1.0000
     1.0000   1.0000   1.0000   1.0000   1.0000   1.0000   1.0000   1.0000
     1.0000   1.0000   1.0000   1.0000   1.0000   1.0000   1.0000   1.0000
     1.0000   1.0000   1.0000   1.0000   1.0000   1.0000   1.0000   1.0000
     1.0000   1.0000   1.0000   1.0000   1.0000   1.0000   1.0000   1.0000
     1.0000   1.0000   1.0000   1.0000   1.0000   1.0000   1.0000   1.0000
     1.0000   1.0000   1.0000   1.0000   1.0000   1.0000   1.0000   1.0000
     1.0000   1.0000   1.0000   1.0000   1.0000   1.0000   1.0000   1.0000
     1.0000   1.0000   1.0000   1.0000   1.0000   1.0000   1.0000   1.0000
     1.0000   1.0000   1.0000   1.0000   1.0000   1.0000   1.0000   1.0000
     1.0000   1.0000   1.0000   1.0000   1.0000   1.0000   1.0000   1.0000
     1.0000   1.0000   1.0000   1.0000   1.0000   1.0000   1.0000   1.0000
     1.0000   1.0000   1.0000   1.0000   1.0000   1.0000   1.0000   1.0000
     1.0000   1.0000   1.0000   1.0000   1.0000   1.0000   1.0000   1.0000
     1.0000   1.0000   1.0000   1.0000   1.0000   1.0000   1.0000   1.0000
     1.0000   1.0000   1.0000   0.0000   0.0000   0.0000   0.0000   0.0000
     0.0000   0.0000   0.0000   0.0000   0.0000   0.0000   0.0000   0.0000
     0.0000   0.0000   0.0000   0.0000   0.0000   0.0000   0.0000   0.0000
     0.0000   0.0000   0.0000   0.0000   0.0000

          k = 0.3333 0.0000-0.1157 ( 25913 PWs)   bands (ev):

   -78.5754 -67.5134 -67.4883 -67.0478 -66.9347 -66.9062 -44.7170 -44.7013
   -44.6332 -34.2796 -34.2681 -34.2567 -34.2514 -34.2363 -34.2274 -33.8047
   -33.7994 -33.7977 -33.7059 -33.7022 -33.6780 -33.6595 -33.6478 -33.6413
   -23.0624 -23.0534 -14.8760 -14.8387 -14.2881 -14.2667 -13.8726 -13.8465
   -13.2637 -13.1505 -13.1102 -13.0655 -12.9645 -12.9289 -12.8780 -12.8200
   -12.7863 -12.6935 -12.5429 -12.5159 -12.4184 -12.3568 -12.2098 -12.1230
   -11.0124 -10.7929  -6.6366  -6.6272  -6.5511  -6.5462  -6.5310  -6.5165
    -3.7015  -3.6921  -2.5198  -2.4371  -1.8132  -1.6901  -1.3995  -1.2311
    -0.8689  -0.7351  -0.7021  -0.6868  -0.4018  -0.3292  -0.2373  -0.2170
    -0.0630   0.0960   0.2845   0.3544   0.5168   0.5765   0.6766   0.7019
     1.0602   1.1045   1.2302   1.3098   1.3932   1.4516   1.5810   1.6122
     1.6365   1.6790   1.8131   1.9967   2.0891   2.2695   2.3272   2.3862
     2.4235   2.5378   2.6342   2.6768   2.7176   2.7787   2.8064   2.8184
     2.9327   2.9561   2.9882   3.1344   3.1436   3.2463   3.2672   3.3261
     3.4057   3.4557   3.4814   3.5622   3.5891   3.6022   3.6786   3.6918
     3.7393   3.8137   3.8851   3.9984   4.1369   4.3554   4.4472   4.4962
     7.6112   7.6563   7.7607   8.9392   9.1606  10.2932  11.1375  11.6059
    11.8952  12.0728  12.2106  12.3694  12.6435  12.7163  12.8330  12.9344
    13.1882  13.3125  13.4070  13.5042  13.5701  13.6140  13.6940  13.8515
    14.0314  14.1375  14.2396  14.4015  14.5478

     occupation numbers 
     1.0000   1.0000   1.0000   1.0000   1.0000   1.0000   1.0000   1.0000
     1.0000   1.0000   1.0000   1.0000   1.0000   1.0000   1.0000   1.0000
     1.0000   1.0000   1.0000   1.0000   1.0000   1.0000   1.0000   1.0000
     1.0000   1.0000   1.0000   1.0000   1.0000   1.0000   1.0000   1.0000
     1.0000   1.0000   1.0000   1.0000   1.0000   1.0000   1.0000   1.0000
     1.0000   1.0000   1.0000   1.0000   1.0000   1.0000   1.0000   1.0000
     1.0000   1.0000   1.0000   1.0000   1.0000   1.0000   1.0000   1.0000
     1.0000   1.0000   1.0000   1.0000   1.0000   1.0000   1.0000   1.0000
     1.0000   1.0000   1.0000   1.0000   1.0000   1.0000   1.0000   1.0000
     1.0000   1.0000   1.0000   1.0000   1.0000   1.0000   1.0000   1.0000
     1.0000   1.0000   1.0000   1.0000   1.0000   1.0000   1.0000   1.0000
     1.0000   1.0000   1.0000   1.0000   1.0000   1.0000   1.0000   1.0000
     1.0000   1.0000   1.0000   1.0000   1.0000   1.0000   1.0000   1.0000
     1.0000   1.0000   1.0000   1.0000   1.0000   1.0000   1.0000   1.0000
     1.0000   1.0000   1.0000   1.0000   1.0000   1.0000   1.0000   1.0000
     1.0000   1.0000   1.0000   1.0000   1.0000   1.0000   1.0000   1.0000
     1.0000   1.0000   1.0000   0.0000   0.0000   0.0000   0.0000   0.0000
     0.0000   0.0000   0.0000   0.0000   0.0000   0.0000   0.0000   0.0000
     0.0000   0.0000   0.0000   0.0000   0.0000   0.0000   0.0000   0.0000
     0.0000   0.0000   0.0000   0.0000   0.0000

          k = 0.3333 0.1921 0.0601 ( 25923 PWs)   bands (ev):

   -78.5754 -67.5134 -67.4883 -67.0478 -66.9347 -66.9062 -44.7170 -44.7013
   -44.6332 -34.2796 -34.2681 -34.2567 -34.2514 -34.2363 -34.2274 -33.8047
   -33.7994 -33.7977 -33.7059 -33.7022 -33.6780 -33.6595 -33.6478 -33.6413
   -23.0624 -23.0534 -14.8778 -14.8294 -14.3075 -14.2682 -13.8740 -13.8409
   -13.2470 -13.1613 -13.0705 -13.0259 -12.9726 -12.9565 -12.9041 -12.8353
   -12.8030 -12.6898 -12.5472 -12.4859 -12.4378 -12.3499 -12.2170 -12.1152
   -11.0128 -10.7920  -6.6352  -6.6294  -6.5514  -6.5452  -6.5312  -6.5166
    -3.7078  -3.6397  -2.6360  -2.5377  -1.7458  -1.5606  -1.3568  -1.2594
    -0.8782  -0.7772  -0.7271  -0.6391  -0.4480  -0.2597  -0.1998  -0.1065
    -0.0564   0.0748   0.2344   0.3988   0.4866   0.5850   0.6000   0.6546
     0.9790   1.0379   1.2921   1.3428   1.3914   1.4700   1.5276   1.6109
     1.6285   1.7046   1.8118   1.9391   2.1190   2.2911   2.3476   2.3926
     2.4506   2.5474   2.6092   2.6486   2.7080   2.7746   2.8233   2.8729
     2.9285   3.0440   3.0755   3.1103   3.1855   3.2269   3.2805   3.3111
     3.3444   3.4022   3.4739   3.5254   3.5689   3.5984   3.6471   3.6906
     3.7625   3.8488   3.9630   4.0381   4.0658   4.3371   4.3930   4.4762
     7.6143   7.6652   7.7579   8.9265   9.1669  10.4895  11.0947  11.4195
    11.8618  11.9108  12.0997  12.4925  12.5781  12.7186  12.8712  13.1322
    13.2272  13.2739  13.4255  13.4719  13.5220  13.6730  13.7671  13.9460
    14.0751  14.2570  14.2834  14.3723  14.4321

     occupation numbers 
     1.0000   1.0000   1.0000   1.0000   1.0000   1.0000   1.0000   1.0000
     1.0000   1.0000   1.0000   1.0000   1.0000   1.0000   1.0000   1.0000
     1.0000   1.0000   1.0000   1.0000   1.0000   1.0000   1.0000   1.0000
     1.0000   1.0000   1.0000   1.0000   1.0000   1.0000   1.0000   1.0000
     1.0000   1.0000   1.0000   1.0000   1.0000   1.0000   1.0000   1.0000
     1.0000   1.0000   1.0000   1.0000   1.0000   1.0000   1.0000   1.0000
     1.0000   1.0000   1.0000   1.0000   1.0000   1.0000   1.0000   1.0000
     1.0000   1.0000   1.0000   1.0000   1.0000   1.0000   1.0000   1.0000
     1.0000   1.0000   1.0000   1.0000   1.0000   1.0000   1.0000   1.0000
     1.0000   1.0000   1.0000   1.0000   1.0000   1.0000   1.0000   1.0000
     1.0000   1.0000   1.0000   1.0000   1.0000   1.0000   1.0000   1.0000
     1.0000   1.0000   1.0000   1.0000   1.0000   1.0000   1.0000   1.0000
     1.0000   1.0000   1.0000   1.0000   1.0000   1.0000   1.0000   1.0000
     1.0000   1.0000   1.0000   1.0000   1.0000   1.0000   1.0000   1.0000
     1.0000   1.0000   1.0000   1.0000   1.0000   1.0000   1.0000   1.0000
     1.0000   1.0000   1.0000   1.0000   1.0000   1.0000   1.0000   1.0000
     1.0000   1.0000   1.0000   0.0000   0.0000   0.0000   0.0000   0.0000
     0.0000   0.0000   0.0000   0.0000   0.0000   0.0000   0.0000   0.0000
     0.0000   0.0000   0.0000   0.0000   0.0000   0.0000   0.0000   0.0000
     0.0000   0.0000   0.0000   0.0000   0.0000

          k = 0.3333 0.1921 0.2360 ( 25909 PWs)   bands (ev):

   -78.5754 -67.5134 -67.4883 -67.0478 -66.9347 -66.9062 -44.7170 -44.7013
   -44.6332 -34.2796 -34.2681 -34.2567 -34.2514 -34.2363 -34.2274 -33.8047
   -33.7994 -33.7977 -33.7059 -33.7022 -33.6780 -33.6595 -33.6478 -33.6413
   -23.0624 -23.0534 -14.8603 -14.8477 -14.3038 -14.2720 -13.8678 -13.8476
   -13.2442 -13.1523 -13.0861 -13.0247 -12.9673 -12.9560 -12.9084 -12.8303
   -12.8018 -12.6945 -12.5378 -12.5022 -12.4228 -12.3580 -12.2067 -12.1245
   -11.0120 -10.7929  -6.6354  -6.6294  -6.5513  -6.5452  -6.5311  -6.5166
    -3.7082  -3.6391  -2.6027  -2.5744  -1.7269  -1.5878  -1.3314  -1.2478
    -0.8815  -0.7981  -0.6741  -0.6570  -0.4241  -0.3052  -0.2154  -0.1363
    -0.0316   0.0369   0.2705   0.3421   0.4740   0.5615   0.6001   0.6913
     0.9805   1.0685   1.2834   1.3248   1.4115   1.4643   1.5762   1.6215
     1.6866   1.7552   1.7862   1.9364   2.1590   2.2276   2.3494   2.3848
     2.4218   2.5370   2.5782   2.6907   2.7036   2.7524   2.7956   2.8609
     2.9279   3.0165   3.0409   3.1221   3.1802   3.2301   3.2973   3.3132
     3.3678   3.4470   3.4857   3.5200   3.5584   3.5794   3.6418   3.7106
     3.7398   3.8758   3.9451   3.9985   4.1136   4.3079   4.4095   4.4995
     7.6147   7.6624   7.7588   8.9180   9.1637  10.7556  11.0411  11.2672
    11.6201  11.9004  12.0810  12.5258  12.6328  12.7455  12.8492  13.0672
    13.1973  13.3869  13.4606  13.5313  13.6446  13.6877  13.8398  13.9416
    14.0091  14.1088  14.1710  14.3314  14.4517

     occupation numbers 
     1.0000   1.0000   1.0000   1.0000   1.0000   1.0000   1.0000   1.0000
     1.0000   1.0000   1.0000   1.0000   1.0000   1.0000   1.0000   1.0000
     1.0000   1.0000   1.0000   1.0000   1.0000   1.0000   1.0000   1.0000
     1.0000   1.0000   1.0000   1.0000   1.0000   1.0000   1.0000   1.0000
     1.0000   1.0000   1.0000   1.0000   1.0000   1.0000   1.0000   1.0000
     1.0000   1.0000   1.0000   1.0000   1.0000   1.0000   1.0000   1.0000
     1.0000   1.0000   1.0000   1.0000   1.0000   1.0000   1.0000   1.0000
     1.0000   1.0000   1.0000   1.0000   1.0000   1.0000   1.0000   1.0000
     1.0000   1.0000   1.0000   1.0000   1.0000   1.0000   1.0000   1.0000
[...]
     atom   12 type  7   force =     0.00000000    0.00000000    0.00000000
     atom   13 type  7   force =     0.00000000    0.00000000    0.00000000
     atom   14 type  1   force =     0.00000000    0.00000000    0.00000000
     atom   15 type  1   force =     0.00000000    0.00000000    0.00000000
     atom   16 type  6   force =     0.00000000    0.00000000    0.00000000
     atom   17 type  6   force =     0.00000000    0.00000000    0.00000000
     atom   18 type  6   force =     0.00000000    0.00000000    0.00000000
     atom   19 type  6   force =     0.00000000    0.00000000    0.00000000
     atom   20 type  6   force =     0.00000000    0.00000000    0.00000000
     atom   21 type  6   force =     0.00000000    0.00000000    0.00000000
     atom   22 type  6   force =     0.00000000    0.00000000    0.00000000
     atom   23 type  6   force =     0.00000000    0.00000000    0.00000000
     atom   24 type  6   force =     0.00000000    0.00000000    0.00000000
     atom   25 type  6   force =     0.00000000    0.00000000    0.00000000
     atom   26 type  6   force =     0.00000000    0.00000000    0.00000000
     atom   27 type  6   force =     0.00000000    0.00000000    0.00000000
     atom   28 type  6   force =     0.00000000    0.00000000    0.00000000
     atom   29 type  6   force =     0.00000000    0.00000000    0.00000000
     atom   30 type  6   force =     0.00000000    0.00000000    0.00000000
     atom   31 type  6   force =     0.00000000    0.00000000    0.00000000
     atom   32 type  6   force =     0.00000000    0.00000000    0.00000000
     atom   33 type  6   force =     0.00000000    0.00000000    0.00000000
     atom   34 type  6   force =     0.00000000    0.00000000    0.00000000
     atom   35 type  6   force =     0.00000000    0.00000000    0.00000000
     atom   36 type  6   force =     0.00000000    0.00000000    0.00000000
     atom   37 type  6   force =     0.00000000    0.00000000    0.00000000
     atom   38 type  6   force =     0.00000000    0.00000000    0.00000000
     atom   39 type  6   force =     0.00000000    0.00000000    0.00000000
     atom   40 type  3   force =     0.00000000    0.00000000    0.00000000
     atom   41 type  3   force =     0.00000000    0.00000000    0.00000000
     atom   42 type  3   force =     0.00000000    0.00000000    0.00000000
     atom   43 type  3   force =     0.00000000    0.00000000    0.00000000
     atom   44 type  2   force =     0.00000000    0.00000000    0.00000000
     The SCF correction term to forces
     atom    1 type  4   force =    -0.00000000   -0.00000272    0.00000000
     atom    2 type  4   force =     0.00000000    0.00000262    0.00000000
     atom    3 type  5   force =     0.00000000   -0.00009334   -0.00000000
     atom    4 type  5   force =     0.00000000    0.00001495   -0.00000000
     atom    5 type  5   force =    -0.00000000    0.00002788    0.00000000
     atom    6 type  5   force =    -0.00000000    0.00005878   -0.00000000
     atom    7 type  5   force =    -0.00000000    0.00000281   -0.00000000
     atom    8 type  7   force =    -0.00000113   -0.00000764    0.00001520
     atom    9 type  7   force =     0.00000113   -0.00000764   -0.00001520
     atom   10 type  7   force =    -0.00000130    0.00000849   -0.00000541
     atom   11 type  7   force =     0.00000130    0.00000849    0.00000541
     atom   12 type  7   force =     0.00000265    0.00000846    0.00000755
     atom   13 type  7   force =    -0.00000265    0.00000846   -0.00000755
     atom   14 type  1   force =    -0.00000241   -0.00000571   -0.00000068
     atom   15 type  1   force =     0.00000241   -0.00000571    0.00000068
     atom   16 type  6   force =    -0.00000472   -0.00001683    0.00002319
     atom   17 type  6   force =     0.00000472   -0.00001683   -0.00002319
     atom   18 type  6   force =     0.00000555    0.00004478   -0.00001332
     atom   19 type  6   force =    -0.00000555    0.00004478    0.00001332
     atom   20 type  6   force =     0.00000168    0.00002014   -0.00000072
     atom   21 type  6   force =    -0.00000168    0.00002014    0.00000072
     atom   22 type  6   force =    -0.00000816   -0.00003274   -0.00001169
     atom   23 type  6   force =     0.00000816   -0.00003274    0.00001169
     atom   24 type  6   force =     0.00000066   -0.00003613    0.00000740
     atom   25 type  6   force =    -0.00000066   -0.00003613   -0.00000740
     atom   26 type  6   force =     0.00000773   -0.00000544   -0.00003022
     atom   27 type  6   force =    -0.00000773   -0.00000544    0.00003022
     atom   28 type  6   force =     0.00000349    0.00003342   -0.00000442
     atom   29 type  6   force =    -0.00000349    0.00003342    0.00000442
     atom   30 type  6   force =     0.00000590    0.00001377    0.00001734
     atom   31 type  6   force =    -0.00000590    0.00001377   -0.00001734
     atom   32 type  6   force =     0.00001731    0.00000093   -0.00000082
     atom   33 type  6   force =    -0.00001731    0.00000093    0.00000082
     atom   34 type  6   force =    -0.00000082   -0.00001179   -0.00000914
     atom   35 type  6   force =     0.00000082   -0.00001179    0.00000914
     atom   36 type  6   force =    -0.00000281   -0.00001608   -0.00002299
     atom   37 type  6   force =     0.00000281   -0.00001608    0.00002299
     atom   38 type  6   force =    -0.00000170    0.00001226    0.00002136
     atom   39 type  6   force =     0.00000170    0.00001226   -0.00002136
     atom   40 type  3   force =    -0.00000072   -0.00000179   -0.00000516
     atom   41 type  3   force =     0.00000072   -0.00000179    0.00000516
     atom   42 type  3   force =    -0.00000054    0.00000080    0.00000126
     atom   43 type  3   force =     0.00000054    0.00000080   -0.00000126
     atom   44 type  2   force =     0.00000000    0.00006147    0.00000000

     DFT-D3 dispersion contribution to forces:
     atom    1 type  4   force =    -0.00000000    0.00062687    0.00000000
     atom    2 type  4   force =     0.00000000   -0.00041991    0.00000000
     atom    3 type  5   force =     0.00000000    0.00052753   -0.00000000
     atom    4 type  5   force =    -0.00000000   -0.00091629   -0.00000000
     atom    5 type  5   force =     0.00000000   -0.00060424    0.00000000
     atom    6 type  5   force =    -0.00000000    0.00147374    0.00000000
     atom    7 type  5   force =     0.00000000   -0.00044385   -0.00000000
     atom    8 type  7   force =     0.00007741   -0.00016472   -0.00013266
     atom    9 type  7   force =    -0.00007741   -0.00016472    0.00013266
     atom   10 type  7   force =     0.00001164    0.00015034    0.00009183
     atom   11 type  7   force =    -0.00001164    0.00015034   -0.00009183
     atom   12 type  7   force =    -0.00006235    0.00011938   -0.00027331
     atom   13 type  7   force =     0.00006235    0.00011938    0.00027331
     atom   14 type  1   force =     0.00005515    0.00013431   -0.00103874
     atom   15 type  1   force =    -0.00005515    0.00013431    0.00103874
     atom   16 type  6   force =     0.00000542    0.00013977    0.00038930
     atom   17 type  6   force =    -0.00000542    0.00013977   -0.00038930
     atom   18 type  6   force =     0.00000118   -0.00003599   -0.00031570
     atom   19 type  6   force =    -0.00000118   -0.00003599    0.00031570
     atom   20 type  6   force =    -0.00000066   -0.00007408    0.00036731
     atom   21 type  6   force =     0.00000066   -0.00007408   -0.00036731
     atom   22 type  6   force =    -0.00004793   -0.00000762    0.00010013
     atom   23 type  6   force =     0.00004793   -0.00000762   -0.00010013
     atom   24 type  6   force =    -0.00014867    0.00093373    0.00018424
     atom   25 type  6   force =     0.00014867    0.00093373   -0.00018423
     atom   26 type  6   force =     0.00083366    0.00007082    0.00016396
     atom   27 type  6   force =    -0.00083366    0.00007082   -0.00016396
     atom   28 type  6   force =     0.00041660   -0.00061009   -0.00010449
     atom   29 type  6   force =    -0.00041660   -0.00061009    0.00010449
     atom   30 type  6   force =    -0.00026237    0.00041334    0.00013678
     atom   31 type  6   force =     0.00026237    0.00041334   -0.00013678
     atom   32 type  6   force =     0.00089914   -0.00042764    0.00037021
     atom   33 type  6   force =    -0.00089914   -0.00042764   -0.00037021
     atom   34 type  6   force =     0.00062667   -0.00049079   -0.00034499
     atom   35 type  6   force =    -0.00062667   -0.00049079    0.00034499
     atom   36 type  6   force =    -0.00000939   -0.00003999   -0.00050156
     atom   37 type  6   force =     0.00000939   -0.00003999    0.00050156
     atom   38 type  6   force =    -0.00009537    0.00004163   -0.00059264
     atom   39 type  6   force =     0.00009537    0.00004163    0.00059264
     atom   40 type  3   force =    -0.00001602    0.00010096   -0.00024568
     atom   41 type  3   force =     0.00001602    0.00010096    0.00024568
     atom   42 type  3   force =    -0.00018367   -0.00039985   -0.00026632
     atom   43 type  3   force =     0.00018367   -0.00039985    0.00026632
     atom   44 type  2   force =     0.00000000    0.00004911   -0.00000000

     Total force =     0.002385     Total SCF correction =     0.000199

     DFT-D3 dispersion Force =     0.004293


     Computing stress (Cartesian axis) and pressure

          total   stress  (Ry/bohr**3)                   (kbar)     P=        9.10
   0.00003776   0.00000000   0.00000821            5.55        0.00        1.21
   0.00000000   0.00005099   0.00000000            0.00        7.50        0.00
   0.00000821   0.00000000   0.00009673            1.21        0.00       14.23

     kinetic stress (kbar)  20836.14      0.00     20.44
                                0.00  20837.00      0.00
                               20.44      0.00  20544.46

     local   stress (kbar) -40012.02      0.00    204.63
                                0.00 -38979.85      0.00
                              204.63      0.00  17738.71

     nonloc. stress (kbar)   3918.12      0.00     -2.20
                                0.00   3920.22      0.00
                               -2.20      0.00   3904.07

     hartree stress (kbar)  22733.69     -0.00    -89.49
                               -0.00  22244.45     -0.00
                              -89.49     -0.00  -5503.95

     exc-cor stress (kbar)  -2916.27     -0.00     -0.04
                               -0.00  -2916.59     -0.00
                               -0.04     -0.00  -2913.43

     corecor stress (kbar)  -1922.30      0.00     -0.05
                                0.00  -1922.49      0.00
                               -0.05      0.00  -1923.90

     ewald   stress (kbar)  -2616.24     -0.00   -132.18
                               -0.00  -3159.50     -0.00
                             -132.18     -0.00 -31819.83

     hubbard stress (kbar)      0.00      0.00      0.00
                                0.00      0.00      0.00
                                0.00      0.00      0.00

     DFT-D   stress (kbar)    -15.57     -0.00      0.11
                               -0.00    -15.74     -0.00
                                0.11     -0.00    -11.89

     XDM     stress (kbar)      0.00      0.00      0.00
                                0.00      0.00      0.00
                                0.00      0.00      0.00

     dft-nl  stress (kbar)      0.00      0.00      0.00
                                0.00      0.00      0.00
                                0.00      0.00      0.00

     TS-vdW  stress (kbar)      0.00      0.00      0.00
                                0.00      0.00      0.00
                                0.00      0.00      0.00

     MDB     stress (kbar)      0.00      0.00      0.00
                                0.00      0.00      0.00
                                0.00      0.00      0.00

     3D-RISM stress (kbar)      0.00      0.00      0.00
                                0.00      0.00      0.00
                                0.00      0.00      0.00

     Energy error            =      1.2E-05 Ry
     Gradient error          =      8.2E-04 Ry/Bohr

     bfgs converged in  16 scf cycles and  15 bfgs steps
     (criteria: energy <  1.0E-04 Ry, force <  1.0E-03 Ry/Bohr)

     End of BFGS Geometry Optimization

     Final energy             =   -2631.1931972637 Ry

     File ./temp/phl-fe1-fe1-nspin.bfgs deleted, as requested
Begin final coordinates

ATOMIC_POSITIONS (crystal)
K                0.0000000000        0.4928974958        0.0000000000
K                0.5000000000        0.0045667586        0.0000000000
Mg              -0.0000000000        0.3297921871        0.5000000000
Mg              -0.0000000000        0.6666573343        0.5000000000
Mg               0.5000000000        0.4931258530        0.5000000000
Mg               0.5000000000        0.8368207723        0.5000000000
Mg               0.5000000000        0.1705857635        0.5000000000
Si               0.0813123913        0.1638015868        0.2231582113
Si               0.9186875947        0.1638015868        0.7768418187
Si               0.9379361201        0.8356004616        0.7710287739
Si               0.0620638799        0.8356004616        0.2289712261
Si               0.5616386126        0.6667691326        0.2273196753
Si               0.4383613874        0.6667691326        0.7726803097
Al               0.4167190574        0.3311022745        0.7750380394
Al               0.5832809426        0.3311022745        0.2249619606
O                0.1254312084        0.1595953959        0.3861628222
O                0.8745687616        0.1595953959        0.6138372068
O                0.8758910828        0.8362480307        0.6094761217
O                0.1241089172        0.8362480307        0.3905238783
O                0.6240797113        0.6697387529        0.3889223566
O                0.3759202887        0.6697387529        0.6110776434
O                0.3618705571        0.3325877094        0.6031343018
O                0.6381294429        0.3325877094        0.3968656982
O                0.3414694946        0.2023517529        0.1664750736
O                0.6585305054        0.2023517529        0.8335248964
O                0.9906064756        0.9974480832        0.1659037621
O                0.0093935244        0.9974480832        0.8340962229
O                0.6864248011        0.7751108855        0.8300554383
O                0.3135751989        0.7751108855        0.1699445617
O                0.8129009673        0.7325751805        0.1684878036
O                0.1870990327        0.7325751805        0.8315121964
O                0.4945973438        0.5079100563        0.1625316293
O                0.5054026262        0.5079100563        0.8374683857
O                0.1434809636        0.2769644810        0.8397959846
O                0.8565190514        0.2769644810        0.1602040154
O                0.1293565896        0.5040873783        0.3939764169
O                0.8706434254        0.5040873783        0.6060235831
O                0.6396533969        0.9999247726        0.3993847241
O                0.3603466031        0.9999247726        0.6006152459
H                0.0980396602        0.4948753699        0.2982564656
H                0.9019603698        0.4948753699        0.7017435344
H                0.6227231799        0.0155697709        0.3044107906
H                0.3772768201        0.0155697709        0.6955892094
Fe              -0.0000000000        0.0010267377        0.5000000000
End final coordinates



     Writing all to output data dir ./temp/phl-fe1-fe1-nspin.save/ :
     XML data file, charge density, pseudopotentials, collected wavefunctions

     init_run     :    105.45s CPU    106.65s WALL (       1 calls)
     electrons    :  39457.26s CPU  39833.20s WALL (      16 calls)
     update_pot   :     18.21s CPU     18.41s WALL (      15 calls)
     forces       :   1036.84s CPU   1045.43s WALL (      16 calls)
     force_dftd3  :     67.76s CPU     67.88s WALL (      16 calls)
     stress       :   3503.62s CPU   3540.85s WALL (      16 calls)
     stres_dftd3  :     68.16s CPU     68.30s WALL (      16 calls)

     Called by init_run:
     wfcinit      :     98.94s CPU     99.64s WALL (       1 calls)
     wfcinit:atom :      0.17s CPU      0.17s WALL (      20 calls)
     wfcinit:wfcr :     97.54s CPU     98.23s WALL (      20 calls)
     potinit      :      1.83s CPU      1.85s WALL (       1 calls)
     hinit0       :      1.12s CPU      1.15s WALL (       1 calls)

     Called by electrons:
     c_bands      :  36111.31s CPU  36333.36s WALL (     128 calls)
     sum_band     :   2863.13s CPU   2961.35s WALL (     128 calls)
     v_of_rho     :     21.80s CPU     22.56s WALL (     135 calls)
     v_h          :      1.55s CPU      1.64s WALL (     135 calls)
     v_xc         :     25.11s CPU     25.91s WALL (     167 calls)
     newd         :    334.77s CPU    396.68s WALL (     135 calls)
     PAW_pot      :    141.23s CPU    141.27s WALL (     150 calls)
     mix_rho      :      2.76s CPU      2.91s WALL (     128 calls)
     energy_dftd3 :     52.73s CPU     52.74s WALL (      16 calls)

     Called by c_bands:
     init_us_2    :     99.77s CPU     99.89s WALL (    6080 calls)
     cegterg      :  35924.45s CPU  36145.91s WALL (    2560 calls)

     Called by sum_band:
     sum_band:wei :      0.03s CPU      0.03s WALL (     128 calls)
     sum_band:loo :   2441.32s CPU   2471.69s WALL (     128 calls)
     sum_band:buf :     11.09s CPU     11.12s WALL (    2560 calls)
     sum_band:ini :     42.88s CPU     42.92s WALL (    2560 calls)
     sum_band:cal :   1960.71s CPU   1962.05s WALL (    2860 calls)
     sum_band:bec :      4.90s CPU      4.91s WALL (    2860 calls)
     addusdens    :    410.41s CPU    477.96s WALL (     128 calls)
                                        0.00s GPU  (     128 calls)
     addusd:skk   :      2.87s CPU      4.71s WALL (     896 calls)
                                        0.00s GPU  (     896 calls)

     Called by *egterg:
     cdiaghg      :   1352.28s CPU   1366.29s WALL (   19467 calls)
     cegterg:over :   4712.42s CPU   4714.18s WALL (   17387 calls)
     cegterg:upda :   2765.26s CPU   2778.25s WALL (   17387 calls)
     cegterg:last :   7267.10s CPU   7270.75s WALL (    6938 calls)
     cdiaghg:chol :     31.62s CPU     31.67s WALL (   19467 calls)
     cdiaghg:inve :     30.05s CPU     30.09s WALL (   19467 calls)
     cdiaghg:para :    605.83s CPU    612.16s WALL (   38934 calls)
     h_psi        :  13485.92s CPU  13630.49s WALL (   19967 calls)
     s_psi        :   5345.05s CPU   5346.11s WALL (   19967 calls)
     g_psi        :     25.56s CPU     25.63s WALL (   17387 calls)

     Called by h_psi:
     h_psi:calbec :   5311.26s CPU   5315.87s WALL (   19967 calls)
     vloc_psi     :   2803.51s CPU   2925.41s WALL (   19967 calls)
     add_vuspsi   :   5348.04s CPU   5349.15s WALL (   19967 calls)

     General routines
     calbec       :   8373.44s CPU   8380.16s WALL (   24427 calls)
     fft          :     15.39s CPU     16.74s WALL (    2147 calls)
     ffts         :      0.48s CPU      0.52s WALL (     263 calls)
     fftw         :   2386.81s CPU   2480.21s WALL ( 2852680 calls)
     interpolate  :      1.54s CPU      1.66s WALL (     135 calls)

     Parallel routines

     PAW routines
     PAW_pot      :    141.23s CPU    141.27s WALL (     150 calls)
     PAW_symme    :      0.07s CPU      0.07s WALL (     278 calls)

     PWSCF        :     12h19m CPU     12h26m WALL


   This run was terminated on:   8:13:30   3Jan2025            

=------------------------------------------------------------------------------=
   JOB DONE.
=------------------------------------------------------------------------------=
