
     Program PWSCF v.7.3.1 starts on  4Feb2025 at 13:49:39 

     This program is part of the open-source Quantum ESPRESSO suite
     for quantum simulation of materials; please cite
         "P. Giannozzi et al., J. Phys.:Condens. Matter 21 395502 (2009);
         "P. Giannozzi et al., J. Phys.:Condens. Matter 29 465901 (2017);
         "P. Giannozzi et al., J. Chem. Phys. 152 154105 (2020);
          URL http://www.quantum-espresso.org", 
     in publications or presentations arising from this work. More details at
     http://www.quantum-espresso.org/quote

     Parallel version (MPI), running on     6 processors

     MPI processes distributed on     1 nodes
     7109 MiB available memory on the printing compute node when the environment starts

     Reading input from relax.in

     Current dimensions of program PWSCF are:
     Max number of different atomic species (ntypx) = 10
     Max number of k-points (npk) =  40000
     Max angular momentum in pseudopotentials (lmaxx) =  4

     File ./temp/phl-fe1-fe2x2.update deleted, as requested
     file Al.pbe-n-kjpaw_psl.1.0.0.UPF: wavefunction(s)  3S 3P renormalized
     file Fe.pbe-spn-kjpaw_psl.1.0.0.UPF: wavefunction(s)  3P 3D renormalized
     file Fe.pbe-spn-kjpaw_psl.1.0.0.UPF: wavefunction(s)  3P 3D renormalized
     file H.pbe-kjpaw_psl.1.0.0.UPF: wavefunction(s)  1S renormalized
     file K.pbe-spn-kjpaw_psl.1.0.0.UPF: wavefunction(s)  3S renormalized
     file Mg.pbe-spnl-kjpaw_psl.1.0.0.UPF: wavefunction(s)  2P renormalized
     file O.pbe-n-kjpaw_psl.1.0.0.UPF: wavefunction(s)  2S 2P renormalized
     file Si.pbe-n-kjpaw_psl.1.0.0.UPF: wavefunction(s)  3S 3P renormalized

     R & G space division:  proc/nbgrp/npool/nimage =       6
     Subspace diagonalization in iterative solution of the eigenvalue problem:
     one sub-group per band group will be used
     custom distributed-memory algorithm (size of sub-group:  2*  2 procs)


     Parallelization info
     --------------------
     sticks:   dense  smooth     PW     G-vecs:    dense   smooth      PW
     Min        2245    1122    295               202075    71450    9650
     Max        2246    1123    296               202076    71451    9652
     Sum       13475    6737   1775              1212455   428701   57909

     Using Slab Decomposition



     bravais-lattice index     =          -12
     lattice parameter (alat)  =      20.1351  a.u.
     unit-cell volume          =    6828.4878 (a.u.)^3
     number of atoms/cell      =           88
     number of atomic types    =            8
     number of electrons       =       524.00
     number of Kohn-Sham states=          314
     kinetic-energy cutoff     =      60.0000  Ry
     charge density cutoff     =     480.0000  Ry
     scf convergence threshold =      1.0E-06
     mixing beta               =       0.7000
     number of iterations used =            8  plain     mixing
     energy convergence thresh.=      1.0E-04
     force convergence thresh. =      1.0E-03
     Exchange-correlation= SLA  PW   PBX  PBC
                           (   1   4   3   4   0   0   0)
     nstep                     =           50


     celldm(1)=  20.135087  celldm(2)=   0.869801  celldm(3)=   0.977339
     celldm(4)=   0.000000  celldm(5)=  -0.178119  celldm(6)=   0.000000

     crystal axes: (cart. coord. in units of alat)
               a(1) = (   1.000000   0.000000   0.000000 )  
               a(2) = (   0.000000   0.869801   0.000000 )  
               a(3) = (  -0.174083   0.000000   0.961710 )  

     reciprocal axes: (cart. coord. in units 2 pi/alat)
               b(1) = (  1.000000 -0.000000  0.181014 )  
               b(2) = (  0.000000  1.149688 -0.000000 )  
               b(3) = (  0.000000  0.000000  1.039814 )  


     PseudoPot. # 1 for Al read from file:
     ./../../../pseudos/Al.pbe-n-kjpaw_psl.1.0.0.UPF
     MD5 check sum: 502b6b27b9c6270cab5dd1084b96fa6d
     Pseudo is Projector augmented-wave + core cor, Zval =  3.0
     Generated using &quot;atomic&quot; code by A. Dal Corso  v.6.3
     Shape of augmentation charge: PSQ
     Using radial grid of 1135 points,  6 beta functions with: 
                l(1) =   0
                l(2) =   0
                l(3) =   1
                l(4) =   1
                l(5) =   2
                l(6) =   2
     Q(r) pseudized with 0 coefficients 


     PseudoPot. # 2 for Fe read from file:
     ./../../../pseudos/Fe.pbe-spn-kjpaw_psl.1.0.0.UPF
     MD5 check sum: fc81f059e5c5069939230b1155715ae8
     Pseudo is Projector augmented-wave + core cor, Zval = 16.0
     Generated using &quot;atomic&quot; code by A. Dal Corso  v.6.3
     Shape of augmentation charge: PSQ
     Using radial grid of 1191 points,  6 beta functions with: 
                l(1) =   0
                l(2) =   0
                l(3) =   1
                l(4) =   1
                l(5) =   2
                l(6) =   2
     Q(r) pseudized with 0 coefficients 


     PseudoPot. # 3 for Fe read from file:
     ./../../../pseudos/Fe.pbe-spn-kjpaw_psl.1.0.0.UPF
     MD5 check sum: fc81f059e5c5069939230b1155715ae8
     Pseudo is Projector augmented-wave + core cor, Zval = 16.0
     Generated using &quot;atomic&quot; code by A. Dal Corso  v.6.3
     Shape of augmentation charge: PSQ
     Using radial grid of 1191 points,  6 beta functions with: 
                l(1) =   0
                l(2) =   0
                l(3) =   1
                l(4) =   1
                l(5) =   2
                l(6) =   2
     Q(r) pseudized with 0 coefficients 


     PseudoPot. # 4 for H  read from file:
     ./../../../pseudos/H.pbe-kjpaw_psl.1.0.0.UPF
     MD5 check sum: d81a744832360e4a8af0b0b5b123bc2a
     Pseudo is Projector augmented-wave, Zval =  1.0
     Generated using &quot;atomic&quot; code by A. Dal Corso  v.6.3MaX
     Shape of augmentation charge: PSQ
     Using radial grid of  929 points,  2 beta functions with: 
                l(1) =   0
                l(2) =   0
     Q(r) pseudized with 0 coefficients 


     PseudoPot. # 5 for K  read from file:
     ./../../../pseudos/K.pbe-spn-kjpaw_psl.1.0.0.UPF
     MD5 check sum: 34cc42130a09071ebe376fd42eb21491
     Pseudo is Projector augmented-wave + core cor, Zval =  9.0
     Generated using &quot;atomic&quot; code by A. Dal Corso  v.6.2.2
     Shape of augmentation charge: PSQ
     Using radial grid of 1165 points,  6 beta functions with: 
                l(1) =   0
                l(2) =   0
                l(3) =   1
                l(4) =   1
                l(5) =   2
                l(6) =   2
     Q(r) pseudized with 0 coefficients 


     PseudoPot. # 6 for Mg read from file:
     ./../../../pseudos/Mg.pbe-spnl-kjpaw_psl.1.0.0.UPF
     MD5 check sum: fda14e0d92a6a9a5ebed782e5a4b3067
     Pseudo is Projector augmented-wave + core cor, Zval = 10.0
     Generated using &quot;atomic&quot; code by A. Dal Corso  v.6.3
     Shape of augmentation charge: PSQ
     Using radial grid of 1129 points,  4 beta functions with: 
                l(1) =   0
                l(2) =   0
                l(3) =   1
                l(4) =   1
     Q(r) pseudized with 0 coefficients 


     PseudoPot. # 7 for O  read from file:
     ./../../../pseudos/O.pbe-n-kjpaw_psl.1.0.0.UPF
     MD5 check sum: e99d9cef9b487d1ca56f5b95ecd0fd7a
     Pseudo is Projector augmented-wave + core cor, Zval =  6.0
     Generated using &quot;atomic&quot; code by A. Dal Corso  v.6.3
     Shape of augmentation charge: PSQ
     Using radial grid of 1095 points,  4 beta functions with: 
                l(1) =   0
                l(2) =   0
                l(3) =   1
                l(4) =   1
     Q(r) pseudized with 0 coefficients 


     PseudoPot. # 8 for Si read from file:
     ./../../../pseudos/Si.pbe-n-kjpaw_psl.1.0.0.UPF
     MD5 check sum: c39c59da582df4a0d9f10159256ea34e
     Pseudo is Projector augmented-wave + core cor, Zval =  4.0
     Generated using &quot;atomic&quot; code by A. Dal Corso  v.6.3
     Shape of augmentation charge: PSQ
     Using radial grid of 1141 points,  6 beta functions with: 
                l(1) =   0
                l(2) =   0
                l(3) =   1
                l(4) =   1
                l(5) =   2
                l(6) =   2
     Q(r) pseudized with 0 coefficients 


     atomic species   valence    mass     pseudopotential
     Al                3.00    26.98154     Al( 1.00)
     Fe1              16.00    55.84500     Fe( 1.00)
     Fe2              16.00    55.84500     Fe( 1.00)
     H                 1.00     1.00794     H ( 1.00)
     K                 9.00    39.09830     K ( 1.00)
     Mg               10.00    24.30500     Mg( 1.00)
     O                 6.00    15.99940     O ( 1.00)
     Si                4.00    28.08550     Si( 1.00)

     Starting magnetic structure 
     atomic species   magnetization
     Al              0.000
     Fe1             0.300
     Fe2             0.300
     H               0.000
     K               0.000
     Mg              0.000
     O               0.000
     Si              0.000

      2 Sym. Ops. (no inversion) found


                                    s                        frac. trans.

      isym =  1     identity                                     

 cryst.   s( 1) = (     1          0          0      )
                  (     0          1          0      )
                  (     0          0          1      )

 cart.    s( 1) = (  1.0000000  0.0000000  0.0000000 )
                  (  0.0000000  1.0000000  0.0000000 )
                  (  0.0000000  0.0000000  1.0000000 )


      isym =  2     180 deg rotation - cart. axis [0,1,0]        

 cryst.   s( 2) = (    -1          0          0      )
                  (     0          1          0      )
                  (     0          0         -1      )

 cart.    s( 2) = ( -1.0000000  0.0000000  0.0000000 )
                  (  0.0000000  1.0000000  0.0000000 )
                  (  0.0000000  0.0000000 -1.0000000 )


     point group C_2  (2)   
     there are  2 classes
     the character table:

       E     C2   
A      1.00  1.00
B      1.00 -1.00

     the symmetry operations in each class and the name of the first element:

     E        1
          identity                                               
     C2       2
          180 deg rotation - cart. axis [0,1,0]                  

   Cartesian axes

     site n.     atom                  positions (alat units)
         1        K      tau(   1) = (   0.0000000   0.4296389   0.0000000  )
         2        K      tau(   2) = (   0.5000000   0.4296389   0.0000000  )
         3        K      tau(   3) = (   0.2500001   0.0024501   0.0000000  )
         4        K      tau(   4) = (   0.7500001   0.0024501   0.0000000  )
         5        Mg     tau(   5) = (  -0.0870414   0.0055279   0.4808550  )
         6        Mg     tau(   6) = (   0.4129586   0.0055279   0.4808550  )
         7        Mg     tau(   7) = (  -0.0870414   0.5801280   0.4808550  )
         8        Mg     tau(   8) = (   0.4129586   0.5801280   0.4808550  )
         9        Mg     tau(   9) = (   0.1629587   0.4310949   0.4808550  )
        10        Mg     tau(  10) = (   0.6629587   0.4310949   0.4808550  )
        11        Mg     tau(  11) = (   0.1629587   0.7269300   0.4808550  )
        12        Mg     tau(  12) = (   0.6629587   0.7269300   0.4808550  )
        13        Mg     tau(  13) = (   0.1629587   0.1482588   0.4808550  )
        14        Mg     tau(  14) = (   0.6629587   0.1482588   0.4808550  )
        15        Si     tau(  15) = (   0.0074326   0.1420119   0.2164892  )
        16        Si     tau(  16) = (   0.5074326   0.1420119   0.2164892  )
        17        Si     tau(  17) = (   0.3184849   0.1420119   0.7452208  )
        18        Si     tau(  18) = (   0.8184849   0.1420119   0.7452208  )
        19        Si     tau(  19) = (   0.3331608   0.7257911   0.7377580  )
        20        Si     tau(  20) = (   0.8331608   0.7257911   0.7377580  )
        21        Si     tau(  21) = (  -0.0072433   0.7257911   0.2239520  )
        22        Si     tau(  22) = (   0.4927567   0.7257911   0.2239520  )
        23        Si     tau(  23) = (   0.2427667   0.5796705   0.2225784  )
        24        Si     tau(  24) = (   0.7427667   0.5796705   0.2225784  )
        25        Si     tau(  25) = (   0.0831508   0.5796705   0.7391315  )
        26        Si     tau(  26) = (   0.5831508   0.5796705   0.7391315  )
        27        Al     tau(  27) = (   0.0682443   0.2875617   0.7425041  )
        28        Al     tau(  28) = (   0.5682443   0.2875617   0.7425041  )
        29        Al     tau(  29) = (   0.2576732   0.2875617   0.2192058  )
        30        Al     tau(  30) = (   0.7576731   0.2875617   0.2192058  )
        31        O      tau(  31) = (   0.0017352   0.1371008   0.3693886  )
        32        O      tau(  32) = (   0.5017352   0.1371008   0.3693886  )
        33        O      tau(  33) = (   0.3241823   0.1371008   0.5923214  )
        34        O      tau(  34) = (   0.8241823   0.1371008   0.5923214  )
        35        O      tau(  35) = (   0.3309875   0.7260882   0.5856762  )
        36        O      tau(  36) = (   0.8309875   0.7260882   0.5856762  )
        37        O      tau(  37) = (  -0.0050700   0.7260882   0.3760337  )
        38        O      tau(  38) = (   0.4949300   0.7260882   0.3760337  )
        39        O      tau(  39) = (   0.2456591   0.5824087   0.3753945  )
        40        O      tau(  40) = (   0.7456591   0.5824087   0.3753945  )
        41        O      tau(  41) = (   0.0802583   0.5824087   0.5863155  )
        42        O      tau(  42) = (   0.5802583   0.5824087   0.5863155  )
        43        O      tau(  43) = (   0.0748950   0.2898192   0.5784747  )
        44        O      tau(  44) = (   0.5748950   0.2898192   0.5784747  )
        45        O      tau(  45) = (   0.2510225   0.2898192   0.3832352  )
        46        O      tau(  46) = (   0.7510224   0.2898192   0.3832352  )
        47        O      tau(  47) = (   0.1463863   0.1775489   0.1626707  )
        48        O      tau(  48) = (   0.6463863   0.1775489   0.1626707  )
        49        O      tau(  49) = (   0.1795312   0.1775489   0.7990392  )
        50        O      tau(  50) = (   0.6795312   0.1775489   0.7990392  )
        51        O      tau(  51) = (  -0.0250455   0.8667889   0.1630411  )
        52        O      tau(  52) = (   0.4749545   0.8667889   0.1630411  )
        53        O      tau(  53) = (   0.3509630   0.8667889   0.7986688  )
        54        O      tau(  54) = (   0.8509630   0.8667889   0.7986688  )
        55        O      tau(  55) = (   0.2001651   0.6682872   0.7942782  )
        56        O      tau(  56) = (   0.7001651   0.6682872   0.7942782  )
        57        O      tau(  57) = (   0.1257524   0.6682872   0.1674318  )
        58        O      tau(  58) = (   0.6257524   0.6682872   0.1674318  )
        59        O      tau(  59) = (   0.3751016   0.6421235   0.1665090  )
        60        O      tau(  60) = (   0.8751016   0.6421235   0.1665090  )
        61        O      tau(  61) = (  -0.0491842   0.6421235   0.7952009  )
        62        O      tau(  62) = (   0.4508158   0.6421235   0.7952009  )
        63        O      tau(  63) = (   0.2267361   0.4412388   0.1614261  )
        64        O      tau(  64) = (   0.7267362   0.4412388   0.1614261  )
        65        O      tau(  65) = (   0.0991813   0.4412388   0.8002838  )
        66        O      tau(  66) = (   0.5991813   0.4412388   0.8002838  )
        67        O      tau(  67) = (  -0.0785908   0.2392057   0.8031981  )
        68        O      tau(  68) = (   0.4214092   0.2392057   0.8031981  )
        69        O      tau(  69) = (   0.4045083   0.2392057   0.1585119  )
        70        O      tau(  70) = (   0.9045082   0.2392057   0.1585119  )
        71        O      tau(  71) = (  -0.0000042   0.4450115   0.3781135  )
        72        O      tau(  72) = (   0.4999958   0.4450115   0.3781135  )
        73        O      tau(  73) = (   0.3259217   0.4450115   0.5835965  )
        74        O      tau(  74) = (   0.8259217   0.4450115   0.5835965  )
        75        O      tau(  75) = (   0.2478596   0.8693925   0.3836472  )
        76        O      tau(  76) = (   0.7478596   0.8693925   0.3836472  )
        77        O      tau(  77) = (   0.0780579   0.8693925   0.5780627  )
        78        O      tau(  78) = (   0.5780579   0.8693925   0.5780627  )
        79        H      tau(  79) = (   0.0004471   0.4269259   0.2892434  )
        80        H      tau(  80) = (   0.5004471   0.4269259   0.2892434  )
        81        H      tau(  81) = (   0.3254704   0.4269259   0.6724666  )
        82        H      tau(  82) = (   0.8254704   0.4269259   0.6724666  )
        83        H      tau(  83) = (   0.2447352   0.0128545   0.2939423  )
        84        H      tau(  84) = (   0.7447351   0.0128545   0.2939423  )
        85        H      tau(  85) = (   0.0811823   0.0128545   0.6677677  )
        86        H      tau(  86) = (   0.5811823   0.0128545   0.6677677  )
        87        Fe1    tau(  87) = (  -0.0870414   0.2919251   0.4808550  )
        88        Fe2    tau(  88) = (   0.4129586   0.2919251   0.4808550  )

     --------------------------------------------
     DFT-D3 Dispersion Correction (3-body terms):
     --------------------------------------------
       Reference C6 values for interpolation: 

         atom   Coordination number   C6
         H          0.912             6.05
         H          0.000            15.18
         O          0.000            31.01
         O          0.993            25.63
         O          1.989            20.74
         Mg         0.000          1366.75
         Mg         0.963           902.54
         Mg         1.950           351.12
         Al         0.000          1081.08
         Al         0.965           875.51
         Al         1.931           513.50
         Al         2.915           307.19
         Si         0.000           635.71
         Si         0.951           540.53
         Si         1.944           466.25
         Si         2.941           443.01
         Si         3.868           299.55
         K          0.000          9967.00
         K          0.977           676.04
         Fe1        0.000           982.67
         Fe1        1.648           409.99
         Fe1        9.138           219.01
         Fe2        0.000           982.67
         Fe2        1.648           409.99
         Fe2        9.138           219.01

       Values used:

         atom   Coordination number  R0_AB[au]  C6      C8
         K         11.877            4.007    676.04 129074.98
         K         11.877            4.007    676.04 129074.98
         K         12.270            4.007    676.04 129074.98
         K         12.270            4.007    676.04 129074.98
         Mg        11.314            3.292    351.12  31436.69
         Mg        11.314            3.292    351.12  31436.69
         Mg        11.299            3.292    351.12  31436.69
         Mg        11.299            3.292    351.12  31436.69
         Mg        11.204            3.292    351.12  31436.69
         Mg        11.204            3.292    351.12  31436.69
         Mg        11.573            3.292    351.12  31436.69
         Mg        11.573            3.292    351.12  31436.69
         Mg        11.383            3.292    351.12  31436.69
         Mg        11.383            3.292    351.12  31436.69
         Si         6.519            3.583    299.55  21425.58
         Si         6.519            3.583    299.55  21425.58
         Si         6.519            3.583    299.55  21425.58
         Si         6.519            3.583    299.55  21425.58
         Si         6.299            3.583    299.55  21425.58
         Si         6.299            3.583    299.55  21425.58
         Si         6.299            3.583    299.55  21425.58
         Si         6.299            3.583    299.55  21425.58
         Si         6.332            3.583    299.55  21425.58
         Si         6.332            3.583    299.55  21425.58
         Si         6.332            3.583    299.55  21425.58
         Si         6.332            3.583    299.55  21425.58
         Al         7.195            3.789    307.19  29441.29
         Al         7.195            3.789    307.19  29441.29
         Al         7.195            3.789    307.19  29441.29
         Al         7.195            3.789    307.19  29441.29
         O          3.463            2.345     20.74    418.58
         O          3.463            2.345     20.74    418.58
         O          3.463            2.345     20.74    418.58
         O          3.463            2.345     20.74    418.58
         O          3.908            2.345     20.74    418.58
         O          3.908            2.345     20.74    418.58
         O          3.908            2.345     20.74    418.58
         O          3.908            2.345     20.74    418.58
         O          3.897            2.345     20.74    418.58
         O          3.897            2.345     20.74    418.58
         O          3.897            2.345     20.74    418.58
         O          3.897            2.345     20.74    418.58
         O          3.833            2.345     20.74    418.58
         O          3.833            2.345     20.74    418.58
         O          3.833            2.345     20.74    418.58
         O          3.833            2.345     20.74    418.58
         O          3.114            2.345     20.74    418.58
         O          3.114            2.345     20.74    418.58
         O          3.114            2.345     20.74    418.58
         O          3.114            2.345     20.74    418.58
         O          3.077            2.345     20.74    418.58
         O          3.077            2.345     20.74    418.58
         O          3.077            2.345     20.74    418.58
         O          3.077            2.345     20.74    418.58
         O          2.927            2.345     20.74    418.58
         O          2.927            2.345     20.74    418.58
         O          2.927            2.345     20.74    418.58
         O          2.927            2.345     20.74    418.58
         O          2.924            2.345     20.74    418.58
         O          2.924            2.345     20.74    418.58
         O          2.924            2.345     20.74    418.58
         O          2.924            2.345     20.74    418.58
         O          3.084            2.345     20.74    418.58
         O          3.084            2.345     20.74    418.58
         O          3.084            2.345     20.74    418.58
         O          3.084            2.345     20.74    418.58
         O          3.139            2.345     20.74    418.58
         O          3.139            2.345     20.74    418.58
         O          3.139            2.345     20.74    418.58
         O          3.139            2.345     20.74    418.58
         O          3.632            2.345     20.74    418.58
         O          3.632            2.345     20.74    418.58
         O          3.632            2.345     20.74    418.58
         O          3.632            2.345     20.74    418.58
         O          3.981            2.345     20.74    418.58
         O          3.981            2.345     20.74    418.58
         O          3.981            2.345     20.74    418.58
         O          3.981            2.345     20.74    418.58
         H          1.231            2.062      6.08     73.47
         H          1.231            2.062      6.08     73.47
         H          1.231            2.062      6.08     73.47
         H          1.231            2.062      6.08     73.47
         H          1.237            2.062      6.08     73.45
         H          1.237            2.062      6.08     73.45
         H          1.237            2.062      6.08     73.45
         H          1.237            2.062      6.08     73.45
         Fe1        7.261            3.252    219.01  20487.87
         Fe2        7.261            3.252    219.01  20487.87

         Molecular C6 ( Ry / a.u.^6 ) =    661236.15


   Crystallographic axes

     site n.     atom                  positions (cryst. coord.)
         1        K      tau(   1) = (  0.0000000  0.4939509  0.0000000  )
         2        K      tau(   2) = (  0.5000000  0.4939509  0.0000000  )
         3        K      tau(   3) = (  0.2500001  0.0028168  0.0000000  )
         4        K      tau(   4) = (  0.7500001  0.0028168  0.0000000  )
         5        Mg     tau(   5) = (  0.0000000  0.0063553  0.4999999  )
         6        Mg     tau(   6) = (  0.5000000  0.0063553  0.4999999  )
         7        Mg     tau(   7) = (  0.0000000  0.6669664  0.4999999  )
         8        Mg     tau(   8) = (  0.5000000  0.6669664  0.4999999  )
         9        Mg     tau(   9) = (  0.2500001  0.4956248  0.4999999  )
        10        Mg     tau(  10) = (  0.7500001  0.4956248  0.4999999  )
        11        Mg     tau(  11) = (  0.2500001  0.8357430  0.4999999  )
        12        Mg     tau(  12) = (  0.7500001  0.8357430  0.4999999  )
        13        Mg     tau(  13) = (  0.2500001  0.1704514  0.4999999  )
        14        Mg     tau(  14) = (  0.7500001  0.1704514  0.4999999  )
        15        Si     tau(  15) = (  0.0466201  0.1632694  0.2251086  )
        16        Si     tau(  16) = (  0.5466201  0.1632694  0.2251086  )
        17        Si     tau(  17) = (  0.4533802  0.1632694  0.7748913  )
        18        Si     tau(  18) = (  0.9533802  0.1632694  0.7748913  )
        19        Si     tau(  19) = (  0.4667052  0.8344337  0.7671314  )
        20        Si     tau(  20) = (  0.9667052  0.8344337  0.7671314  )
        21        Si     tau(  21) = (  0.0332951  0.8344337  0.2328685  )
        22        Si     tau(  22) = (  0.5332951  0.8344337  0.2328685  )
        23        Si     tau(  23) = (  0.2830564  0.6664404  0.2314402  )
        24        Si     tau(  24) = (  0.7830564  0.6664404  0.2314402  )
        25        Si     tau(  25) = (  0.2169439  0.6664404  0.7685596  )
        26        Si     tau(  26) = (  0.7169439  0.6664404  0.7685596  )
        27        Al     tau(  27) = (  0.2026479  0.3306063  0.7720665  )
        28        Al     tau(  28) = (  0.7026479  0.3306063  0.7720665  )
        29        Al     tau(  29) = (  0.2973525  0.3306063  0.2279334  )
        30        Al     tau(  30) = (  0.7973524  0.3306063  0.2279334  )
        31        O      tau(  31) = (  0.0685997  0.1576232  0.3840956  )
        32        O      tau(  32) = (  0.5685996  0.1576232  0.3840956  )
        33        O      tau(  33) = (  0.4314007  0.1576232  0.6159044  )
        34        O      tau(  34) = (  0.9314007  0.1576232  0.6159044  )
        35        O      tau(  35) = (  0.4370030  0.8347753  0.6089946  )
        36        O      tau(  36) = (  0.9370030  0.8347753  0.6089946  )
        37        O      tau(  37) = (  0.0629973  0.8347753  0.3910053  )
        38        O      tau(  38) = (  0.5629973  0.8347753  0.3910053  )
        39        O      tau(  39) = (  0.3136107  0.6695885  0.3903406  )
        40        O      tau(  40) = (  0.8136107  0.6695885  0.3903406  )
        41        O      tau(  41) = (  0.1863896  0.6695885  0.6096593  )
        42        O      tau(  42) = (  0.6863896  0.6695885  0.6096593  )
        43        O      tau(  43) = (  0.1796070  0.3332018  0.6015063  )
        44        O      tau(  44) = (  0.6796070  0.3332018  0.6015063  )
        45        O      tau(  45) = (  0.3203934  0.3332018  0.3984935  )
        46        O      tau(  46) = (  0.8203933  0.3332018  0.3984935  )
        47        O      tau(  47) = (  0.1758320  0.2041259  0.1691474  )
        48        O      tau(  48) = (  0.6758320  0.2041259  0.1691474  )
        49        O      tau(  49) = (  0.3241684  0.2041259  0.8308524  )
        50        O      tau(  50) = (  0.8241683  0.2041259  0.8308524  )
        51        O      tau(  51) = (  0.0044672  0.9965371  0.1695325  )
        52        O      tau(  52) = (  0.5044672  0.9965371  0.1695325  )
        53        O      tau(  53) = (  0.4955331  0.9965371  0.8304673  )
        54        O      tau(  54) = (  0.9955331  0.9965371  0.8304673  )
        55        O      tau(  55) = (  0.3439404  0.7683221  0.8259019  )
        56        O      tau(  56) = (  0.8439404  0.7683221  0.8259019  )
        57        O      tau(  57) = (  0.1560599  0.7683221  0.1740980  )
        58        O      tau(  58) = (  0.6560599  0.7683221  0.1740980  )
        59        O      tau(  59) = (  0.4052421  0.7382420  0.1731385  )
        60        O      tau(  60) = (  0.9052421  0.7382420  0.1731385  )
        61        O      tau(  61) = (  0.0947582  0.7382420  0.8268614  )
        62        O      tau(  62) = (  0.5947582  0.7382420  0.8268614  )
        63        O      tau(  63) = (  0.2559565  0.5072872  0.1678532  )
        64        O      tau(  64) = (  0.7559565  0.5072872  0.1678532  )
        65        O      tau(  65) = (  0.2440438  0.5072872  0.8321466  )
        66        O      tau(  66) = (  0.7440438  0.5072872  0.8321466  )
        67        O      tau(  67) = (  0.0667992  0.2750120  0.8351769  )
        68        O      tau(  68) = (  0.5667992  0.2750120  0.8351769  )
        69        O      tau(  69) = (  0.4332011  0.2750120  0.1648230  )
        70        O      tau(  70) = (  0.9332011  0.2750120  0.1648230  )
        71        O      tau(  71) = (  0.0684395  0.5116246  0.3931678  )
        72        O      tau(  72) = (  0.5684395  0.5116246  0.3931678  )
        73        O      tau(  73) = (  0.4315608  0.5116246  0.6068321  )
        74        O      tau(  74) = (  0.9315608  0.5116246  0.6068321  )
        75        O      tau(  75) = (  0.3173051  0.9995306  0.3989219  )
        76        O      tau(  76) = (  0.8173051  0.9995306  0.3989219  )
        77        O      tau(  77) = (  0.1826953  0.9995306  0.6010780  )
        78        O      tau(  78) = (  0.6826953  0.9995306  0.6010780  )
        79        H      tau(  79) = (  0.0528041  0.4908318  0.3007595  )
        80        H      tau(  80) = (  0.5528042  0.4908318  0.3007595  )
        81        H      tau(  81) = (  0.4471962  0.4908318  0.6992404  )
        82        H      tau(  82) = (  0.9471962  0.4908318  0.6992404  )
        83        H      tau(  83) = (  0.2979428  0.0147786  0.3056454  )
        84        H      tau(  84) = (  0.7979428  0.0147786  0.3056454  )
        85        H      tau(  85) = (  0.2020575  0.0147786  0.6943545  )
        86        H      tau(  86) = (  0.7020575  0.0147786  0.6943545  )
        87        Fe1    tau(  87) = (  0.0000000  0.3356230  0.4999999  )
        88        Fe2    tau(  88) = (  0.5000000  0.3356230  0.4999999  )

     number of k points=    10  Gaussian smearing, width (Ry)=  0.0010
                       cart. coord. in units 2pi/alat
        k(    1) = (   0.0000000   0.0000000   0.0000000), wk =   0.0370370
        k(    2) = (   0.0000000   0.0000000   0.3466048), wk =   0.0740741
        k(    3) = (   0.0000000   0.3832295   0.0000000), wk =   0.0740741
        k(    4) = (   0.0000000   0.3832295   0.3466048), wk =   0.1481481
        k(    5) = (   0.3333333   0.0000000   0.0603380), wk =   0.0740741
        k(    6) = (   0.3333333   0.0000000   0.4069428), wk =   0.0740741
        k(    7) = (   0.3333333   0.0000000  -0.2862669), wk =   0.0740741
        k(    8) = (   0.3333333   0.3832295   0.0603380), wk =   0.1481481
        k(    9) = (   0.3333333   0.3832295   0.4069428), wk =   0.1481481
        k(   10) = (   0.3333333   0.3832295  -0.2862669), wk =   0.1481481

                       cryst. coord.
        k(    1) = (   0.0000000   0.0000000   0.0000000), wk =   0.0370370
        k(    2) = (   0.0000000   0.0000000   0.3333333), wk =   0.0740741
        k(    3) = (   0.0000000   0.3333333   0.0000000), wk =   0.0740741
        k(    4) = (   0.0000000   0.3333333   0.3333333), wk =   0.1481481
        k(    5) = (   0.3333333   0.0000000   0.0000000), wk =   0.0740741
        k(    6) = (   0.3333333   0.0000000   0.3333333), wk =   0.0740741
        k(    7) = (   0.3333333   0.0000000  -0.3333333), wk =   0.0740741
        k(    8) = (   0.3333333   0.3333333   0.0000000), wk =   0.1481481
        k(    9) = (   0.3333333   0.3333333   0.3333333), wk =   0.1481481
        k(   10) = (   0.3333333   0.3333333  -0.3333333), wk =   0.1481481

     Dense  grid:  1212455 G-vectors     FFT dimensions: ( 144, 125, 144)

     Smooth grid:   428701 G-vectors     FFT dimensions: ( 100,  90, 100)

     Dynamical RAM for                 wfc:      42.80 MB

     Dynamical RAM for     wfc (w. buffer):     898.71 MB

     Dynamical RAM for           str. fact:      24.67 MB

     Dynamical RAM for           local pot:       0.00 MB

     Dynamical RAM for          nlocal pot:     119.39 MB

     Dynamical RAM for                qrad:      14.06 MB

     Dynamical RAM for          rho,v,vnew:      38.28 MB

     Dynamical RAM for               rhoin:      12.76 MB

     Dynamical RAM for            rho*nmix:      98.67 MB

     Dynamical RAM for           G-vectors:      12.11 MB

     Dynamical RAM for          h,s,v(r/c):       4.51 MB

     Dynamical RAM for          <psi|beta>:       4.20 MB

     Dynamical RAM for                 psi:      85.59 MB

     Dynamical RAM for                hpsi:      85.59 MB

     Dynamical RAM for                spsi:      85.59 MB

     Dynamical RAM for      wfcinit/wfcrot:     102.83 MB

     Dynamical RAM for           addusdens:     724.61 MB

     Dynamical RAM for          addusforce:    1014.83 MB

     Estimated static dynamical RAM per process >       1.14 GB

     Estimated max dynamical RAM per process >       2.23 GB

     Estimated total dynamical RAM >      13.37 GB

     Check: negative core charge=   -0.000004
     Generating pointlists ...
     new r_m :   0.0677 (alat units)  1.3636 (a.u.) for type    1
     new r_m :   0.0780 (alat units)  1.5706 (a.u.) for type    2
     new r_m :   0.0780 (alat units)  1.5706 (a.u.) for type    3
     new r_m :   0.0374 (alat units)  0.7533 (a.u.) for type    4
     new r_m :   0.1075 (alat units)  2.1636 (a.u.) for type    5
     new r_m :   0.0787 (alat units)  1.5844 (a.u.) for type    6
     new r_m :   0.0374 (alat units)  0.7533 (a.u.) for type    7
     new r_m :   0.0627 (alat units)  1.2633 (a.u.) for type    8

     Initial potential from superposition of free atoms

     starting charge     523.8985, renormalised to     524.0000
     Starting wfcs are  366 randomized atomic wfcs
     Checking if some PAW data can be deallocated... 
       PAW data deallocated on    5 nodes for type:  1
       PAW data deallocated on    5 nodes for type:  2
       PAW data deallocated on    5 nodes for type:  3
       PAW data deallocated on    5 nodes for type:  4
       PAW data deallocated on    5 nodes for type:  5
       PAW data deallocated on    5 nodes for type:  6
       PAW data deallocated on    2 nodes for type:  7
       PAW data deallocated on    4 nodes for type:  8

     total cpu time spent up to now is      628.2 secs

     Self-consistent Calculation

     iteration #  1     ecut=    60.00 Ry     beta= 0.70
     Davidson diagonalization with overlap

---- Real-time Memory Report at c_bands before calling an iterative solver
          1286 MiB given to the printing process from OS
             0 MiB allocation reported by mallinfo(arena+hblkhd)
           941 MiB available memory on the node where the printing process lives
------------------
     ethr =  1.00E-02,  avg # of iterations =  5.8

     negative rho (up, down):  0.000E+00 2.801E-04

     total cpu time spent up to now is     2673.0 secs

     total energy              =   -5247.34147533 Ry
     estimated scf accuracy    <      24.94692247 Ry

     total magnetization       =     8.00 Bohr mag/cell
     absolute magnetization    =     8.12 Bohr mag/cell

     iteration #  2     ecut=    60.00 Ry     beta= 0.70
     Davidson diagonalization with overlap

---- Real-time Memory Report at c_bands before calling an iterative solver
          1890 MiB given to the printing process from OS
             0 MiB allocation reported by mallinfo(arena+hblkhd)
          3693 MiB available memory on the node where the printing process lives
------------------
     ethr =  4.76E-03,  avg # of iterations =  5.0

     negative rho (up, down):  0.000E+00 1.895E-04

     total cpu time spent up to now is     5877.1 secs

     total energy              =   -5256.80543502 Ry
     estimated scf accuracy    <      27.26076834 Ry

     total magnetization       =     6.00 Bohr mag/cell
     absolute magnetization    =     7.85 Bohr mag/cell

     iteration #  3     ecut=    60.00 Ry     beta= 0.70
     Davidson diagonalization with overlap

---- Real-time Memory Report at c_bands before calling an iterative solver
          1894 MiB given to the printing process from OS
             0 MiB allocation reported by mallinfo(arena+hblkhd)
          3476 MiB available memory on the node where the printing process lives
------------------
     ethr =  4.76E-03,  avg # of iterations =  4.5

     negative rho (up, down):  0.000E+00 9.214E-05

     total cpu time spent up to now is     7538.5 secs

     total energy              =   -5259.10632646 Ry
     estimated scf accuracy    <      49.57784332 Ry

     total magnetization       =     0.01 Bohr mag/cell
     absolute magnetization    =     2.23 Bohr mag/cell

     iteration #  4     ecut=    60.00 Ry     beta= 0.70
     Davidson diagonalization with overlap

---- Real-time Memory Report at c_bands before calling an iterative solver
          1899 MiB given to the printing process from OS
             0 MiB allocation reported by mallinfo(arena+hblkhd)
          3350 MiB available memory on the node where the printing process lives
------------------
     ethr =  4.76E-03,  avg # of iterations =  4.4

     negative rho (up, down):  0.000E+00 1.885E-04

     total cpu time spent up to now is     9174.9 secs

     total energy              =   -5260.62952396 Ry
     estimated scf accuracy    <       8.37000716 Ry

     total magnetization       =     6.13 Bohr mag/cell
     absolute magnetization    =     7.20 Bohr mag/cell

     iteration #  5     ecut=    60.00 Ry     beta= 0.70
     Davidson diagonalization with overlap

---- Real-time Memory Report at c_bands before calling an iterative solver
          1904 MiB given to the printing process from OS
             0 MiB allocation reported by mallinfo(arena+hblkhd)
          3482 MiB available memory on the node where the printing process lives
------------------
     ethr =  1.60E-03,  avg # of iterations =  4.8

     negative rho (up, down):  0.000E+00 3.762E-04

     total cpu time spent up to now is    10983.0 secs

     total energy              =   -5261.66853203 Ry
     estimated scf accuracy    <       5.84313396 Ry

     total magnetization       =     6.11 Bohr mag/cell
     absolute magnetization    =     7.14 Bohr mag/cell

     iteration #  6     ecut=    60.00 Ry     beta= 0.70
     Davidson diagonalization with overlap

---- Real-time Memory Report at c_bands before calling an iterative solver
          1909 MiB given to the printing process from OS
             0 MiB allocation reported by mallinfo(arena+hblkhd)
          3421 MiB available memory on the node where the printing process lives
------------------
     ethr =  1.12E-03,  avg # of iterations =  2.8

     negative rho (up, down):  0.000E+00 5.344E-04

     total cpu time spent up to now is    12652.8 secs

     total energy              =   -5262.11953070 Ry
     estimated scf accuracy    <       1.10602057 Ry

     total magnetization       =     8.00 Bohr mag/cell
     absolute magnetization    =     8.44 Bohr mag/cell

     iteration #  7     ecut=    60.00 Ry     beta= 0.70
     Davidson diagonalization with overlap

---- Real-time Memory Report at c_bands before calling an iterative solver
          1914 MiB given to the printing process from OS
             0 MiB allocation reported by mallinfo(arena+hblkhd)
          3427 MiB available memory on the node where the printing process lives
------------------
     ethr =  2.11E-04,  avg # of iterations = 13.9

     negative rho (up, down):  0.000E+00 6.332E-04

     total cpu time spent up to now is    15398.1 secs

     total energy              =   -5262.49272965 Ry
     estimated scf accuracy    <       0.21581613 Ry

     total magnetization       =     8.00 Bohr mag/cell
     absolute magnetization    =     8.16 Bohr mag/cell

     iteration #  8     ecut=    60.00 Ry     beta= 0.70
     Davidson diagonalization with overlap

---- Real-time Memory Report at c_bands before calling an iterative solver
          1919 MiB given to the printing process from OS
             0 MiB allocation reported by mallinfo(arena+hblkhd)
          4708 MiB available memory on the node where the printing process lives
------------------
     c_bands:  1 eigenvalues not converged
     c_bands:  1 eigenvalues not converged
     c_bands:  1 eigenvalues not converged
     ethr =  4.12E-05,  avg # of iterations = 13.4

     negative rho (up, down):  0.000E+00 6.622E-04

     total cpu time spent up to now is    17746.2 secs

     total energy              =   -5262.49748395 Ry
     estimated scf accuracy    <       0.13418151 Ry

     total magnetization       =     8.00 Bohr mag/cell
     absolute magnetization    =     8.17 Bohr mag/cell

     iteration #  9     ecut=    60.00 Ry     beta= 0.70
     Davidson diagonalization with overlap

---- Real-time Memory Report at c_bands before calling an iterative solver
          1923 MiB given to the printing process from OS
             0 MiB allocation reported by mallinfo(arena+hblkhd)
          4573 MiB available memory on the node where the printing process lives
------------------
     ethr =  2.56E-05,  avg # of iterations =  2.5

     negative rho (up, down):  0.000E+00 7.052E-04

     total cpu time spent up to now is    19533.3 secs

     total energy              =   -5262.50213666 Ry
     estimated scf accuracy    <       0.02928189 Ry

     total magnetization       =     8.00 Bohr mag/cell
     absolute magnetization    =     8.16 Bohr mag/cell

     iteration # 10     ecut=    60.00 Ry     beta= 0.70
     Davidson diagonalization with overlap

---- Real-time Memory Report at c_bands before calling an iterative solver
          1928 MiB given to the printing process from OS
             0 MiB allocation reported by mallinfo(arena+hblkhd)
          4668 MiB available memory on the node where the printing process lives
------------------
     c_bands:  3 eigenvalues not converged
     c_bands:  1 eigenvalues not converged
     c_bands:  1 eigenvalues not converged
     ethr =  5.59E-06,  avg # of iterations = 13.8

     negative rho (up, down):  0.000E+00 7.333E-04

     total cpu time spent up to now is    23585.1 secs

     total energy              =   -5262.53025325 Ry
     estimated scf accuracy    <       0.02550848 Ry

     total magnetization       =     8.00 Bohr mag/cell
     absolute magnetization    =     8.13 Bohr mag/cell

     iteration # 11     ecut=    60.00 Ry     beta= 0.70
     Davidson diagonalization with overlap

---- Real-time Memory Report at c_bands before calling an iterative solver
          1928 MiB given to the printing process from OS
             0 MiB allocation reported by mallinfo(arena+hblkhd)
          4502 MiB available memory on the node where the printing process lives
------------------
     ethr =  4.87E-06,  avg # of iterations =  2.0

     negative rho (up, down):  0.000E+00 7.403E-04

     total cpu time spent up to now is    25191.1 secs

     total energy              =   -5262.52307939 Ry
     estimated scf accuracy    <       0.01528328 Ry

     total magnetization       =     8.00 Bohr mag/cell
     absolute magnetization    =     8.13 Bohr mag/cell

     iteration # 12     ecut=    60.00 Ry     beta= 0.70
     Davidson diagonalization with overlap

---- Real-time Memory Report at c_bands before calling an iterative solver
          1928 MiB given to the printing process from OS
             0 MiB allocation reported by mallinfo(arena+hblkhd)
          4512 MiB available memory on the node where the printing process lives
------------------
     c_bands:  1 eigenvalues not converged
     c_bands:  1 eigenvalues not converged
     c_bands:  1 eigenvalues not converged
     c_bands:  1 eigenvalues not converged
     ethr =  2.92E-06,  avg # of iterations = 13.8

     negative rho (up, down):  0.000E+00 7.511E-04

     total cpu time spent up to now is    27573.5 secs

     total energy              =   -5262.52794940 Ry
     estimated scf accuracy    <       0.00207351 Ry

     total magnetization       =     8.00 Bohr mag/cell
     absolute magnetization    =     8.09 Bohr mag/cell

     iteration # 13     ecut=    60.00 Ry     beta= 0.70
     Davidson diagonalization with overlap

---- Real-time Memory Report at c_bands before calling an iterative solver
          1928 MiB given to the printing process from OS
             0 MiB allocation reported by mallinfo(arena+hblkhd)
          4601 MiB available memory on the node where the printing process lives
------------------
     c_bands:  1 eigenvalues not converged
     c_bands:  1 eigenvalues not converged
     ethr =  3.96E-07,  avg # of iterations =  6.8

     negative rho (up, down):  0.000E+00 7.639E-04

     total cpu time spent up to now is    30418.9 secs

     total energy              =   -5262.52874959 Ry
     estimated scf accuracy    <       0.00562578 Ry

     total magnetization       =     8.00 Bohr mag/cell
     absolute magnetization    =     8.10 Bohr mag/cell

     iteration # 14     ecut=    60.00 Ry     beta= 0.70
     Davidson diagonalization with overlap

---- Real-time Memory Report at c_bands before calling an iterative solver
          1928 MiB given to the printing process from OS
             0 MiB allocation reported by mallinfo(arena+hblkhd)
          4433 MiB available memory on the node where the printing process lives
------------------
     ethr =  3.96E-07,  avg # of iterations =  2.8

     negative rho (up, down):  0.000E+00 7.588E-04

     total cpu time spent up to now is    32034.2 secs

     total energy              =   -5262.52877718 Ry
     estimated scf accuracy    <       0.00243151 Ry

     total magnetization       =     8.00 Bohr mag/cell
     absolute magnetization    =     8.10 Bohr mag/cell

     iteration # 15     ecut=    60.00 Ry     beta= 0.70
     Davidson diagonalization with overlap

---- Real-time Memory Report at c_bands before calling an iterative solver
          1928 MiB given to the printing process from OS
             0 MiB allocation reported by mallinfo(arena+hblkhd)
          4436 MiB available memory on the node where the printing process lives
------------------
     ethr =  3.96E-07,  avg # of iterations =  2.0

     negative rho (up, down):  0.000E+00 7.649E-04

     total cpu time spent up to now is    33660.1 secs

     total energy              =   -5262.52779586 Ry
     estimated scf accuracy    <       0.00160023 Ry

     total magnetization       =     8.00 Bohr mag/cell
     absolute magnetization    =     8.10 Bohr mag/cell

     iteration # 16     ecut=    60.00 Ry     beta= 0.70
     Davidson diagonalization with overlap

---- Real-time Memory Report at c_bands before calling an iterative solver
          1928 MiB given to the printing process from OS
             0 MiB allocation reported by mallinfo(arena+hblkhd)
          4511 MiB available memory on the node where the printing process lives
------------------
     ethr =  3.05E-07,  avg # of iterations =  5.6

     negative rho (up, down):  0.000E+00 7.619E-04

     total cpu time spent up to now is    36881.3 secs

     total energy              =   -5262.52868169 Ry
     estimated scf accuracy    <       0.00200581 Ry

     total magnetization       =     8.00 Bohr mag/cell
     absolute magnetization    =     8.09 Bohr mag/cell

     iteration # 17     ecut=    60.00 Ry     beta= 0.70
     Davidson diagonalization with overlap

---- Real-time Memory Report at c_bands before calling an iterative solver
          1928 MiB given to the printing process from OS
             0 MiB allocation reported by mallinfo(arena+hblkhd)
          4553 MiB available memory on the node where the printing process lives
------------------
     ethr =  3.05E-07,  avg # of iterations =  4.5

     negative rho (up, down):  0.000E+00 7.625E-04

     total cpu time spent up to now is    38502.9 secs

     total energy              =   -5262.52858328 Ry
     estimated scf accuracy    <       0.00062676 Ry

     total magnetization       =     8.00 Bohr mag/cell
     absolute magnetization    =     8.09 Bohr mag/cell

     iteration # 18     ecut=    60.00 Ry     beta= 0.70
     Davidson diagonalization with overlap

---- Real-time Memory Report at c_bands before calling an iterative solver
          1928 MiB given to the printing process from OS
             0 MiB allocation reported by mallinfo(arena+hblkhd)
          4595 MiB available memory on the node where the printing process lives
------------------
     ethr =  1.20E-07,  avg # of iterations =  4.0

     negative rho (up, down):  0.000E+00 7.625E-04

     total cpu time spent up to now is    40405.2 secs

     total energy              =   -5262.52871131 Ry
     estimated scf accuracy    <       0.00007320 Ry

     total magnetization       =     8.00 Bohr mag/cell
     absolute magnetization    =     8.09 Bohr mag/cell

     iteration # 19     ecut=    60.00 Ry     beta= 0.70
     Davidson diagonalization with overlap

---- Real-time Memory Report at c_bands before calling an iterative solver
          1928 MiB given to the printing process from OS
             0 MiB allocation reported by mallinfo(arena+hblkhd)
          4648 MiB available memory on the node where the printing process lives
------------------
     ethr =  1.40E-08,  avg # of iterations =  5.3

     negative rho (up, down):  0.000E+00 7.622E-04

     total cpu time spent up to now is    43378.5 secs

     total energy              =   -5262.52877518 Ry
     estimated scf accuracy    <       0.00001529 Ry

     total magnetization       =     8.00 Bohr mag/cell
     absolute magnetization    =     8.09 Bohr mag/cell

     iteration # 20     ecut=    60.00 Ry     beta= 0.70
     Davidson diagonalization with overlap

---- Real-time Memory Report at c_bands before calling an iterative solver
          1928 MiB given to the printing process from OS
             0 MiB allocation reported by mallinfo(arena+hblkhd)
          4629 MiB available memory on the node where the printing process lives
------------------
     ethr =  2.92E-09,  avg # of iterations =  2.6

     negative rho (up, down):  0.000E+00 7.618E-04

     total cpu time spent up to now is    45080.2 secs

     total energy              =   -5262.52877472 Ry
     estimated scf accuracy    <       0.00000540 Ry

     total magnetization       =     8.00 Bohr mag/cell
     absolute magnetization    =     8.09 Bohr mag/cell

     iteration # 21     ecut=    60.00 Ry     beta= 0.70
     Davidson diagonalization with overlap

---- Real-time Memory Report at c_bands before calling an iterative solver
          1928 MiB given to the printing process from OS
             0 MiB allocation reported by mallinfo(arena+hblkhd)
          4139 MiB available memory on the node where the printing process lives
------------------
     ethr =  1.03E-09,  avg # of iterations =  8.8

     negative rho (up, down):  0.000E+00 7.618E-04

     total cpu time spent up to now is    48195.7 secs

     total energy              =   -5262.52877797 Ry
     estimated scf accuracy    <       0.00000262 Ry

     total magnetization       =     8.00 Bohr mag/cell
     absolute magnetization    =     8.09 Bohr mag/cell

     iteration # 22     ecut=    60.00 Ry     beta= 0.70
     Davidson diagonalization with overlap

---- Real-time Memory Report at c_bands before calling an iterative solver
          1928 MiB given to the printing process from OS
             0 MiB allocation reported by mallinfo(arena+hblkhd)
          3959 MiB available memory on the node where the printing process lives
------------------
     ethr =  5.01E-10,  avg # of iterations =  3.0

     negative rho (up, down):  0.000E+00 7.616E-04

     Magnetic moment per site  (integrated on atomic sphere of radius R)
     atom   1 (R=0.107)  charge=  7.5394  magn=  0.0001
     atom   2 (R=0.107)  charge=  7.5394  magn=  0.0001
     atom   3 (R=0.107)  charge=  7.5438  magn=  0.0001
     atom   4 (R=0.107)  charge=  7.5438  magn=  0.0001
     atom   5 (R=0.079)  charge=  8.1110  magn= -0.0002
     atom   6 (R=0.079)  charge=  8.1110  magn= -0.0002
     atom   7 (R=0.079)  charge=  8.1072  magn= -0.0000
     atom   8 (R=0.079)  charge=  8.1072  magn= -0.0000
     atom   9 (R=0.079)  charge=  8.1103  magn=  0.0007
     atom  10 (R=0.079)  charge=  8.1103  magn=  0.0007
     atom  11 (R=0.079)  charge=  8.1061  magn= -0.0000
     atom  12 (R=0.079)  charge=  8.1061  magn= -0.0000
     atom  13 (R=0.079)  charge=  8.1136  magn=  0.0006
     atom  14 (R=0.079)  charge=  8.1136  magn=  0.0006
     atom  15 (R=0.063)  charge=  0.5512  magn=  0.0008
     atom  16 (R=0.063)  charge=  0.5512  magn=  0.0008
     atom  17 (R=0.063)  charge=  0.5512  magn=  0.0008
     atom  18 (R=0.063)  charge=  0.5512  magn=  0.0008
     atom  19 (R=0.063)  charge=  0.5436  magn= -0.0000
     atom  20 (R=0.063)  charge=  0.5436  magn= -0.0000
     atom  21 (R=0.063)  charge=  0.5436  magn= -0.0000
     atom  22 (R=0.063)  charge=  0.5436  magn= -0.0000
     atom  23 (R=0.063)  charge=  0.5433  magn=  0.0000
     atom  24 (R=0.063)  charge=  0.5433  magn=  0.0000
     atom  25 (R=0.063)  charge=  0.5433  magn=  0.0000
     atom  26 (R=0.063)  charge=  0.5433  magn=  0.0000
     atom  27 (R=0.068)  charge=  0.3432  magn=  0.0014
     atom  28 (R=0.068)  charge=  0.3433  magn=  0.0014
     atom  29 (R=0.068)  charge=  0.3433  magn=  0.0014
     atom  30 (R=0.068)  charge=  0.3432  magn=  0.0014
     atom  31 (R=0.037)  charge=  1.9380  magn=  0.0156
     atom  32 (R=0.037)  charge=  1.9379  magn=  0.0156
     atom  33 (R=0.037)  charge=  1.9379  magn=  0.0156
     atom  34 (R=0.037)  charge=  1.9380  magn=  0.0156
     atom  35 (R=0.037)  charge=  1.9414  magn=  0.0004
     atom  36 (R=0.037)  charge=  1.9414  magn=  0.0004
     atom  37 (R=0.037)  charge=  1.9414  magn=  0.0004
     atom  38 (R=0.037)  charge=  1.9414  magn=  0.0004
     atom  39 (R=0.037)  charge=  1.9406  magn=  0.0004
     atom  40 (R=0.037)  charge=  1.9406  magn=  0.0004
     atom  41 (R=0.037)  charge=  1.9406  magn=  0.0004
     atom  42 (R=0.037)  charge=  1.9406  magn=  0.0004
     atom  43 (R=0.037)  charge=  1.9329  magn=  0.0276
     atom  44 (R=0.037)  charge=  1.9328  magn=  0.0276
     atom  45 (R=0.037)  charge=  1.9328  magn=  0.0276
     atom  46 (R=0.037)  charge=  1.9329  magn=  0.0276
     atom  47 (R=0.037)  charge=  1.9398  magn=  0.0009
     atom  48 (R=0.037)  charge=  1.9397  magn=  0.0009
     atom  49 (R=0.037)  charge=  1.9397  magn=  0.0009
     atom  50 (R=0.037)  charge=  1.9398  magn=  0.0009
     atom  51 (R=0.037)  charge=  1.9448  magn=  0.0008
     atom  52 (R=0.037)  charge=  1.9448  magn=  0.0008
     atom  53 (R=0.037)  charge=  1.9448  magn=  0.0008
     atom  54 (R=0.037)  charge=  1.9448  magn=  0.0008
     atom  55 (R=0.037)  charge=  1.9474  magn=  0.0001
     atom  56 (R=0.037)  charge=  1.9474  magn=  0.0001
     atom  57 (R=0.037)  charge=  1.9474  magn=  0.0001
     atom  58 (R=0.037)  charge=  1.9474  magn=  0.0001
     atom  59 (R=0.037)  charge=  1.9471  magn=  0.0002
     atom  60 (R=0.037)  charge=  1.9471  magn=  0.0002
     atom  61 (R=0.037)  charge=  1.9471  magn=  0.0002
     atom  62 (R=0.037)  charge=  1.9471  magn=  0.0002
     atom  63 (R=0.037)  charge=  1.9416  magn=  0.0005
     atom  64 (R=0.037)  charge=  1.9417  magn=  0.0005
     atom  65 (R=0.037)  charge=  1.9417  magn=  0.0005
     atom  66 (R=0.037)  charge=  1.9416  magn=  0.0005
     atom  67 (R=0.037)  charge=  1.9403  magn= -0.0000
     atom  68 (R=0.037)  charge=  1.9403  magn= -0.0000
     atom  69 (R=0.037)  charge=  1.9403  magn= -0.0000
     atom  70 (R=0.037)  charge=  1.9403  magn= -0.0000
     atom  71 (R=0.037)  charge=  1.9386  magn=  0.0211
     atom  72 (R=0.037)  charge=  1.9386  magn=  0.0211
     atom  73 (R=0.037)  charge=  1.9386  magn=  0.0211
     atom  74 (R=0.037)  charge=  1.9386  magn=  0.0211
     atom  75 (R=0.037)  charge=  1.9428  magn=  0.0003
     atom  76 (R=0.037)  charge=  1.9428  magn=  0.0003
     atom  77 (R=0.037)  charge=  1.9428  magn=  0.0003
     atom  78 (R=0.037)  charge=  1.9428  magn=  0.0003
     atom  79 (R=0.037)  charge=  0.3999  magn=  0.0001
     atom  80 (R=0.037)  charge=  0.3999  magn=  0.0001
     atom  81 (R=0.037)  charge=  0.3999  magn=  0.0001
     atom  82 (R=0.037)  charge=  0.3999  magn=  0.0001
     atom  83 (R=0.037)  charge=  0.3999  magn= -0.0000
     atom  84 (R=0.037)  charge=  0.3999  magn= -0.0000
     atom  85 (R=0.037)  charge=  0.3999  magn= -0.0000
     atom  86 (R=0.037)  charge=  0.3999  magn= -0.0000
     atom  87 (R=0.078)  charge= 13.2586  magn=  3.2751
     atom  88 (R=0.078)  charge= 13.2586  magn=  3.2751

     total cpu time spent up to now is    50036.4 secs

     End of self-consistent calculation

 ------ SPIN UP ------------


          k = 0.0000 0.0000 0.0000 ( 53617 PWs)   bands (ev):

   -81.5452 -81.5440 -67.8991 -67.8990 -67.8776 -67.8772 -67.6837 -67.6833
   -67.5461 -67.5460 -67.3818 -67.3818 -48.5433 -48.5420 -47.2280 -47.2267
   -47.0324 -47.0315 -34.6679 -34.6663 -34.6518 -34.6473 -34.6442 -34.6406
   -34.6352 -34.6338 -34.6324 -34.6314 -34.6128 -34.6124 -34.4487 -34.4482
   -34.4390 -34.4386 -34.4189 -34.4184 -34.3058 -34.3057 -34.2973 -34.2971
   -34.2898 -34.2898 -34.1445 -34.1443 -34.1320 -34.1318 -34.1246 -34.1244
   -23.4932 -23.4928 -23.4660 -23.4655 -15.2374 -15.1930 -14.8657 -14.8328
   -14.6104 -14.5805 -14.3230 -14.2841 -14.0573 -14.0321 -13.7893 -13.7740
   -13.6271 -13.5134 -13.4437 -13.3515 -13.3292 -13.3194 -13.2318 -13.2237
   -13.1673 -13.1488 -13.1258 -13.1065 -13.0993 -13.0743 -13.0525 -13.0404
   -12.9610 -12.9408 -12.8774 -12.8396 -12.8021 -12.7789 -12.7143 -12.6857
   -12.6525 -12.6048 -12.5386 -12.5215 -12.4554 -12.4101 -12.3576 -12.3387
   -11.8093 -11.7302 -11.6019 -11.5217  -7.0475  -7.0401  -7.0130  -7.0063
    -6.9627  -6.9602  -6.9600  -6.9508  -6.9470  -6.9447  -6.9374  -6.9350
    -4.5024  -4.4616  -3.5350  -3.4775  -3.0307  -2.9699  -2.6250  -2.5428
    -2.0202  -1.9453  -1.8681  -1.5510  -1.5160  -1.4402  -1.3921  -1.3583
    -1.2708  -1.2148  -1.1294  -1.1288  -0.9701  -0.9099  -0.8699  -0.8442
    -0.7852  -0.5889  -0.5608  -0.5193  -0.4632  -0.4224  -0.3747  -0.3180
    -0.2091  -0.2083  -0.1904  -0.1244  -0.0185   0.1678   0.1710   0.1961
     0.2549   0.2832   0.3196   0.3381   0.4520   0.4765   0.4834   0.5409
     0.6872   0.6905   0.7611   0.8254   0.8456   0.8573   0.8733   0.9926
     1.1235   1.1888   1.2382   1.2397   1.2465   1.2556   1.2972   1.3827
     1.4153   1.4584   1.4866   1.5549   1.5725   1.6095   1.6264   1.8318
     1.8618   1.8841   1.8916   1.9011   1.9075   2.0090   2.0100   2.0849
     2.1392   2.1849   2.2499   2.2710   2.2716   2.3683   2.3801   2.3860
     2.3966   2.4086   2.4402   2.4737   2.5177   2.5491   2.5623   2.5752
     2.6140   2.6164   2.6217   2.7031   2.7675   2.7796   2.7935   2.8258
     2.8432   2.8447   2.8756   2.9281   2.9295   2.9492   2.9564   3.0164
     3.0474   3.1017   3.1128   3.1249   3.1548   3.1682   3.1843   3.2009
     3.2032   3.2156   3.2540   3.2875   3.2973   3.3042   3.3336   3.3798
     3.4341   3.4629   3.4904   3.5044   3.5159   3.5930   3.5983   3.6196
     3.6338   3.6541   3.6921   3.7104   3.8326   3.9135   4.0274   4.0729
     4.8773   5.0369   5.0744   5.1739   6.0066   6.0192   6.4634   6.4656
     6.6990   6.7250   8.7161  10.2112  10.6560  10.7602  10.8536  11.1563
    11.2543  11.3772  11.5382  11.5765  11.6014  11.6575  11.8011  12.0924
    12.0930  12.1647  12.2379  12.3257  12.4184  12.6053  12.6166  12.7162
    12.7546  12.7938  12.8044  12.8210  12.9373  12.9798  13.0770  13.0887
    13.1432  13.2126  13.2484  13.3795  13.4235  13.4296  13.4788  13.5082
    13.5359  13.5494  13.5598  13.6382  13.6415  13.6657  13.7018  13.8453
    13.9430  13.9466

     occupation numbers 
     1.0000   1.0000   1.0000   1.0000   1.0000   1.0000   1.0000   1.0000
     1.0000   1.0000   1.0000   1.0000   1.0000   1.0000   1.0000   1.0000
     1.0000   1.0000   1.0000   1.0000   1.0000   1.0000   1.0000   1.0000
     1.0000   1.0000   1.0000   1.0000   1.0000   1.0000   1.0000   1.0000
     1.0000   1.0000   1.0000   1.0000   1.0000   1.0000   1.0000   1.0000
     1.0000   1.0000   1.0000   1.0000   1.0000   1.0000   1.0000   1.0000
     1.0000   1.0000   1.0000   1.0000   1.0000   1.0000   1.0000   1.0000
     1.0000   1.0000   1.0000   1.0000   1.0000   1.0000   1.0000   1.0000
     1.0000   1.0000   1.0000   1.0000   1.0000   1.0000   1.0000   1.0000
     1.0000   1.0000   1.0000   1.0000   1.0000   1.0000   1.0000   1.0000
     1.0000   1.0000   1.0000   1.0000   1.0000   1.0000   1.0000   1.0000
     1.0000   1.0000   1.0000   1.0000   1.0000   1.0000   1.0000   1.0000
     1.0000   1.0000   1.0000   1.0000   1.0000   1.0000   1.0000   1.0000
     1.0000   1.0000   1.0000   1.0000   1.0000   1.0000   1.0000   1.0000
     1.0000   1.0000   1.0000   1.0000   1.0000   1.0000   1.0000   1.0000
     1.0000   1.0000   1.0000   1.0000   1.0000   1.0000   1.0000   1.0000
     1.0000   1.0000   1.0000   1.0000   1.0000   1.0000   1.0000   1.0000
     1.0000   1.0000   1.0000   1.0000   1.0000   1.0000   1.0000   1.0000
     1.0000   1.0000   1.0000   1.0000   1.0000   1.0000   1.0000   1.0000
     1.0000   1.0000   1.0000   1.0000   1.0000   1.0000   1.0000   1.0000
     1.0000   1.0000   1.0000   1.0000   1.0000   1.0000   1.0000   1.0000
     1.0000   1.0000   1.0000   1.0000   1.0000   1.0000   1.0000   1.0000
     1.0000   1.0000   1.0000   1.0000   1.0000   1.0000   1.0000   1.0000
     1.0000   1.0000   1.0000   1.0000   1.0000   1.0000   1.0000   1.0000
     1.0000   1.0000   1.0000   1.0000   1.0000   1.0000   1.0000   1.0000
     1.0000   1.0000   1.0000   1.0000   1.0000   1.0000   1.0000   1.0000
     1.0000   1.0000   1.0000   1.0000   1.0000   1.0000   1.0000   1.0000
     1.0000   1.0000   1.0000   1.0000   1.0000   1.0000   1.0000   1.0000
     1.0000   1.0000   1.0000   1.0000   1.0000   1.0000   1.0000   1.0000
     1.0000   1.0000   1.0000   1.0000   1.0000   1.0000   1.0000   1.0000
     1.0000   1.0000   1.0000   1.0000   1.0000   1.0000   1.0000   1.0000
     1.0000   1.0000   1.0000   1.0000   1.0000   1.0000   1.0000   1.0000
     1.0000   1.0000   1.0000   1.0000   1.0000   1.0000   1.0000   1.0000
     1.0000   1.0000   0.0000   0.0000   0.0000   0.0000   0.0000   0.0000
     0.0000   0.0000   0.0000   0.0000   0.0000   0.0000   0.0000   0.0000
     0.0000   0.0000   0.0000   0.0000   0.0000   0.0000   0.0000   0.0000
     0.0000   0.0000   0.0000   0.0000   0.0000   0.0000   0.0000   0.0000
     0.0000   0.0000   0.0000   0.0000   0.0000   0.0000   0.0000   0.0000
     0.0000   0.0000   0.0000   0.0000   0.0000   0.0000   0.0000   0.0000
     0.0000   0.0000

          k = 0.0000 0.0000 0.3466 ( 53576 PWs)   bands (ev):

   -81.5451 -81.5440 -67.8991 -67.8990 -67.8776 -67.8772 -67.6837 -67.6833
   -67.5461 -67.5460 -67.3818 -67.3818 -48.5433 -48.5420 -47.2280 -47.2267
   -47.0324 -47.0315 -34.6678 -34.6662 -34.6518 -34.6473 -34.6442 -34.6405
   -34.6352 -34.6338 -34.6324 -34.6314 -34.6128 -34.6124 -34.4487 -34.4482
   -34.4390 -34.4386 -34.4189 -34.4184 -34.3058 -34.3057 -34.2973 -34.2971
   -34.2898 -34.2898 -34.1445 -34.1443 -34.1319 -34.1317 -34.1246 -34.1244
   -23.4932 -23.4928 -23.4660 -23.4655 -15.2276 -15.2034 -14.8587 -14.8402
   -14.6036 -14.5874 -14.3135 -14.2941 -14.0542 -14.0352 -13.7896 -13.7737
   -13.6190 -13.5274 -13.4384 -13.3518 -13.3281 -13.3161 -13.2279 -13.2204
   -13.1705 -13.1614 -13.1264 -13.1041 -13.0933 -13.0766 -13.0522 -13.0407
   -12.9601 -12.9364 -12.8765 -12.8424 -12.8002 -12.7860 -12.7094 -12.6738
   -12.6573 -12.6137 -12.5413 -12.5184 -12.4511 -12.4038 -12.3623 -12.3445
   -11.8091 -11.7293 -11.6029 -11.5224  -7.0476  -7.0401  -7.0130  -7.0063
    -6.9626  -6.9601  -6.9600  -6.9507  -6.9470  -6.9446  -6.9373  -6.9350
    -4.4991  -4.4652  -3.5209  -3.4920  -3.0168  -2.9856  -2.6060  -2.5647
    -1.9962  -1.9345  -1.8800  -1.5417  -1.5101  -1.4426  -1.3881  -1.3618
    -1.2683  -1.2267  -1.1293  -1.1188  -0.9543  -0.9131  -0.8774  -0.8254
    -0.7992  -0.6001  -0.5395  -0.5130  -0.4646  -0.4603  -0.3945  -0.3460
    -0.2500  -0.2311  -0.1590  -0.1123  -0.0608   0.1525   0.1615   0.1998
     0.2460   0.2626   0.3152   0.3283   0.4489   0.5025   0.5093   0.5268
     0.6995   0.7305   0.7784   0.8355   0.8491   0.9053   0.9104   0.9528
     1.1181   1.1616   1.1735   1.2578   1.2702   1.2814   1.3589   1.3598
     1.3783   1.4380   1.5479   1.5924   1.6218   1.6238   1.7093   1.8359
     1.8701   1.8861   1.8929   1.8975   1.9201   1.9802   2.0538   2.0718
     2.1170   2.1766   2.2052   2.2413   2.2670   2.2861   2.3017   2.3649
     2.3844   2.4024   2.4518   2.4937   2.5197   2.5303   2.5414   2.5494
     2.5806   2.6379   2.6420   2.7500   2.7776   2.7853   2.7869   2.8300
     2.8376   2.8746   2.8818   2.9179   2.9444   2.9485   2.9862   3.0214
     3.0661   3.0979   3.1214   3.1313   3.1442   3.1609   3.1694   3.2023
     3.2133   3.2177   3.2699   3.2742   3.2962   3.3231   3.3232   3.3781
     3.3972   3.4236   3.4336   3.5135   3.5184   3.5509   3.5840   3.6425
     3.6586   3.6810   3.6834   3.7233   3.8708   3.9178   4.0288   4.0689
     4.8784   5.0409   5.0693   5.1699   6.0064   6.0185   6.4619   6.4657
     6.7018   6.7270   9.0179   9.7275  10.6379  10.8770  10.9546  11.0745
    11.1990  11.3469  11.3692  11.6840  11.6842  11.7267  11.7326  12.1411
    12.1724  12.1898  12.2807  12.3135  12.4224  12.6105  12.6662  12.6930
    12.7757  12.8218  12.8847  12.8891  12.8959  12.9646  13.0110  13.0894
    13.1117  13.1676  13.2895  13.2952  13.3217  13.4382  13.4648  13.4658
    13.5215  13.5471  13.5483  13.6001  13.7274  13.7289  13.7537  13.7834
    13.8996  13.9524

     occupation numbers 
     1.0000   1.0000   1.0000   1.0000   1.0000   1.0000   1.0000   1.0000
     1.0000   1.0000   1.0000   1.0000   1.0000   1.0000   1.0000   1.0000
     1.0000   1.0000   1.0000   1.0000   1.0000   1.0000   1.0000   1.0000
     1.0000   1.0000   1.0000   1.0000   1.0000   1.0000   1.0000   1.0000
     1.0000   1.0000   1.0000   1.0000   1.0000   1.0000   1.0000   1.0000
     1.0000   1.0000   1.0000   1.0000   1.0000   1.0000   1.0000   1.0000
     1.0000   1.0000   1.0000   1.0000   1.0000   1.0000   1.0000   1.0000
     1.0000   1.0000   1.0000   1.0000   1.0000   1.0000   1.0000   1.0000
     1.0000   1.0000   1.0000   1.0000   1.0000   1.0000   1.0000   1.0000
     1.0000   1.0000   1.0000   1.0000   1.0000   1.0000   1.0000   1.0000
     1.0000   1.0000   1.0000   1.0000   1.0000   1.0000   1.0000   1.0000
     1.0000   1.0000   1.0000   1.0000   1.0000   1.0000   1.0000   1.0000
     1.0000   1.0000   1.0000   1.0000   1.0000   1.0000   1.0000   1.0000
     1.0000   1.0000   1.0000   1.0000   1.0000   1.0000   1.0000   1.0000
     1.0000   1.0000   1.0000   1.0000   1.0000   1.0000   1.0000   1.0000
     1.0000   1.0000   1.0000   1.0000   1.0000   1.0000   1.0000   1.0000
     1.0000   1.0000   1.0000   1.0000   1.0000   1.0000   1.0000   1.0000
     1.0000   1.0000   1.0000   1.0000   1.0000   1.0000   1.0000   1.0000
     1.0000   1.0000   1.0000   1.0000   1.0000   1.0000   1.0000   1.0000
     1.0000   1.0000   1.0000   1.0000   1.0000   1.0000   1.0000   1.0000
     1.0000   1.0000   1.0000   1.0000   1.0000   1.0000   1.0000   1.0000
     1.0000   1.0000   1.0000   1.0000   1.0000   1.0000   1.0000   1.0000
     1.0000   1.0000   1.0000   1.0000   1.0000   1.0000   1.0000   1.0000
     1.0000   1.0000   1.0000   1.0000   1.0000   1.0000   1.0000   1.0000
     1.0000   1.0000   1.0000   1.0000   1.0000   1.0000   1.0000   1.0000
     1.0000   1.0000   1.0000   1.0000   1.0000   1.0000   1.0000   1.0000
     1.0000   1.0000   1.0000   1.0000   1.0000   1.0000   1.0000   1.0000
     1.0000   1.0000   1.0000   1.0000   1.0000   1.0000   1.0000   1.0000
     1.0000   1.0000   1.0000   1.0000   1.0000   1.0000   1.0000   1.0000
     1.0000   1.0000   1.0000   1.0000   1.0000   1.0000   1.0000   1.0000
     1.0000   1.0000   1.0000   1.0000   1.0000   1.0000   1.0000   1.0000
     1.0000   1.0000   1.0000   1.0000   1.0000   1.0000   1.0000   1.0000
     1.0000   1.0000   1.0000   1.0000   1.0000   1.0000   1.0000   1.0000
     1.0000   1.0000   0.0000   0.0000   0.0000   0.0000   0.0000   0.0000
     0.0000   0.0000   0.0000   0.0000   0.0000   0.0000   0.0000   0.0000
     0.0000   0.0000   0.0000   0.0000   0.0000   0.0000   0.0000   0.0000
     0.0000   0.0000   0.0000   0.0000   0.0000   0.0000   0.0000   0.0000
     0.0000   0.0000   0.0000   0.0000   0.0000   0.0000   0.0000   0.0000
     0.0000   0.0000   0.0000   0.0000   0.0000   0.0000   0.0000   0.0000
     0.0000   0.0000

          k = 0.0000 0.3832 0.0000 ( 53603 PWs)   bands (ev):

   -81.5451 -81.5440 -67.8991 -67.8990 -67.8776 -67.8772 -67.6837 -67.6833
   -67.5461 -67.5460 -67.3818 -67.3818 -48.5433 -48.5420 -47.2280 -47.2267
   -47.0324 -47.0315 -34.6679 -34.6662 -34.6518 -34.6473 -34.6442 -34.6405
   -34.6352 -34.6338 -34.6325 -34.6314 -34.6128 -34.6124 -34.4487 -34.4482
   -34.4390 -34.4386 -34.4189 -34.4184 -34.3058 -34.3057 -34.2973 -34.2971
   -34.2898 -34.2898 -34.1445 -34.1444 -34.1320 -34.1318 -34.1246 -34.1244
   -23.4932 -23.4928 -23.4660 -23.4655 -15.2321 -15.1880 -14.8647 -14.8315
   -14.6100 -14.5801 -14.3589 -14.3155 -14.0617 -14.0370 -13.7894 -13.7741
   -13.5363 -13.4351 -13.4084 -13.3428 -13.3316 -13.3213 -13.2553 -13.2129
   -13.1687 -13.1589 -13.1528 -13.1315 -13.1178 -13.1014 -13.0870 -13.0630
   -12.9519 -12.9461 -12.8659 -12.8358 -12.8113 -12.7757 -12.7029 -12.6902
   -12.6484 -12.6099 -12.5382 -12.5213 -12.4498 -12.4091 -12.3534 -12.3387
   -11.8074 -11.7301 -11.6022 -11.5211  -7.0482  -7.0388  -7.0132  -7.0078
    -6.9618  -6.9598  -6.9592  -6.9507  -6.9479  -6.9447  -6.9380  -6.9349
    -4.4616  -4.4194  -3.5465  -3.4866  -3.0449  -2.9827  -2.7791  -2.6942
    -1.9627  -1.9202  -1.8452  -1.6231  -1.5113  -1.4250  -1.2646  -1.2606
    -1.1921  -1.1523  -1.1490  -1.1328  -0.9115  -0.9015  -0.8778  -0.8586
    -0.8379  -0.5406  -0.5136  -0.5103  -0.4558  -0.4310  -0.3541  -0.3333
    -0.2925  -0.2211  -0.2209  -0.0664  -0.0112   0.1140   0.1610   0.1912
     0.2768   0.2783   0.2988   0.2994   0.3448   0.4417   0.4946   0.5804
     0.6394   0.6595   0.7257   0.7756   0.8713   0.9525   0.9544   0.9566
     1.1157   1.1210   1.2092   1.2681   1.2783   1.3022   1.3243   1.3517
     1.4305   1.4473   1.4763   1.4989   1.5639   1.6323   1.7248   1.8358
     1.8436   1.8807   1.9073   1.9146   1.9856   2.0933   2.0965   2.1600
     2.1638   2.1968   2.2081   2.2171   2.2223   2.2813   2.3117   2.3361
     2.3909   2.4003   2.4926   2.5136   2.5227   2.5563   2.5647   2.5747
     2.5954   2.6652   2.6808   2.7084   2.7446   2.7504   2.7648   2.7774
     2.8246   2.8691   2.8828   2.8855   2.9141   2.9672   2.9837   3.0250
     3.0538   3.0877   3.1063   3.1544   3.1680   3.1789   3.2048   3.2083
     3.2429   3.2430   3.2738   3.2914   3.2918   3.3277   3.3368   3.3518
     3.3645   3.4205   3.4973   3.5052   3.5164   3.5599   3.5889   3.6408
     3.6565   3.6618   3.6634   3.7564   3.8523   3.8566   3.8650   4.0074
     4.8787   5.0263   5.0737   5.1652   6.0149   6.0256   6.4341   6.4428
     6.7126   6.7382   9.1126  10.0321  10.4583  10.7569  10.8966  11.0319
    11.3269  11.3612  11.4240  11.4356  11.5230  11.8319  11.9832  11.9872
    12.1285  12.1797  12.2300  12.2900  12.2937  12.5071  12.6841  12.6961
    12.7454  12.8299  12.8514  12.8918  12.9592  13.0392  13.0482  13.1235
    13.1322  13.1927  13.2447  13.2934  13.3493  13.3607  13.4054  13.5015
    13.5246  13.6465  13.7052  13.7602  13.8466  13.8566  13.8975  13.9167
    13.9742  13.9746

     occupation numbers 
     1.0000   1.0000   1.0000   1.0000   1.0000   1.0000   1.0000   1.0000
     1.0000   1.0000   1.0000   1.0000   1.0000   1.0000   1.0000   1.0000
     1.0000   1.0000   1.0000   1.0000   1.0000   1.0000   1.0000   1.0000
     1.0000   1.0000   1.0000   1.0000   1.0000   1.0000   1.0000   1.0000
     1.0000   1.0000   1.0000   1.0000   1.0000   1.0000   1.0000   1.0000
     1.0000   1.0000   1.0000   1.0000   1.0000   1.0000   1.0000   1.0000
     1.0000   1.0000   1.0000   1.0000   1.0000   1.0000   1.0000   1.0000
     1.0000   1.0000   1.0000   1.0000   1.0000   1.0000   1.0000   1.0000
     1.0000   1.0000   1.0000   1.0000   1.0000   1.0000   1.0000   1.0000
     1.0000   1.0000   1.0000   1.0000   1.0000   1.0000   1.0000   1.0000
     1.0000   1.0000   1.0000   1.0000   1.0000   1.0000   1.0000   1.0000
     1.0000   1.0000   1.0000   1.0000   1.0000   1.0000   1.0000   1.0000
     1.0000   1.0000   1.0000   1.0000   1.0000   1.0000   1.0000   1.0000
     1.0000   1.0000   1.0000   1.0000   1.0000   1.0000   1.0000   1.0000
     1.0000   1.0000   1.0000   1.0000   1.0000   1.0000   1.0000   1.0000
     1.0000   1.0000   1.0000   1.0000   1.0000   1.0000   1.0000   1.0000
     1.0000   1.0000   1.0000   1.0000   1.0000   1.0000   1.0000   1.0000
     1.0000   1.0000   1.0000   1.0000   1.0000   1.0000   1.0000   1.0000
     1.0000   1.0000   1.0000   1.0000   1.0000   1.0000   1.0000   1.0000
     1.0000   1.0000   1.0000   1.0000   1.0000   1.0000   1.0000   1.0000
     1.0000   1.0000   1.0000   1.0000   1.0000   1.0000   1.0000   1.0000
     1.0000   1.0000   1.0000   1.0000   1.0000   1.0000   1.0000   1.0000
     1.0000   1.0000   1.0000   1.0000   1.0000   1.0000   1.0000   1.0000
     1.0000   1.0000   1.0000   1.0000   1.0000   1.0000   1.0000   1.0000
     1.0000   1.0000   1.0000   1.0000   1.0000   1.0000   1.0000   1.0000
     1.0000   1.0000   1.0000   1.0000   1.0000   1.0000   1.0000   1.0000
     1.0000   1.0000   1.0000   1.0000   1.0000   1.0000   1.0000   1.0000
     1.0000   1.0000   1.0000   1.0000   1.0000   1.0000   1.0000   1.0000
     1.0000   1.0000   1.0000   1.0000   1.0000   1.0000   1.0000   1.0000
     1.0000   1.0000   1.0000   1.0000   1.0000   1.0000   1.0000   1.0000
     1.0000   1.0000   1.0000   1.0000   1.0000   1.0000   1.0000   1.0000
     1.0000   1.0000   1.0000   1.0000   1.0000   1.0000   1.0000   1.0000
     1.0000   1.0000   1.0000   1.0000   1.0000   1.0000   1.0000   1.0000
     1.0000   1.0000   0.0000   0.0000   0.0000   0.0000   0.0000   0.0000
     0.0000   0.0000   0.0000   0.0000   0.0000   0.0000   0.0000   0.0000
     0.0000   0.0000   0.0000   0.0000   0.0000   0.0000   0.0000   0.0000
     0.0000   0.0000   0.0000   0.0000   0.0000   0.0000   0.0000   0.0000
     0.0000   0.0000   0.0000   0.0000   0.0000   0.0000   0.0000   0.0000
     0.0000   0.0000   0.0000   0.0000   0.0000   0.0000   0.0000   0.0000
     0.0000   0.0000

          k = 0.0000 0.3832 0.3466 ( 53607 PWs)   bands (ev):

   -81.5451 -81.5440 -67.8991 -67.8990 -67.8776 -67.8772 -67.6837 -67.6833
   -67.5461 -67.5460 -67.3818 -67.3818 -48.5433 -48.5420 -47.2280 -47.2267
   -47.0324 -47.0315 -34.6679 -34.6662 -34.6518 -34.6473 -34.6442 -34.6405
   -34.6352 -34.6338 -34.6324 -34.6314 -34.6128 -34.6124 -34.4487 -34.4482
   -34.4390 -34.4386 -34.4189 -34.4184 -34.3058 -34.3057 -34.2973 -34.2971
   -34.2898 -34.2898 -34.1445 -34.1443 -34.1319 -34.1318 -34.1246 -34.1244
   -23.4932 -23.4928 -23.4660 -23.4655 -15.2222 -15.1985 -14.8579 -14.8388
   -14.6033 -14.5870 -14.3490 -14.3262 -14.0576 -14.0413 -13.7897 -13.7738
   -13.5309 -13.4318 -13.4207 -13.3434 -13.3241 -13.3197 -13.2520 -13.2143
   -13.1766 -13.1633 -13.1576 -13.1254 -13.1095 -13.1025 -13.0863 -13.0642
   -12.9500 -12.9454 -12.8649 -12.8387 -12.8067 -12.7859 -12.6981 -12.6783
   -12.6531 -12.6184 -12.5410 -12.5182 -12.4452 -12.4029 -12.3581 -12.3444
   -11.8071 -11.7292 -11.6030 -11.5217  -7.0483  -7.0389  -7.0133  -7.0077
    -6.9617  -6.9598  -6.9592  -6.9507  -6.9479  -6.9446  -6.9379  -6.9349
    -4.4557  -4.4255  -3.5320  -3.5016  -3.0305  -2.9989  -2.7591  -2.7161
    -1.9418  -1.9106  -1.8551  -1.6149  -1.5072  -1.4272  -1.2640  -1.2593
    -1.1864  -1.1615  -1.1417  -1.1233  -0.9121  -0.9028  -0.8772  -0.8511
    -0.8441  -0.5740  -0.4991  -0.4843  -0.4498  -0.4266  -0.4057  -0.3627
    -0.2693  -0.2532  -0.2399  -0.0743  -0.0605   0.1230   0.1616   0.1654
     0.2699   0.2701   0.2783   0.3076   0.3451   0.4461   0.5277   0.5744
     0.6351   0.6749   0.7610   0.7889   0.8246   0.9607   1.0010   1.0109
     1.1173   1.1678   1.1761   1.2565   1.2791   1.3192   1.3630   1.3631
     1.3859   1.4374   1.5371   1.5685   1.6019   1.6139   1.7645   1.8113
     1.8484   1.8748   1.8941   1.9176   1.9971   2.0824   2.1188   2.1233
     2.1415   2.1839   2.1848   2.2239   2.2301   2.2322   2.2939   2.3323
     2.3473   2.3857   2.4962   2.4997   2.5162   2.5331   2.5433   2.5737
     2.5938   2.6699   2.6757   2.7152   2.7282   2.7641   2.7757   2.7924
     2.8104   2.8611   2.8892   2.8900   2.9398   2.9639   2.9911   3.0409
     3.0524   3.0797   3.1070   3.1445   3.1631   3.1749   3.2146   3.2283
     3.2521   3.2558   3.2784   3.2984   3.3033   3.3177   3.3268   3.3557
     3.3606   3.4132   3.4349   3.4781   3.5227   3.5533   3.5816   3.6468
     3.6539   3.6591   3.6734   3.7801   3.8552   3.8694   3.8947   4.0100
     4.8800   5.0305   5.0687   5.1604   6.0148   6.0249   6.4301   6.4417
     6.7149   6.7397   9.3771  10.0209  10.2176  10.7200  10.7813  10.9819
    11.2082  11.4197  11.4256  11.4325  11.4625  11.8315  11.8921  11.9294
    12.1709  12.2326  12.3522  12.3684  12.5356  12.6294  12.6894  12.7028
    12.7445  12.8375  12.9145  12.9149  13.0119  13.0671  13.0679  13.1570
    13.1883  13.2032  13.2375  13.3113  13.3713  13.4279  13.4362  13.4571
    13.5300  13.5722  13.6279  13.6853  13.7072  13.7303  13.8068  13.8887
    13.9015  13.9512

     occupation numbers 
     1.0000   1.0000   1.0000   1.0000   1.0000   1.0000   1.0000   1.0000
     1.0000   1.0000   1.0000   1.0000   1.0000   1.0000   1.0000   1.0000
     1.0000   1.0000   1.0000   1.0000   1.0000   1.0000   1.0000   1.0000
     1.0000   1.0000   1.0000   1.0000   1.0000   1.0000   1.0000   1.0000
     1.0000   1.0000   1.0000   1.0000   1.0000   1.0000   1.0000   1.0000
     1.0000   1.0000   1.0000   1.0000   1.0000   1.0000   1.0000   1.0000
     1.0000   1.0000   1.0000   1.0000   1.0000   1.0000   1.0000   1.0000
     1.0000   1.0000   1.0000   1.0000   1.0000   1.0000   1.0000   1.0000
     1.0000   1.0000   1.0000   1.0000   1.0000   1.0000   1.0000   1.0000
     1.0000   1.0000   1.0000   1.0000   1.0000   1.0000   1.0000   1.0000
     1.0000   1.0000   1.0000   1.0000   1.0000   1.0000   1.0000   1.0000
     1.0000   1.0000   1.0000   1.0000   1.0000   1.0000   1.0000   1.0000
     1.0000   1.0000   1.0000   1.0000   1.0000   1.0000   1.0000   1.0000
     1.0000   1.0000   1.0000   1.0000   1.0000   1.0000   1.0000   1.0000
     1.0000   1.0000   1.0000   1.0000   1.0000   1.0000   1.0000   1.0000
[...]
     atom   58 type  7   force =    -0.00005104    0.00000850    0.00002498
     atom   59 type  7   force =     0.00006111    0.00001186    0.00002300
     atom   60 type  7   force =     0.00002793    0.00002973    0.00000418
     atom   61 type  7   force =    -0.00002793    0.00002973   -0.00000418
     atom   62 type  7   force =    -0.00006111    0.00001186   -0.00002300
     atom   63 type  7   force =     0.00001881   -0.00010818   -0.00013032
     atom   64 type  7   force =    -0.00004700   -0.00007690   -0.00011369
     atom   65 type  7   force =     0.00004700   -0.00007690    0.00011369
     atom   66 type  7   force =    -0.00001882   -0.00010818    0.00013032
     atom   67 type  7   force =     0.00014471    0.00013169    0.00024262
     atom   68 type  7   force =     0.00015995    0.00018197    0.00017512
     atom   69 type  7   force =    -0.00015995    0.00018197   -0.00017512
     atom   70 type  7   force =    -0.00014471    0.00013169   -0.00024262
     atom   71 type  7   force =     0.00011322    0.00019246   -0.00003963
     atom   72 type  7   force =    -0.00001558    0.00002240    0.00015510
     atom   73 type  7   force =     0.00001558    0.00002240   -0.00015510
     atom   74 type  7   force =    -0.00011322    0.00019246    0.00003963
     atom   75 type  7   force =     0.00009585   -0.00004830    0.00032552
     atom   76 type  7   force =    -0.00007584   -0.00018316    0.00024900
     atom   77 type  7   force =     0.00007583   -0.00018316   -0.00024900
     atom   78 type  7   force =    -0.00009586   -0.00004830   -0.00032551
     atom   79 type  4   force =     0.00001007    0.00001942    0.00000788
     atom   80 type  4   force =    -0.00000181    0.00000517    0.00002588
     atom   81 type  4   force =     0.00000181    0.00000517   -0.00002588
     atom   82 type  4   force =    -0.00001007    0.00001942   -0.00000788
     atom   83 type  4   force =     0.00001015   -0.00000924    0.00006920
     atom   84 type  4   force =    -0.00000544   -0.00002224    0.00006561
     atom   85 type  4   force =     0.00000544   -0.00002224   -0.00006561
     atom   86 type  4   force =    -0.00001015   -0.00000924   -0.00006920
     atom   87 type  2   force =     0.00000000   -0.00001296    0.00000000
     atom   88 type  3   force =     0.00000000   -0.00010603    0.00000000

     DFT-D3 dispersion contribution to forces:
     atom    1 type  5   force =     0.00000001    0.00103743   -0.00000000
     atom    2 type  5   force =     0.00000001    0.00103743   -0.00000000
     atom    3 type  5   force =     0.00000000   -0.00055739    0.00000000
     atom    4 type  5   force =     0.00000000   -0.00055739    0.00000000
     atom    5 type  6   force =    -0.00000001    0.00045339    0.00000000
     atom    6 type  6   force =    -0.00000000    0.00045339    0.00000000
     atom    7 type  6   force =    -0.00000001   -0.00135239   -0.00000000
     atom    8 type  6   force =    -0.00000001   -0.00135239   -0.00000000
     atom    9 type  6   force =     0.00000001   -0.00049797    0.00000000
     atom   10 type  6   force =     0.00000000   -0.00049797    0.00000000
     atom   11 type  6   force =     0.00000001    0.00118336   -0.00000000
     atom   12 type  6   force =     0.00000000    0.00118336   -0.00000000
     atom   13 type  6   force =     0.00000000   -0.00032567   -0.00000000
     atom   14 type  6   force =     0.00000000   -0.00032567   -0.00000000
     atom   15 type  8   force =    -0.00001262   -0.00006067   -0.00012150
     atom   16 type  8   force =    -0.00001262   -0.00006067   -0.00012150
     atom   17 type  8   force =     0.00001263   -0.00006067    0.00012150
     atom   18 type  8   force =     0.00001263   -0.00006067    0.00012150
     atom   19 type  8   force =     0.00004128    0.00001477    0.00024583
     atom   20 type  8   force =     0.00004128    0.00001477    0.00024583
     atom   21 type  8   force =    -0.00004127    0.00001477   -0.00024583
     atom   22 type  8   force =    -0.00004127    0.00001477   -0.00024583
     atom   23 type  8   force =     0.00002291    0.00026277   -0.00024641
     atom   24 type  8   force =     0.00002291    0.00026277   -0.00024641
     atom   25 type  8   force =    -0.00002291    0.00026277    0.00024641
     atom   26 type  8   force =    -0.00002291    0.00026277    0.00024641
     atom   27 type  1   force =    -0.00013052    0.00003095   -0.00094046
     atom   28 type  1   force =    -0.00013052    0.00003095   -0.00094046
     atom   29 type  1   force =     0.00013051    0.00003095    0.00094046
     atom   30 type  1   force =     0.00013051    0.00003095    0.00094046
     atom   31 type  7   force =    -0.00005099    0.00012419    0.00051008
     atom   32 type  7   force =    -0.00005099    0.00012419    0.00051008
     atom   33 type  7   force =     0.00005099    0.00012419   -0.00051009
     atom   34 type  7   force =     0.00005099    0.00012419   -0.00051009
     atom   35 type  7   force =     0.00000079    0.00000543   -0.00037842
     atom   36 type  7   force =     0.00000079    0.00000543   -0.00037842
     atom   37 type  7   force =    -0.00000079    0.00000543    0.00037842
     atom   38 type  7   force =    -0.00000079    0.00000543    0.00037842
     atom   39 type  7   force =    -0.00001829   -0.00000254    0.00038153
     atom   40 type  7   force =    -0.00001829   -0.00000254    0.00038153
     atom   41 type  7   force =     0.00001829   -0.00000254   -0.00038153
     atom   42 type  7   force =     0.00001829   -0.00000254   -0.00038153
     atom   43 type  7   force =    -0.00008007   -0.00000999    0.00001374
     atom   44 type  7   force =    -0.00008007   -0.00000999    0.00001374
     atom   45 type  7   force =     0.00008007   -0.00000999   -0.00001374
     atom   46 type  7   force =     0.00008007   -0.00000999   -0.00001374
     atom   47 type  7   force =    -0.00019396    0.00107693    0.00023370
     atom   48 type  7   force =    -0.00019396    0.00107693    0.00023370
     atom   49 type  7   force =     0.00019396    0.00107693   -0.00023370
     atom   50 type  7   force =     0.00019396    0.00107693   -0.00023370
     atom   51 type  7   force =     0.00080633    0.00006563    0.00021869
     atom   52 type  7   force =     0.00080633    0.00006563    0.00021869
     atom   53 type  7   force =    -0.00080634    0.00006563   -0.00021869
     atom   54 type  7   force =    -0.00080634    0.00006563   -0.00021869
     atom   55 type  7   force =     0.00032955   -0.00047148   -0.00004403
     atom   56 type  7   force =     0.00032955   -0.00047148   -0.00004403
     atom   57 type  7   force =    -0.00032956   -0.00047149    0.00004403
     atom   58 type  7   force =    -0.00032956   -0.00047149    0.00004403
     atom   59 type  7   force =    -0.00014981    0.00024121    0.00002618
     atom   60 type  7   force =    -0.00014981    0.00024121    0.00002618
     atom   61 type  7   force =     0.00014980    0.00024121   -0.00002617
     atom   62 type  7   force =     0.00014980    0.00024121   -0.00002617
     atom   63 type  7   force =     0.00087473   -0.00042864    0.00040313
     atom   64 type  7   force =     0.00087472   -0.00042864    0.00040313
     atom   65 type  7   force =    -0.00087473   -0.00042864   -0.00040313
     atom   66 type  7   force =    -0.00087473   -0.00042864   -0.00040313
     atom   67 type  7   force =     0.00070000   -0.00066079   -0.00039642
     atom   68 type  7   force =     0.00070000   -0.00066079   -0.00039642
     atom   69 type  7   force =    -0.00070000   -0.00066079    0.00039642
     atom   70 type  7   force =    -0.00070000   -0.00066079    0.00039642
     atom   71 type  7   force =    -0.00011309   -0.00017165   -0.00035819
     atom   72 type  7   force =    -0.00011309   -0.00017165   -0.00035819
     atom   73 type  7   force =     0.00011309   -0.00017165    0.00035819
     atom   74 type  7   force =     0.00011309   -0.00017165    0.00035819
     atom   75 type  7   force =     0.00001774   -0.00000466   -0.00051613
     atom   76 type  7   force =     0.00001773   -0.00000466   -0.00051613
     atom   77 type  7   force =    -0.00001774   -0.00000466    0.00051613
     atom   78 type  7   force =    -0.00001774   -0.00000466    0.00051613
     atom   79 type  4   force =    -0.00008257    0.00018062   -0.00009818
     atom   80 type  4   force =    -0.00008257    0.00018062   -0.00009818
     atom   81 type  4   force =     0.00008257    0.00018062    0.00009819
     atom   82 type  4   force =     0.00008257    0.00018062    0.00009819
     atom   83 type  4   force =     0.00012134   -0.00049080   -0.00027168
     atom   84 type  4   force =     0.00012134   -0.00049080   -0.00027168
     atom   85 type  4   force =    -0.00012134   -0.00049080    0.00027168
     atom   86 type  4   force =    -0.00012134   -0.00049080    0.00027168
     atom   87 type  2   force =    -0.00000001    0.00065669   -0.00000000
     atom   88 type  3   force =    -0.00000001    0.00065669   -0.00000000

     Total force =     0.003680     Total SCF correction =     0.001854

     DFT-D3 dispersion Force =     0.006284
     SCF correction compared to forces is large: reduce conv_thr to get better values

     BFGS Geometry Optimization
     Energy error            =      0.0E+00 Ry
     Gradient error          =      5.4E-04 Ry/Bohr

     bfgs converged in   1 scf cycles and   0 bfgs steps
     (criteria: energy <  1.0E-04 Ry, force <  1.0E-03 Ry/Bohr)

     End of BFGS Geometry Optimization

     Final energy             =   -5262.5287776847 Ry
Begin final coordinates

ATOMIC_POSITIONS (crystal)
K                0.0000000000        0.4939508740        0.0000000000
K                0.5000000000        0.4939508740        0.0000000000
K                0.2500000600        0.0028167960        0.0000000000
K                0.7500000600        0.0028167960        0.0000000000
Mg               0.0000000000        0.0063553440        0.4999999400
Mg               0.5000000000        0.0063553440        0.4999999400
Mg               0.0000000000        0.6669664380        0.4999999400
Mg               0.5000000000        0.6669664380        0.4999999400
Mg               0.2500001490        0.4956247810        0.4999999400
Mg               0.7500001190        0.4956247810        0.4999999400
Mg               0.2500001490        0.8357430100        0.4999999400
Mg               0.7500001190        0.8357430100        0.4999999400
Mg               0.2500001490        0.1704514180        0.4999999400
Mg               0.7500001190        0.1704514180        0.4999999400
Si               0.0466201340        0.1632694150        0.2251085940
Si               0.5466201310        0.1632694150        0.2251085940
Si               0.4533801670        0.1632694150        0.7748913170
Si               0.9533801670        0.1632694150        0.7748913170
Si               0.4667052330        0.8344336750        0.7671313880
Si               0.9667052030        0.8344336750        0.7671313880
Si               0.0332950880        0.8344336750        0.2328684930
Si               0.5332950950        0.8344336750        0.2328684930
Si               0.2830564380        0.6664404270        0.2314402460
Si               0.7830564380        0.6664404270        0.2314402460
Si               0.2169438600        0.6664404270        0.7685596350
Si               0.7169438600        0.6664404270        0.7685596350
Al               0.2026478800        0.3306063410        0.7720664740
Al               0.7026478650        0.3306063410        0.7720664740
Al               0.2973524630        0.3306063410        0.2279333920
Al               0.7973524330        0.3306063410        0.2279333920
O                0.0685996640        0.1576231720        0.3840955500
O                0.5685996410        0.1576231720        0.3840955500
O                0.4314006570        0.1576231720        0.6159043910
O                0.9314006570        0.1576231720        0.6159043910
O                0.4370029870        0.8347752690        0.6089946030
O                0.9370030160        0.8347752690        0.6089946030
O                0.0629973410        0.8347752690        0.3910053070
O                0.5629973410        0.8347752690        0.3910053070
O                0.3136107030        0.6695885060        0.3903405960
O                0.8136106730        0.6695885060        0.3903405960
O                0.1863895800        0.6695885060        0.6096593140
O                0.6863895650        0.6695885060        0.6096593140
O                0.1796069590        0.3332017960        0.6015062930
O                0.6796069740        0.3332017960        0.6015062930
O                0.3203933540        0.3332017960        0.3984935280
O                0.8203933240        0.3332017960        0.3984935280
O                0.1758319590        0.2041258960        0.1691473720
O                0.6758319740        0.2041258960        0.1691473720
O                0.3241683540        0.2041258960        0.8308524490
O                0.8241683240        0.2041258960        0.8308524490
O                0.0044672450        0.9965371490        0.1695325370
O                0.5044672490        0.9965371490        0.1695325370
O                0.4955330790        0.9965371490        0.8304673430
O                0.9955331090        0.9965371490        0.8304673430
O                0.3439404370        0.7683221100        0.8259019260
O                0.8439404370        0.7683221100        0.8259019260
O                0.1560598910        0.7683221100        0.1740979700
O                0.6560598610        0.7683221100        0.1740979700
O                0.4052420850        0.7382420300        0.1731384990
O                0.9052420850        0.7382420300        0.1731384990
O                0.0947582200        0.7382420300        0.8268613820
O                0.5947582130        0.7382420300        0.8268613820
O                0.2559565010        0.5072872040        0.1678532210
O                0.7559565310        0.5072872040        0.1678532210
O                0.2440437820        0.5072872040        0.8321466450
O                0.7440437670        0.5072872040        0.8321466450
O                0.0667992230        0.2750120160        0.8351769450
O                0.5667992230        0.2750120160        0.8351769450
O                0.4332011040        0.2750120160        0.1648229510
O                0.9332010750        0.2750120160        0.1648229510
O                0.0684395430        0.5116246340        0.3931678240
O                0.5684395430        0.5116246340        0.3931678240
O                0.4315607550        0.5116246340        0.6068320870
O                0.9315607550        0.5116246340        0.6068320870
O                0.3173050580        0.9995305540        0.3989219070
O                0.8173050880        0.9995305540        0.3989219070
O                0.1826952840        0.9995305540        0.6010779740
O                0.6826952700        0.9995305540        0.6010779740
H                0.0528041460        0.4908317920        0.3007594650
H                0.5528041720        0.4908317920        0.3007594650
H                0.4471961860        0.4908317920        0.6992404460
H                0.9471961860        0.4908317920        0.6992404460
H                0.2979427870        0.0147786260        0.3056454060
H                0.7979427580        0.0147786260        0.3056454060
H                0.2020575260        0.0147786260        0.6943544750
H                0.7020575400        0.0147786260        0.6943544750
Fe1              0.0000000000        0.3356229660        0.4999999400
Fe2              0.5000000000        0.3356229660        0.4999999400
End final coordinates



     Writing all to output data dir ./temp/phl-fe1-fe2x2.save/ :
     XML data file, charge density, pseudopotentials, collected wavefunctions

     init_run     :    616.78s CPU    627.35s WALL (       1 calls)
     electrons    :  49151.32s CPU  49408.39s WALL (       1 calls)
     forces       :    493.85s CPU    495.67s WALL (       1 calls)
     force_dftd3  :      8.73s CPU      8.77s WALL (       1 calls)

     Called by init_run:
     wfcinit      :    592.98s CPU    601.99s WALL (       1 calls)
     wfcinit:atom :      0.49s CPU      0.86s WALL (      20 calls)
     wfcinit:wfcr :    588.12s CPU    596.29s WALL (      20 calls)
     potinit      :      7.52s CPU      7.67s WALL (       1 calls)
     hinit0       :      2.31s CPU      2.34s WALL (       1 calls)

     Called by electrons:
     c_bands      :  45136.36s CPU  45317.77s WALL (      22 calls)
     sum_band     :   3584.66s CPU   3632.18s WALL (      22 calls)
     v_of_rho     :     20.28s CPU     20.79s WALL (      23 calls)
     v_h          :      0.67s CPU      0.70s WALL (      23 calls)
     v_xc         :     20.42s CPU     20.96s WALL (      24 calls)
     newd         :    298.04s CPU    326.85s WALL (      23 calls)
     PAW_pot      :    119.92s CPU    119.95s WALL (      23 calls)
     mix_rho      :      3.61s CPU      3.73s WALL (      22 calls)
     energy_dftd3 :      6.77s CPU      6.78s WALL (       1 calls)

     Called by c_bands:
     init_us_2    :     62.84s CPU     62.98s WALL (     920 calls)
     cegterg      :  45000.93s CPU  45182.16s WALL (     440 calls)

     Called by sum_band:
     sum_band:wei :      0.02s CPU      0.02s WALL (      22 calls)
     sum_band:loo :   3015.94s CPU   3028.75s WALL (      22 calls)
     sum_band:buf :      7.83s CPU      7.84s WALL (     440 calls)
     sum_band:ini :     30.07s CPU     30.11s WALL (     440 calls)
     sum_band:cal :   2459.44s CPU   2461.20s WALL (     440 calls)
     sum_band:bec :      3.10s CPU      3.10s WALL (     440 calls)
     addusdens    :    562.95s CPU    597.47s WALL (      22 calls)
                                        0.00s GPU  (      22 calls)
     addusd:skk   :      2.22s CPU      3.73s WALL (     176 calls)
                                        0.00s GPU  (     176 calls)

     Called by *egterg:
     cdiaghg      :   1572.59s CPU   1594.35s WALL (    3079 calls)
     cegterg:over :   5762.23s CPU   5767.23s WALL (    2639 calls)
     cegterg:upda :   3456.39s CPU   3468.07s WALL (    2639 calls)
     cegterg:last :   9502.24s CPU   9511.16s WALL (    1133 calls)
     cdiaghg:chol :     37.50s CPU     37.53s WALL (    3079 calls)
     cdiaghg:inve :     38.08s CPU     38.10s WALL (    3079 calls)
     cdiaghg:para :    766.24s CPU    771.71s WALL (    6158 calls)
     h_psi        :  16562.70s CPU  16663.29s WALL (    3099 calls)
     s_psi        :   7178.25s CPU   7185.63s WALL (    3099 calls)
     g_psi        :     16.23s CPU     16.26s WALL (    2639 calls)

     Called by h_psi:
     h_psi:calbec :   7008.57s CPU   7016.96s WALL (    3099 calls)
     vloc_psi     :   2352.50s CPU   2425.33s WALL (    3099 calls)
     add_vuspsi   :   7187.19s CPU   7194.25s WALL (    3099 calls)

     General routines
     calbec       :   9912.32s CPU   9922.59s WALL (    3619 calls)
     fft          :     11.32s CPU     12.01s WALL (     588 calls)
     ffts         :      0.60s CPU      0.65s WALL (      90 calls)
     fftw         :   1817.87s CPU   1876.03s WALL (  922138 calls)
     interpolate  :      1.45s CPU      1.52s WALL (      46 calls)

     Parallel routines

     PAW routines
     PAW_pot      :    119.92s CPU    119.95s WALL (      23 calls)
     PAW_symme    :      0.03s CPU      0.03s WALL (      45 calls)

     PWSCF        :     13h57m CPU     14h 2m WALL


   This run was terminated on:   3:52:37   5Feb2025            

=------------------------------------------------------------------------------=
   JOB DONE.
=------------------------------------------------------------------------------=
