
     Program PWSCF v.7.3.1 starts on 14Mar2025 at 10:52:46 

     This program is part of the open-source Quantum ESPRESSO suite
     for quantum simulation of materials; please cite
         "P. Giannozzi et al., J. Phys.:Condens. Matter 21 395502 (2009);
         "P. Giannozzi et al., J. Phys.:Condens. Matter 29 465901 (2017);
         "P. Giannozzi et al., J. Chem. Phys. 152 154105 (2020);
          URL http://www.quantum-espresso.org", 
     in publications or presentations arising from this work. More details at
     http://www.quantum-espresso.org/quote

     Parallel version (MPI), running on     6 processors

     MPI processes distributed on     1 nodes
     7939 MiB available memory on the printing compute node when the environment starts

     Reading input from vc_relax.in

     Current dimensions of program PWSCF are:
     Max number of different atomic species (ntypx) = 10
     Max number of k-points (npk) =  40000
     Max angular momentum in pseudopotentials (lmaxx) =  4
     file Al.pbe-n-kjpaw_psl.1.0.0.UPF: wavefunction(s)  3S 3P renormalized
     file Ti.pbe-spn-kjpaw_psl.1.0.0.UPF: wavefunction(s)  3S 3P 3D renormalized
     file H.pbe-kjpaw_psl.1.0.0.UPF: wavefunction(s)  1S renormalized
     file K.pbe-spn-kjpaw_psl.1.0.0.UPF: wavefunction(s)  3S renormalized
     file Mg.pbe-spnl-kjpaw_psl.1.0.0.UPF: wavefunction(s)  2P renormalized
     file O.pbe-n-kjpaw_psl.1.0.0.UPF: wavefunction(s)  2S 2P renormalized
     file Si.pbe-n-kjpaw_psl.1.0.0.UPF: wavefunction(s)  3S 3P renormalized

     R & G space division:  proc/nbgrp/npool/nimage =       6
     Subspace diagonalization in iterative solution of the eigenvalue problem:
     a serial algorithm will be used


     Parallelization info
     --------------------
     sticks:   dense  smooth     PW     G-vecs:    dense   smooth      PW
     Min        1105     554    150                97744    34578    4918
     Max        1106     555    151                97745    34580    4920
     Sum        6633    3329    905               586467   207475   29511

     Using Slab Decomposition



     bravais-lattice index     =          -12
     lattice parameter (alat)  =      10.0136  a.u.
     unit-cell volume          =    3303.4414 (a.u.)^3
     number of atoms/cell      =           43
     number of atomic types    =            7
     number of electrons       =       248.00
     number of Kohn-Sham states=          149
     kinetic-energy cutoff     =      60.0000  Ry
     charge density cutoff     =     480.0000  Ry
     scf convergence threshold =      1.0E-06
     mixing beta               =       0.7000
     number of iterations used =            8  plain     mixing
     energy convergence thresh.=      1.0E-04
     force convergence thresh. =      1.0E-03
     press convergence thresh. =      5.0E-01
     Exchange-correlation= SLA  PW   PBX  PBC
                           (   1   4   3   4   0   0   0)
     nstep                     =           50


     celldm(1)=  10.013640  celldm(2)=   1.735306  celldm(3)=   1.926511
     celldm(4)=   0.000000  celldm(5)=  -0.177565  celldm(6)=   0.000000

     crystal axes: (cart. coord. in units of alat)
               a(1) = (   1.000000   0.000000   0.000000 )  
               a(2) = (   0.000000   1.735306   0.000000 )  
               a(3) = (  -0.342081   0.000000   1.895896 )  

     reciprocal axes: (cart. coord. in units 2 pi/alat)
               b(1) = (  1.000000 -0.000000  0.180432 )  
               b(2) = (  0.000000  0.576267 -0.000000 )  
               b(3) = (  0.000000  0.000000  0.527455 )  


     PseudoPot. # 1 for Al read from file:
     ./../../../pseudos/Al.pbe-n-kjpaw_psl.1.0.0.UPF
     MD5 check sum: 502b6b27b9c6270cab5dd1084b96fa6d
     Pseudo is Projector augmented-wave + core cor, Zval =  3.0
     Generated using &quot;atomic&quot; code by A. Dal Corso  v.6.3
     Shape of augmentation charge: PSQ
     Using radial grid of 1135 points,  6 beta functions with: 
                l(1) =   0
                l(2) =   0
                l(3) =   1
                l(4) =   1
                l(5) =   2
                l(6) =   2
     Q(r) pseudized with 0 coefficients 


     PseudoPot. # 2 for Ti read from file:
     ./../../../pseudos/Ti.pbe-spn-kjpaw_psl.1.0.0.UPF
     MD5 check sum: 01f69b0d8ba4438b2e03ac6ea4af1c0b
     Pseudo is Projector augmented-wave + core cor, Zval = 12.0
     Generated using &quot;atomic&quot; code by A. Dal Corso  v.6.2.2
     Shape of augmentation charge: PSQ
     Using radial grid of 1177 points,  6 beta functions with: 
                l(1) =   0
                l(2) =   0
                l(3) =   1
                l(4) =   1
                l(5) =   2
                l(6) =   2
     Q(r) pseudized with 0 coefficients 


     PseudoPot. # 3 for H  read from file:
     ./../../../pseudos/H.pbe-kjpaw_psl.1.0.0.UPF
     MD5 check sum: d81a744832360e4a8af0b0b5b123bc2a
     Pseudo is Projector augmented-wave, Zval =  1.0
     Generated using &quot;atomic&quot; code by A. Dal Corso  v.6.3MaX
     Shape of augmentation charge: PSQ
     Using radial grid of  929 points,  2 beta functions with: 
                l(1) =   0
                l(2) =   0
     Q(r) pseudized with 0 coefficients 


     PseudoPot. # 4 for K  read from file:
     ./../../../pseudos/K.pbe-spn-kjpaw_psl.1.0.0.UPF
     MD5 check sum: 34cc42130a09071ebe376fd42eb21491
     Pseudo is Projector augmented-wave + core cor, Zval =  9.0
     Generated using &quot;atomic&quot; code by A. Dal Corso  v.6.2.2
     Shape of augmentation charge: PSQ
     Using radial grid of 1165 points,  6 beta functions with: 
                l(1) =   0
                l(2) =   0
                l(3) =   1
                l(4) =   1
                l(5) =   2
                l(6) =   2
     Q(r) pseudized with 0 coefficients 


     PseudoPot. # 5 for Mg read from file:
     ./../../../pseudos/Mg.pbe-spnl-kjpaw_psl.1.0.0.UPF
     MD5 check sum: fda14e0d92a6a9a5ebed782e5a4b3067
     Pseudo is Projector augmented-wave + core cor, Zval = 10.0
     Generated using &quot;atomic&quot; code by A. Dal Corso  v.6.3
     Shape of augmentation charge: PSQ
     Using radial grid of 1129 points,  4 beta functions with: 
                l(1) =   0
                l(2) =   0
                l(3) =   1
                l(4) =   1
     Q(r) pseudized with 0 coefficients 


     PseudoPot. # 6 for O  read from file:
     ./../../../pseudos/O.pbe-n-kjpaw_psl.1.0.0.UPF
     MD5 check sum: e99d9cef9b487d1ca56f5b95ecd0fd7a
     Pseudo is Projector augmented-wave + core cor, Zval =  6.0
     Generated using &quot;atomic&quot; code by A. Dal Corso  v.6.3
     Shape of augmentation charge: PSQ
     Using radial grid of 1095 points,  4 beta functions with: 
                l(1) =   0
                l(2) =   0
                l(3) =   1
                l(4) =   1
     Q(r) pseudized with 0 coefficients 


     PseudoPot. # 7 for Si read from file:
     ./../../../pseudos/Si.pbe-n-kjpaw_psl.1.0.0.UPF
     MD5 check sum: c39c59da582df4a0d9f10159256ea34e
     Pseudo is Projector augmented-wave + core cor, Zval =  4.0
     Generated using &quot;atomic&quot; code by A. Dal Corso  v.6.3
     Shape of augmentation charge: PSQ
     Using radial grid of 1141 points,  6 beta functions with: 
                l(1) =   0
                l(2) =   0
                l(3) =   1
                l(4) =   1
                l(5) =   2
                l(6) =   2
     Q(r) pseudized with 0 coefficients 


     atomic species   valence    mass     pseudopotential
     Al                3.00    26.98154     Al( 1.00)
     Ti               12.00    47.86700     Ti( 1.00)
     H                 1.00     1.00794     H ( 1.00)
     K                 9.00    39.09830     K ( 1.00)
     Mg               10.00    24.30500     Mg( 1.00)
     O                 6.00    15.99940     O ( 1.00)
     Si                4.00    28.08550     Si( 1.00)

     Starting magnetic structure 
     atomic species   magnetization
     Al              0.000
     Ti              0.300
     H               0.000
     K               0.000
     Mg              0.000
     O               0.000
     Si              0.000

      2 Sym. Ops. (no inversion) found


                                    s                        frac. trans.

      isym =  1     identity                                     

 cryst.   s( 1) = (     1          0          0      )
                  (     0          1          0      )
                  (     0          0          1      )

 cart.    s( 1) = (  1.0000000  0.0000000 -0.0000000 )
                  (  0.0000000  1.0000000  0.0000000 )
                  (  0.0000000  0.0000000  1.0000000 )


      isym =  2     180 deg rotation - cart. axis [0,1,0]        

 cryst.   s( 2) = (    -1          0          0      )
                  (     0          1          0      )
                  (     0          0         -1      )

 cart.    s( 2) = ( -1.0000000  0.0000000  0.0000000 )
                  (  0.0000000  1.0000000  0.0000000 )
                  (  0.0000000  0.0000000 -1.0000000 )


     point group C_2  (2)   
     there are  2 classes
     the character table:

       E     C2   
A      1.00  1.00
B      1.00 -1.00

     the symmetry operations in each class and the name of the first element:

     E        1
          identity                                               
     C2       2
          180 deg rotation - cart. axis [0,1,0]                  

   Cartesian axes

     site n.     atom                  positions (alat units)
         1        K      tau(   1) = (   0.0000000   0.8821256   0.0000000  )
         2        K      tau(   2) = (   0.5000000   1.7304702   0.0000000  )
         3        Mg     tau(   3) = (  -0.1710407   1.1759760   0.9479482  )
         4        Mg     tau(   4) = (   0.3289593   0.8720176   0.9479482  )
         5        Mg     tau(   5) = (   0.3289593   1.4661187   0.9479482  )
         6        Mg     tau(   6) = (   0.3289593   0.2627380   0.9479482  )
         7        Si     tau(   7) = (   0.0114191   0.2929865   0.4090577  )
         8        Si     tau(   8) = (   0.6464996   0.2929865   1.4868388  )
         9        Si     tau(   9) = (   0.6646120   1.4486592   1.4610758  )
        10        Si     tau(  10) = (  -0.0066933   1.4486592   0.4348206  )
        11        Si     tau(  11) = (   0.4879112   1.1649364   0.4273823  )
        12        Si     tau(  12) = (   0.1700075   1.1649364   1.4685141  )
        13        Al     tau(  13) = (   0.1468512   0.5756680   1.4804481  )
        14        Al     tau(  14) = (   0.5110675   0.5756680   0.4154483  )
        15        O      tau(  15) = (  -0.0011275   0.3219821   0.7222668  )
        16        O      tau(  16) = (   0.6590461   0.3219821   1.1736296  )
        17        O      tau(  17) = (   0.6550971   1.4294606   1.1617918  )
        18        O      tau(  18) = (   0.0028216   1.4294606   0.7341047  )
        19        O      tau(  19) = (   0.4920115   1.1574971   0.7349450  )
        20        O      tau(  20) = (   0.1659072   1.1574971   1.1609515  )
        21        O      tau(  21) = (   0.1376675   0.5757767   1.1421546  )
        22        O      tau(  22) = (   0.5202512   0.5757767   0.7537418  )
        23        O      tau(  23) = (   0.2834400   0.3709471   0.2994646  )
        24        O      tau(  24) = (   0.3744787   0.3709471   1.5964317  )
        25        O      tau(  25) = (  -0.0493179   0.0004044   0.3236977  )
        26        O      tau(  26) = (   0.7072366   0.0004044   1.5721986  )
        27        O      tau(  27) = (   0.4024135   1.3367462   1.5895252  )
        28        O      tau(  28) = (   0.2555052   1.3367462   0.3063712  )
        29        O      tau(  29) = (   0.7566708   1.2806086   0.3150491  )
        30        O      tau(  30) = (  -0.0987521   1.2806086   1.5808473  )
        31        O      tau(  31) = (   0.4489800   0.8840236   0.3116865  )
        32        O      tau(  32) = (   0.2089386   0.8840236   1.5842099  )
        33        O      tau(  33) = (  -0.1454445   0.4848182   1.6021917  )
        34        O      tau(  34) = (   0.8033632   0.4848182   0.2937047  )
        35        O      tau(  35) = (  -0.0127318   0.8565786   0.7578983  )
        36        O      tau(  36) = (   0.6706505   0.8565786   1.1379980  )
        37        O      tau(  37) = (   0.4778862   0.0019449   0.7246072  )
        38        O      tau(  38) = (   0.1800325   0.0019449   1.1712892  )
        39        H      tau(  39) = (  -0.0170254   0.8429627   0.5754610  )
        40        H      tau(  40) = (   0.6749441   0.8429627   1.3204354  )
        41        H      tau(  41) = (   0.6605238   1.7239049   0.7350120  )
        42        H      tau(  42) = (  -0.0026052   1.7239049   1.1608844  )
        43        Ti     tau(  43) = (  -0.1710407   0.5453915   0.9479482  )

     --------------------------------------------
     DFT-D3 Dispersion Correction (3-body terms):
     --------------------------------------------
       Reference C6 values for interpolation: 

         atom   Coordination number   C6
         H          0.912             6.05
         H          0.000            15.18
         O          0.000            31.01
         O          0.993            25.63
         O          1.989            20.74
         Mg         0.000          1366.75
         Mg         0.963           902.54
         Mg         1.950           351.12
         Al         0.000          1081.08
         Al         0.965           875.51
         Al         1.931           513.50
         Al         2.915           307.19
         Si         0.000           635.71
         Si         0.951           540.53
         Si         1.944           466.25
         Si         2.941           443.01
         Si         3.868           299.55
         K          0.000          9967.00
         K          0.977           676.04
         Ti         0.000          2723.84
         Ti         1.830           604.00
         Ti         3.868           643.18

       Values used:

         atom   Coordination number  R0_AB[au]  C6      C8
         K         14.164            4.007    676.04 129074.98
         K         13.817            4.007    676.04 129074.98
         Mg        10.701            3.292    351.12  31436.69
         Mg        11.266            3.292    351.12  31436.69
         Mg        10.367            3.292    351.12  31436.69
         Mg        10.041            3.292    351.12  31436.69
         Si         6.629            3.583    299.55  21425.58
         Si         6.629            3.583    299.55  21425.58
         Si         6.501            3.583    299.55  21425.58
         Si         6.501            3.583    299.55  21425.58
         Si         6.743            3.583    299.55  21425.58
         Si         6.743            3.583    299.55  21425.58
         Al         7.460            3.789    307.19  29441.29
         Al         7.460            3.789    307.19  29441.29
         O          2.997            2.345     20.74    418.58
         O          2.997            2.345     20.74    418.58
         O          3.015            2.345     20.74    418.58
         O          3.015            2.345     20.74    418.58
         O          3.896            2.345     20.74    418.58
         O          3.896            2.345     20.74    418.58
         O          3.878            2.345     20.74    418.58
         O          3.878            2.345     20.74    418.58
         O          3.153            2.345     20.74    418.58
         O          3.153            2.345     20.74    418.58
         O          3.115            2.345     20.74    418.58
         O          3.115            2.345     20.74    418.58
         O          3.310            2.345     20.74    418.58
         O          3.310            2.345     20.74    418.58
         O          3.261            2.345     20.74    418.58
         O          3.261            2.345     20.74    418.58
         O          3.186            2.345     20.74    418.58
         O          3.186            2.345     20.74    418.58
         O          3.177            2.345     20.74    418.58
         O          3.177            2.345     20.74    418.58
         O          3.933            2.345     20.74    418.58
         O          3.933            2.345     20.74    418.58
         O          3.075            2.345     20.74    418.58
         O          3.075            2.345     20.74    418.58
         H          1.265            2.062      6.07     73.40
         H          1.265            2.062      6.07     73.40
         H          1.146            2.062      6.10     73.71
         H          1.146            2.062      6.10     73.71
         Ti        10.419            3.557    643.18  76289.64

         Molecular C6 ( Ry / a.u.^6 ) =    158923.62


   Crystallographic axes

     site n.     atom                  positions (cryst. coord.)
         1        K      tau(   1) = (  0.0000000  0.5083401  0.0000000  )
         2        K      tau(   2) = (  0.5000000  0.9972132  0.0000000  )
         3        Mg     tau(   3) = (  0.0000000  0.6776764  0.5000000  )
         4        Mg     tau(   4) = (  0.5000000  0.5025151  0.5000000  )
         5        Mg     tau(   5) = (  0.5000000  0.8448761  0.5000000  )
         6        Mg     tau(   6) = (  0.5000000  0.1514073  0.5000000  )
         7        Si     tau(   7) = (  0.0852264  0.1688385  0.2157595  )
         8        Si     tau(   8) = (  0.9147736  0.1688385  0.7842405  )
         9        Si     tau(   9) = (  0.9282375  0.8348148  0.7706517  )
        10        Si     tau(  10) = (  0.0717625  0.8348148  0.2293483  )
        11        Si     tau(  11) = (  0.5650249  0.6713146  0.2254249  )
        12        Si     tau(  12) = (  0.4349751  0.6713146  0.7745751  )
        13        Al     tau(  13) = (  0.4139721  0.3317386  0.7808697  )
        14        Al     tau(  14) = (  0.5860279  0.3317386  0.2191303  )
        15        O      tau(  15) = (  0.1291929  0.1855477  0.3809632  )
        16        O      tau(  16) = (  0.8708071  0.1855477  0.6190368  )
        17        O      tau(  17) = (  0.8647221  0.8237512  0.6127929  )
        18        O      tau(  18) = (  0.1352779  0.8237512  0.3872072  )
        19        O      tau(  19) = (  0.6246195  0.6670276  0.3876504  )
        20        O      tau(  20) = (  0.3753805  0.6670276  0.6123496  )
        21        O      tau(  21) = (  0.3437493  0.3318012  0.6024351  )
        22        O      tau(  22) = (  0.6562507  0.3318012  0.3975649  )
        23        O      tau(  23) = (  0.3374732  0.2137646  0.1579541  )
        24        O      tau(  24) = (  0.6625268  0.2137646  0.8420458  )
        25        O      tau(  25) = (  0.0090877  0.0002331  0.1707360  )
        26        O      tau(  26) = (  0.9909123  0.0002331  0.8292640  )
        27        O      tau(  27) = (  0.6892155  0.7703230  0.8384030  )
        28        O      tau(  28) = (  0.3107845  0.7703230  0.1615970  )
        29        O      tau(  29) = (  0.8135159  0.7379727  0.1661742  )
        30        O      tau(  30) = (  0.1864841  0.7379727  0.8338258  )
        31        O      tau(  31) = (  0.5052184  0.5094338  0.1644006  )
        32        O      tau(  32) = (  0.4947816  0.5094338  0.8355994  )
        33        O      tau(  33) = (  0.1436429  0.2793848  0.8450840  )
        34        O      tau(  34) = (  0.8563571  0.2793848  0.1549160  )
        35        O      tau(  35) = (  0.1240177  0.4936182  0.3997572  )
        36        O      tau(  36) = (  0.8759823  0.4936182  0.6002427  )
        37        O      tau(  37) = (  0.6086289  0.0011208  0.3821977  )
        38        O      tau(  38) = (  0.3913711  0.0011208  0.6178023  )
        39        H      tau(  39) = (  0.0868065  0.4857717  0.3035298  )
        40        H      tau(  40) = (  0.9131935  0.4857717  0.6964702  )
        41        H      tau(  41) = (  0.7931439  0.9934298  0.3876857  )
        42        H      tau(  42) = (  0.2068561  0.9934298  0.6123143  )
        43        Ti     tau(  43) = (  0.0000000  0.3142912  0.5000000  )

     number of k points=    20  Gaussian smearing, width (Ry)=  0.0010
                       cart. coord. in units 2pi/alat
        k(    1) = (   0.0000000   0.0000000   0.0000000), wk =   0.0185185
        k(    2) = (   0.0000000   0.0000000   0.1758183), wk =   0.0370370
        k(    3) = (   0.0000000   0.1920891   0.0000000), wk =   0.0370370
        k(    4) = (   0.0000000   0.1920891   0.1758183), wk =   0.0740741
        k(    5) = (   0.1666667   0.0000000   0.0300721), wk =   0.0370370
        k(    6) = (   0.1666667   0.0000000   0.2058904), wk =   0.0370370
        k(    7) = (   0.1666667   0.0000000  -0.1457462), wk =   0.0370370
        k(    8) = (   0.1666667   0.1920891   0.0300721), wk =   0.0740741
        k(    9) = (   0.1666667   0.1920891   0.2058904), wk =   0.0740741
        k(   10) = (   0.1666667   0.1920891  -0.1457462), wk =   0.0740741
        k(   11) = (   0.3333333   0.0000000   0.0601442), wk =   0.0370370
        k(   12) = (   0.3333333   0.0000000   0.2359625), wk =   0.0370370
        k(   13) = (   0.3333333   0.0000000  -0.1156742), wk =   0.0370370
        k(   14) = (   0.3333333   0.1920891   0.0601442), wk =   0.0740741
        k(   15) = (   0.3333333   0.1920891   0.2359625), wk =   0.0740741
        k(   16) = (   0.3333333   0.1920891  -0.1156742), wk =   0.0740741
        k(   17) = (  -0.5000000   0.0000000  -0.0902162), wk =   0.0185185
        k(   18) = (  -0.5000000   0.0000000   0.0856021), wk =   0.0370370
        k(   19) = (  -0.5000000   0.1920891  -0.0902162), wk =   0.0370370
        k(   20) = (  -0.5000000   0.1920891   0.0856021), wk =   0.0740741

                       cryst. coord.
        k(    1) = (   0.0000000   0.0000000   0.0000000), wk =   0.0185185
        k(    2) = (   0.0000000   0.0000000   0.3333333), wk =   0.0370370
        k(    3) = (   0.0000000   0.3333333   0.0000000), wk =   0.0370370
        k(    4) = (   0.0000000   0.3333333   0.3333333), wk =   0.0740741
        k(    5) = (   0.1666667   0.0000000  -0.0000000), wk =   0.0370370
        k(    6) = (   0.1666667   0.0000000   0.3333333), wk =   0.0370370
        k(    7) = (   0.1666667   0.0000000  -0.3333333), wk =   0.0370370
        k(    8) = (   0.1666667   0.3333333  -0.0000000), wk =   0.0740741
        k(    9) = (   0.1666667   0.3333333   0.3333333), wk =   0.0740741
        k(   10) = (   0.1666667   0.3333333  -0.3333333), wk =   0.0740741
        k(   11) = (   0.3333333   0.0000000  -0.0000000), wk =   0.0370370
        k(   12) = (   0.3333333   0.0000000   0.3333333), wk =   0.0370370
        k(   13) = (   0.3333333   0.0000000  -0.3333333), wk =   0.0370370
        k(   14) = (   0.3333333   0.3333333  -0.0000000), wk =   0.0740741
        k(   15) = (   0.3333333   0.3333333   0.3333333), wk =   0.0740741
        k(   16) = (   0.3333333   0.3333333  -0.3333333), wk =   0.0740741
        k(   17) = (  -0.5000000   0.0000000   0.0000000), wk =   0.0185185
        k(   18) = (  -0.5000000   0.0000000   0.3333333), wk =   0.0370370
        k(   19) = (  -0.5000000   0.3333333   0.0000000), wk =   0.0370370
        k(   20) = (  -0.5000000   0.3333333   0.3333333), wk =   0.0740741

     Dense  grid:   586467 G-vectors     FFT dimensions: (  72, 125, 135)

     Smooth grid:   207475 G-vectors     FFT dimensions: (  50,  90,  96)

     Dynamical RAM for                 wfc:       9.82 MB

     Dynamical RAM for     wfc (w. buffer):     402.79 MB

     Dynamical RAM for           str. fact:      10.44 MB

     Dynamical RAM for           local pot:       0.00 MB

     Dynamical RAM for          nlocal pot:      28.35 MB

     Dynamical RAM for                qrad:      24.61 MB

     Dynamical RAM for          rho,v,vnew:      18.42 MB

     Dynamical RAM for               rhoin:       6.14 MB

     Dynamical RAM for            rho*nmix:      47.73 MB

     Dynamical RAM for           G-vectors:       5.86 MB

     Dynamical RAM for          h,s,v(r/c):       4.07 MB

     Dynamical RAM for          <psi|beta>:       0.98 MB

     Dynamical RAM for                 psi:      19.65 MB

     Dynamical RAM for                hpsi:      19.65 MB

     Dynamical RAM for                spsi:      19.65 MB

     Dynamical RAM for      wfcinit/wfcrot:      24.20 MB

     Dynamical RAM for           addusdens:     314.70 MB

     Dynamical RAM for          addusforce:     383.50 MB

     Dynamical RAM for         addusstress:     302.02 MB

     Estimated static dynamical RAM per process >     518.02 MB

     Estimated max dynamical RAM per process >     949.24 MB

     Estimated total dynamical RAM >       5.56 GB

     Check: negative core charge=   -0.000004
     Generating pointlists ...
     new r_m :   0.1350 (alat units)  1.3523 (a.u.) for type    1
     new r_m :   0.1486 (alat units)  1.4877 (a.u.) for type    2
     new r_m :   0.0755 (alat units)  0.7559 (a.u.) for type    3
     new r_m :   0.2174 (alat units)  2.1771 (a.u.) for type    4
     new r_m :   0.1544 (alat units)  1.5459 (a.u.) for type    5
     new r_m :   0.0755 (alat units)  0.7559 (a.u.) for type    6
     new r_m :   0.1238 (alat units)  1.2394 (a.u.) for type    7

     Initial potential from superposition of free atoms

     starting charge     247.9492, renormalised to     248.0000
     Starting wfcs are  178 randomized atomic wfcs
     Checking if some PAW data can be deallocated... 
       PAW data deallocated on    5 nodes for type:  1
       PAW data deallocated on    5 nodes for type:  2
       PAW data deallocated on    5 nodes for type:  3
       PAW data deallocated on    5 nodes for type:  4
       PAW data deallocated on    5 nodes for type:  5
       PAW data deallocated on    1 nodes for type:  6
       PAW data deallocated on    4 nodes for type:  7

     total cpu time spent up to now is      172.1 secs

     Self-consistent Calculation

     iteration #  1     ecut=    60.00 Ry     beta= 0.70
     Davidson diagonalization with overlap

---- Real-time Memory Report at c_bands before calling an iterative solver
           592 MiB given to the printing process from OS
             0 MiB allocation reported by mallinfo(arena+hblkhd)
          4854 MiB available memory on the node where the printing process lives
------------------
     ethr =  1.00E-02,  avg # of iterations =  5.1

     total cpu time spent up to now is      637.5 secs

     total energy              =   -2336.27000003 Ry
     estimated scf accuracy    <      13.22704235 Ry

     total magnetization       =     0.00 Bohr mag/cell
     absolute magnetization    =     0.45 Bohr mag/cell

     iteration #  2     ecut=    60.00 Ry     beta= 0.70
     Davidson diagonalization with overlap

---- Real-time Memory Report at c_bands before calling an iterative solver
           881 MiB given to the printing process from OS
             0 MiB allocation reported by mallinfo(arena+hblkhd)
          3868 MiB available memory on the node where the printing process lives
------------------
     ethr =  5.33E-03,  avg # of iterations =  6.2

     total cpu time spent up to now is     1373.6 secs

     total energy              =   -2329.61011471 Ry
     estimated scf accuracy    <      68.93344971 Ry

     total magnetization       =     0.00 Bohr mag/cell
     absolute magnetization    =     0.57 Bohr mag/cell

     iteration #  3     ecut=    60.00 Ry     beta= 0.70
     Davidson diagonalization with overlap

---- Real-time Memory Report at c_bands before calling an iterative solver
           883 MiB given to the printing process from OS
             0 MiB allocation reported by mallinfo(arena+hblkhd)
          3791 MiB available memory on the node where the printing process lives
------------------
     ethr =  5.33E-03,  avg # of iterations =  8.4

     total cpu time spent up to now is     1838.9 secs

     total energy              =   -2342.44459376 Ry
     estimated scf accuracy    <      12.98787556 Ry

     total magnetization       =    -0.05 Bohr mag/cell
     absolute magnetization    =     0.37 Bohr mag/cell

     iteration #  4     ecut=    60.00 Ry     beta= 0.70
     Davidson diagonalization with overlap

---- Real-time Memory Report at c_bands before calling an iterative solver
           885 MiB given to the printing process from OS
             0 MiB allocation reported by mallinfo(arena+hblkhd)
          3926 MiB available memory on the node where the printing process lives
------------------
     ethr =  5.24E-03,  avg # of iterations =  2.0

     total cpu time spent up to now is     2224.0 secs

     total energy              =   -2343.51491319 Ry
     estimated scf accuracy    <       2.53880493 Ry

     total magnetization       =     0.00 Bohr mag/cell
     absolute magnetization    =     0.25 Bohr mag/cell

     iteration #  5     ecut=    60.00 Ry     beta= 0.70
     Davidson diagonalization with overlap

---- Real-time Memory Report at c_bands before calling an iterative solver
           888 MiB given to the printing process from OS
             0 MiB allocation reported by mallinfo(arena+hblkhd)
          3868 MiB available memory on the node where the printing process lives
------------------
     ethr =  1.02E-03,  avg # of iterations = 11.8

     total cpu time spent up to now is     2856.1 secs

     total energy              =   -2344.20904900 Ry
     estimated scf accuracy    <       0.96038773 Ry

     total magnetization       =     0.00 Bohr mag/cell
     absolute magnetization    =     0.28 Bohr mag/cell

     iteration #  6     ecut=    60.00 Ry     beta= 0.70
     Davidson diagonalization with overlap

---- Real-time Memory Report at c_bands before calling an iterative solver
           890 MiB given to the printing process from OS
             0 MiB allocation reported by mallinfo(arena+hblkhd)
          3913 MiB available memory on the node where the printing process lives
------------------
     ethr =  3.87E-04,  avg # of iterations = 10.8

     total cpu time spent up to now is     3435.6 secs

     total energy              =   -2344.29164363 Ry
     estimated scf accuracy    <       0.28400946 Ry

     total magnetization       =    -0.00 Bohr mag/cell
     absolute magnetization    =     0.14 Bohr mag/cell

     iteration #  7     ecut=    60.00 Ry     beta= 0.70
     Davidson diagonalization with overlap

---- Real-time Memory Report at c_bands before calling an iterative solver
           892 MiB given to the printing process from OS
             0 MiB allocation reported by mallinfo(arena+hblkhd)
          3600 MiB available memory on the node where the printing process lives
------------------
     c_bands:  2 eigenvalues not converged
     ethr =  1.15E-04,  avg # of iterations = 12.1

     total cpu time spent up to now is     4062.3 secs

     total energy              =   -2344.33288383 Ry
     estimated scf accuracy    <       0.05059522 Ry

     total magnetization       =     0.00 Bohr mag/cell
     absolute magnetization    =     0.09 Bohr mag/cell

     iteration #  8     ecut=    60.00 Ry     beta= 0.70
     Davidson diagonalization with overlap

---- Real-time Memory Report at c_bands before calling an iterative solver
           895 MiB given to the printing process from OS
             0 MiB allocation reported by mallinfo(arena+hblkhd)
          3919 MiB available memory on the node where the printing process lives
------------------
     c_bands:  1 eigenvalues not converged
     c_bands:  1 eigenvalues not converged
     c_bands:  2 eigenvalues not converged
     c_bands:  1 eigenvalues not converged
     c_bands:  1 eigenvalues not converged
     c_bands:  1 eigenvalues not converged
     ethr =  2.04E-05,  avg # of iterations = 13.6

     total cpu time spent up to now is     4697.5 secs

     total energy              =   -2344.34249658 Ry
     estimated scf accuracy    <       0.01789769 Ry

     total magnetization       =     0.00 Bohr mag/cell
     absolute magnetization    =     0.05 Bohr mag/cell

     iteration #  9     ecut=    60.00 Ry     beta= 0.70
     Davidson diagonalization with overlap

---- Real-time Memory Report at c_bands before calling an iterative solver
           897 MiB given to the printing process from OS
             0 MiB allocation reported by mallinfo(arena+hblkhd)
          3656 MiB available memory on the node where the printing process lives
------------------
     c_bands:  1 eigenvalues not converged
     c_bands:  1 eigenvalues not converged
     c_bands:  1 eigenvalues not converged
     c_bands:  1 eigenvalues not converged
     c_bands:  1 eigenvalues not converged
     c_bands:  1 eigenvalues not converged
     c_bands:  2 eigenvalues not converged
     c_bands:  1 eigenvalues not converged
     c_bands:  2 eigenvalues not converged
     ethr =  7.22E-06,  avg # of iterations = 11.0

     total cpu time spent up to now is     5201.0 secs

     total energy              =   -2344.34243944 Ry
     estimated scf accuracy    <       0.00981740 Ry

     total magnetization       =    -0.00 Bohr mag/cell
     absolute magnetization    =     0.03 Bohr mag/cell

     iteration # 10     ecut=    60.00 Ry     beta= 0.70
     Davidson diagonalization with overlap

---- Real-time Memory Report at c_bands before calling an iterative solver
           899 MiB given to the printing process from OS
             0 MiB allocation reported by mallinfo(arena+hblkhd)
          3862 MiB available memory on the node where the printing process lives
------------------
     c_bands:  1 eigenvalues not converged
     c_bands:  1 eigenvalues not converged
     c_bands:  1 eigenvalues not converged
     c_bands:  1 eigenvalues not converged
     ethr =  3.96E-06,  avg # of iterations = 11.0

     total cpu time spent up to now is     5714.7 secs

     total energy              =   -2344.34361542 Ry
     estimated scf accuracy    <       0.00364395 Ry

     total magnetization       =     0.00 Bohr mag/cell
     absolute magnetization    =     0.02 Bohr mag/cell

     iteration # 11     ecut=    60.00 Ry     beta= 0.70
     Davidson diagonalization with overlap

---- Real-time Memory Report at c_bands before calling an iterative solver
           899 MiB given to the printing process from OS
             0 MiB allocation reported by mallinfo(arena+hblkhd)
          3824 MiB available memory on the node where the printing process lives
------------------
     c_bands:  1 eigenvalues not converged
     ethr =  1.47E-06,  avg # of iterations =  6.3

     total cpu time spent up to now is     6298.3 secs

     total energy              =   -2344.34433312 Ry
     estimated scf accuracy    <       0.00205491 Ry

     total magnetization       =     0.00 Bohr mag/cell
     absolute magnetization    =     0.01 Bohr mag/cell

     iteration # 12     ecut=    60.00 Ry     beta= 0.70
     Davidson diagonalization with overlap

---- Real-time Memory Report at c_bands before calling an iterative solver
           899 MiB given to the printing process from OS
             0 MiB allocation reported by mallinfo(arena+hblkhd)
          3669 MiB available memory on the node where the printing process lives
------------------
     ethr =  8.29E-07,  avg # of iterations =  3.8

     total cpu time spent up to now is     6735.3 secs

     total energy              =   -2344.34438578 Ry
     estimated scf accuracy    <       0.00118308 Ry

     total magnetization       =     0.00 Bohr mag/cell
     absolute magnetization    =     0.01 Bohr mag/cell

     iteration # 13     ecut=    60.00 Ry     beta= 0.70
     Davidson diagonalization with overlap

---- Real-time Memory Report at c_bands before calling an iterative solver
           899 MiB given to the printing process from OS
             0 MiB allocation reported by mallinfo(arena+hblkhd)
          3471 MiB available memory on the node where the printing process lives
------------------
     ethr =  4.77E-07,  avg # of iterations =  2.0

     total cpu time spent up to now is     7146.7 secs

     total energy              =   -2344.34423293 Ry
     estimated scf accuracy    <       0.00047921 Ry

     total magnetization       =    -0.00 Bohr mag/cell
     absolute magnetization    =     0.01 Bohr mag/cell

     iteration # 14     ecut=    60.00 Ry     beta= 0.70
     Davidson diagonalization with overlap

---- Real-time Memory Report at c_bands before calling an iterative solver
           899 MiB given to the printing process from OS
             0 MiB allocation reported by mallinfo(arena+hblkhd)
          3753 MiB available memory on the node where the printing process lives
------------------
     ethr =  1.93E-07,  avg # of iterations =  5.7

     total cpu time spent up to now is     7789.1 secs

     total energy              =   -2344.34447777 Ry
     estimated scf accuracy    <       0.00007123 Ry

     total magnetization       =    -0.00 Bohr mag/cell
     absolute magnetization    =     0.00 Bohr mag/cell

     iteration # 15     ecut=    60.00 Ry     beta= 0.70
     Davidson diagonalization with overlap

---- Real-time Memory Report at c_bands before calling an iterative solver
           899 MiB given to the printing process from OS
             0 MiB allocation reported by mallinfo(arena+hblkhd)
          3808 MiB available memory on the node where the printing process lives
------------------
     ethr =  2.87E-08,  avg # of iterations =  6.2

     total cpu time spent up to now is     8345.6 secs

     total energy              =   -2344.34449873 Ry
     estimated scf accuracy    <       0.00002556 Ry

     total magnetization       =    -0.00 Bohr mag/cell
     absolute magnetization    =     0.00 Bohr mag/cell

     iteration # 16     ecut=    60.00 Ry     beta= 0.70
     Davidson diagonalization with overlap

---- Real-time Memory Report at c_bands before calling an iterative solver
           899 MiB given to the printing process from OS
             0 MiB allocation reported by mallinfo(arena+hblkhd)
          3476 MiB available memory on the node where the printing process lives
------------------
     ethr =  1.03E-08,  avg # of iterations =  4.9

     total cpu time spent up to now is     8892.9 secs

     total energy              =   -2344.34450831 Ry
     estimated scf accuracy    <       0.00000140 Ry

     total magnetization       =     0.00 Bohr mag/cell
     absolute magnetization    =     0.00 Bohr mag/cell

     iteration # 17     ecut=    60.00 Ry     beta= 0.70
     Davidson diagonalization with overlap

---- Real-time Memory Report at c_bands before calling an iterative solver
           899 MiB given to the printing process from OS
             0 MiB allocation reported by mallinfo(arena+hblkhd)
          3811 MiB available memory on the node where the printing process lives
------------------
     ethr =  5.66E-10,  avg # of iterations = 10.9

     total cpu time spent up to now is     9974.3 secs

     total energy              =   -2344.34451033 Ry
     estimated scf accuracy    <       0.00000201 Ry

     total magnetization       =    -0.00 Bohr mag/cell
     absolute magnetization    =     0.00 Bohr mag/cell

     iteration # 18     ecut=    60.00 Ry     beta= 0.70
     Davidson diagonalization with overlap

---- Real-time Memory Report at c_bands before calling an iterative solver
           899 MiB given to the printing process from OS
             0 MiB allocation reported by mallinfo(arena+hblkhd)
          3967 MiB available memory on the node where the printing process lives
------------------
     ethr =  5.66E-10,  avg # of iterations =  3.1

     Magnetic moment per site  (integrated on atomic sphere of radius R)
     atom   1 (R=0.217)  charge=  7.5669  magn=  0.0000
     atom   2 (R=0.217)  charge=  7.5644  magn=  0.0000
     atom   3 (R=0.154)  charge=  8.0708  magn=  0.0000
     atom   4 (R=0.154)  charge=  8.0627  magn=  0.0000
     atom   5 (R=0.154)  charge=  8.0726  magn=  0.0000
     atom   6 (R=0.154)  charge=  8.0703  magn=  0.0000
     atom   7 (R=0.124)  charge=  0.5132  magn=  0.0000
     atom   8 (R=0.124)  charge=  0.5132  magn=  0.0000
     atom   9 (R=0.124)  charge=  0.5093  magn=  0.0000
     atom  10 (R=0.124)  charge=  0.5093  magn=  0.0000
     atom  11 (R=0.124)  charge=  0.5063  magn=  0.0000
     atom  12 (R=0.124)  charge=  0.5063  magn=  0.0000
     atom  13 (R=0.135)  charge=  0.3370  magn=  0.0000
     atom  14 (R=0.135)  charge=  0.3370  magn=  0.0000
     atom  15 (R=0.075)  charge=  1.9538  magn= -0.0000
     atom  16 (R=0.075)  charge=  1.9538  magn= -0.0000
     atom  17 (R=0.075)  charge=  1.9586  magn= -0.0000
     atom  18 (R=0.075)  charge=  1.9586  magn= -0.0000
     atom  19 (R=0.075)  charge=  1.9544  magn= -0.0000
     atom  20 (R=0.075)  charge=  1.9544  magn= -0.0000
     atom  21 (R=0.075)  charge=  1.9465  magn= -0.0000
     atom  22 (R=0.075)  charge=  1.9465  magn= -0.0000
     atom  23 (R=0.075)  charge=  1.9627  magn=  0.0000
     atom  24 (R=0.075)  charge=  1.9627  magn=  0.0000
     atom  25 (R=0.075)  charge=  1.9675  magn= -0.0000
     atom  26 (R=0.075)  charge=  1.9675  magn= -0.0000
     atom  27 (R=0.075)  charge=  1.9639  magn= -0.0000
     atom  28 (R=0.075)  charge=  1.9639  magn= -0.0000
     atom  29 (R=0.075)  charge=  1.9621  magn= -0.0000
     atom  30 (R=0.075)  charge=  1.9621  magn= -0.0000
     atom  31 (R=0.075)  charge=  1.9580  magn= -0.0000
     atom  32 (R=0.075)  charge=  1.9580  magn= -0.0000
     atom  33 (R=0.075)  charge=  1.9611  magn= -0.0000
     atom  34 (R=0.075)  charge=  1.9611  magn= -0.0000
     atom  35 (R=0.075)  charge=  1.9556  magn= -0.0000
     atom  36 (R=0.075)  charge=  1.9556  magn= -0.0000
     atom  37 (R=0.075)  charge=  1.9486  magn= -0.0000
     atom  38 (R=0.075)  charge=  1.9486  magn= -0.0000
     atom  39 (R=0.075)  charge=  0.3989  magn= -0.0000
     atom  40 (R=0.075)  charge=  0.3989  magn= -0.0000
     atom  41 (R=0.075)  charge=  0.3998  magn= -0.0000
     atom  42 (R=0.075)  charge=  0.3998  magn= -0.0000
     atom  43 (R=0.149)  charge=  8.3635  magn=  0.0000

     total cpu time spent up to now is    10375.7 secs

     End of self-consistent calculation

 ------ SPIN UP ------------


          k = 0.0000 0.0000 0.0000 ( 25927 PWs)   bands (ev):

   -68.2569 -67.7602 -67.7210 -67.1296 -52.5369 -35.0131 -35.0073 -35.0026
   -34.5246 -34.5087 -34.5071 -34.5038 -34.4656 -34.4393 -33.8878 -33.8849
   -33.8689 -28.8252 -28.7929 -28.7871 -23.2667 -23.0477 -15.1308 -15.0743
   -14.4701 -14.3961 -14.2297 -13.9049 -13.6795 -13.6631 -13.6203 -13.5898
   -13.2034 -13.1368 -13.0253 -12.9196 -12.8182 -12.7097 -12.6989 -12.6674
   -12.5841 -12.4121 -12.3142 -12.2316 -11.9475 -11.8324  -6.8504  -6.7409
    -6.7363  -6.5777  -6.5452  -6.5395  -4.3944  -4.3412  -2.7755  -2.7015
    -2.3889  -1.6759  -1.5118  -1.4825  -1.1525  -1.0314  -1.0165  -0.9596
    -0.8353  -0.4663  -0.4162  -0.3472  -0.0593   0.0022   0.1234   0.1434
     0.2150   0.3936   0.5090   0.6079   0.6255   0.7353   0.9141   0.9564
     1.0099   1.1281   1.1978   1.2717   1.2964   1.4083   1.5033   1.5270
     1.6517   1.9011   1.9165   2.0486   2.0607   2.1357   2.1879   2.2740
     2.2958   2.3828   2.4689   2.4861   2.5615   2.6237   2.6544   2.8109
     2.9416   2.9694   3.0488   3.0962   3.1254   3.1623   3.2018   3.2697
     3.3487   3.4052   3.4326   3.4786   3.5166   3.6454   3.7022   3.9040
     4.1944   4.3029   4.3828   4.8265   7.1677   7.3688   7.4279   9.0039
     9.3565   9.9533  10.5152  11.1266  11.5642  11.9404  12.0052  12.2601
    12.4398  12.6676  12.8862  13.0126  13.0325  13.1326  13.1635  13.3127
    13.4191  13.5347  13.6537  13.7290  13.9566

     occupation numbers 
     1.0000   1.0000   1.0000   1.0000   1.0000   1.0000   1.0000   1.0000
     1.0000   1.0000   1.0000   1.0000   1.0000   1.0000   1.0000   1.0000
     1.0000   1.0000   1.0000   1.0000   1.0000   1.0000   1.0000   1.0000
     1.0000   1.0000   1.0000   1.0000   1.0000   1.0000   1.0000   1.0000
     1.0000   1.0000   1.0000   1.0000   1.0000   1.0000   1.0000   1.0000
     1.0000   1.0000   1.0000   1.0000   1.0000   1.0000   1.0000   1.0000
     1.0000   1.0000   1.0000   1.0000   1.0000   1.0000   1.0000   1.0000
     1.0000   1.0000   1.0000   1.0000   1.0000   1.0000   1.0000   1.0000
     1.0000   1.0000   1.0000   1.0000   1.0000   1.0000   1.0000   1.0000
     1.0000   1.0000   1.0000   1.0000   1.0000   1.0000   1.0000   1.0000
     1.0000   1.0000   1.0000   1.0000   1.0000   1.0000   1.0000   1.0000
     1.0000   1.0000   1.0000   1.0000   1.0000   1.0000   1.0000   1.0000
     1.0000   1.0000   1.0000   1.0000   1.0000   1.0000   1.0000   1.0000
     1.0000   1.0000   1.0000   1.0000   1.0000   1.0000   1.0000   1.0000
     1.0000   1.0000   1.0000   1.0000   1.0000   1.0000   1.0000   1.0000
     1.0000   1.0000   1.0000   1.0000   0.0000   0.0000   0.0000   0.0000
     0.0000   0.0000   0.0000   0.0000   0.0000   0.0000   0.0000   0.0000
     0.0000   0.0000   0.0000   0.0000   0.0000   0.0000   0.0000   0.0000
     0.0000   0.0000   0.0000   0.0000   0.0000

          k = 0.0000 0.0000 0.1758 ( 25971 PWs)   bands (ev):

   -68.2569 -67.7602 -67.7210 -67.1296 -52.5369 -35.0132 -35.0073 -35.0027
   -34.5246 -34.5088 -34.5071 -34.5038 -34.4656 -34.4393 -33.8878 -33.8849
   -33.8689 -28.8252 -28.7929 -28.7871 -23.2667 -23.0477 -15.1172 -15.0890
   -14.4530 -14.4153 -14.2270 -13.9063 -13.6863 -13.6590 -13.6187 -13.5903
   -13.1904 -13.1491 -13.0100 -12.9365 -12.8065 -12.7134 -12.6921 -12.6688
   -12.5920 -12.4087 -12.3164 -12.2342 -11.9475 -11.8324  -6.8505  -6.7409
    -6.7362  -6.5777  -6.5451  -6.5395  -4.3997  -4.3360  -2.7640  -2.7152
    -2.3771  -1.6384  -1.5238  -1.5172  -1.1000  -1.0264  -1.0189  -0.9234
    -0.8783  -0.5330  -0.3967  -0.3335  -0.1920   0.0078   0.1153   0.1644
     0.2123   0.3849   0.5077   0.5896   0.6053   0.7418   0.9118   1.0151
     1.0705   1.1028   1.1927   1.2491   1.3829   1.4185   1.5137   1.6115
     1.8187   1.8767   1.9469   2.0201   2.0698   2.0881   2.1623   2.2006
     2.2771   2.3384   2.4115   2.4812   2.5179   2.5976   2.7290   2.8696
     2.9067   2.9544   3.0021   3.0149   3.1153   3.1649   3.2613   3.3198
     3.3732   3.3973   3.4181   3.4830   3.5218   3.6708   3.6965   3.8785
     4.1900   4.3014   4.3922   4.8096   7.1708   7.3745   7.4246   9.2861
     9.3682   9.9557  10.0373  11.2225  11.6213  11.7678  12.0376  12.3185
    12.5719  12.8094  12.8859  12.9372  13.0499  13.1380  13.2556  13.3512
    13.3945  13.5349  13.6448  13.7396  13.7892

     occupation numbers 
     1.0000   1.0000   1.0000   1.0000   1.0000   1.0000   1.0000   1.0000
     1.0000   1.0000   1.0000   1.0000   1.0000   1.0000   1.0000   1.0000
     1.0000   1.0000   1.0000   1.0000   1.0000   1.0000   1.0000   1.0000
     1.0000   1.0000   1.0000   1.0000   1.0000   1.0000   1.0000   1.0000
     1.0000   1.0000   1.0000   1.0000   1.0000   1.0000   1.0000   1.0000
     1.0000   1.0000   1.0000   1.0000   1.0000   1.0000   1.0000   1.0000
     1.0000   1.0000   1.0000   1.0000   1.0000   1.0000   1.0000   1.0000
     1.0000   1.0000   1.0000   1.0000   1.0000   1.0000   1.0000   1.0000
     1.0000   1.0000   1.0000   1.0000   1.0000   1.0000   1.0000   1.0000
     1.0000   1.0000   1.0000   1.0000   1.0000   1.0000   1.0000   1.0000
     1.0000   1.0000   1.0000   1.0000   1.0000   1.0000   1.0000   1.0000
     1.0000   1.0000   1.0000   1.0000   1.0000   1.0000   1.0000   1.0000
     1.0000   1.0000   1.0000   1.0000   1.0000   1.0000   1.0000   1.0000
     1.0000   1.0000   1.0000   1.0000   1.0000   1.0000   1.0000   1.0000
     1.0000   1.0000   1.0000   1.0000   1.0000   1.0000   1.0000   1.0000
     1.0000   1.0000   1.0000   1.0000   0.0000   0.0000   0.0000   0.0000
     0.0000   0.0000   0.0000   0.0000   0.0000   0.0000   0.0000   0.0000
     0.0000   0.0000   0.0000   0.0000   0.0000   0.0000   0.0000   0.0000
     0.0000   0.0000   0.0000   0.0000   0.0000

          k = 0.0000 0.1921 0.0000 ( 25933 PWs)   bands (ev):

   -68.2569 -67.7602 -67.7210 -67.1296 -52.5369 -35.0131 -35.0073 -35.0026
   -34.5246 -34.5087 -34.5071 -34.5038 -34.4656 -34.4393 -33.8878 -33.8849
   -33.8689 -28.8252 -28.7929 -28.7871 -23.2667 -23.0477 -15.1151 -15.0636
   -14.5546 -14.4411 -14.1602 -13.8926 -13.6370 -13.6245 -13.5904 -13.5862
   -13.2365 -13.1837 -13.0355 -12.9311 -12.8392 -12.7097 -12.6903 -12.6655
   -12.5845 -12.4009 -12.3019 -12.2374 -11.9486 -11.8316  -6.8505  -6.7409
    -6.7353  -6.5779  -6.5456  -6.5400  -4.3325  -4.2789  -2.9668  -2.8896
    -2.3698  -1.5219  -1.5051  -1.2778  -1.2645  -1.0088  -1.0042  -0.8903
    -0.8400  -0.4682  -0.4331  -0.3382  -0.0690  -0.0562   0.0654   0.1515
     0.1894   0.3772   0.5005   0.5259   0.6555   0.6690   0.9032   0.9351
     1.0722   1.1175   1.2863   1.3396   1.4080   1.4386   1.5123   1.6202
     1.7234   1.8643   1.8757   2.0001   2.0447   2.1169   2.1181   2.2412
     2.3280   2.3384   2.4722   2.4823   2.5947   2.6191   2.6451   2.8265
     2.9281   2.9952   3.1016   3.1176   3.1504   3.2026   3.2567   3.2641
     3.3479   3.3804   3.4179   3.4472   3.4998   3.6148   3.6436   3.8955
     4.1552   4.2551   4.2811   4.8298   7.1681   7.3708   7.4274   9.3293
     9.3663   9.9588  10.4440  10.6876  11.6071  11.7355  12.2155  12.4950
    12.5704  12.6338  12.8303  13.0161  13.0683  13.2268  13.2611  13.3310
    13.4041  13.4630  13.5669  13.6194  13.7544

     occupation numbers 
     1.0000   1.0000   1.0000   1.0000   1.0000   1.0000   1.0000   1.0000
     1.0000   1.0000   1.0000   1.0000   1.0000   1.0000   1.0000   1.0000
     1.0000   1.0000   1.0000   1.0000   1.0000   1.0000   1.0000   1.0000
     1.0000   1.0000   1.0000   1.0000   1.0000   1.0000   1.0000   1.0000
     1.0000   1.0000   1.0000   1.0000   1.0000   1.0000   1.0000   1.0000
     1.0000   1.0000   1.0000   1.0000   1.0000   1.0000   1.0000   1.0000
     1.0000   1.0000   1.0000   1.0000   1.0000   1.0000   1.0000   1.0000
     1.0000   1.0000   1.0000   1.0000   1.0000   1.0000   1.0000   1.0000
     1.0000   1.0000   1.0000   1.0000   1.0000   1.0000   1.0000   1.0000
     1.0000   1.0000   1.0000   1.0000   1.0000   1.0000   1.0000   1.0000
     1.0000   1.0000   1.0000   1.0000   1.0000   1.0000   1.0000   1.0000
     1.0000   1.0000   1.0000   1.0000   1.0000   1.0000   1.0000   1.0000
     1.0000   1.0000   1.0000   1.0000   1.0000   1.0000   1.0000   1.0000
     1.0000   1.0000   1.0000   1.0000   1.0000   1.0000   1.0000   1.0000
     1.0000   1.0000   1.0000   1.0000   1.0000   1.0000   1.0000   1.0000
     1.0000   1.0000   1.0000   1.0000   0.0000   0.0000   0.0000   0.0000
     0.0000   0.0000   0.0000   0.0000   0.0000   0.0000   0.0000   0.0000
     0.0000   0.0000   0.0000   0.0000   0.0000   0.0000   0.0000   0.0000
     0.0000   0.0000   0.0000   0.0000   0.0000

          k = 0.0000 0.1921 0.1758 ( 25924 PWs)   bands (ev):

   -68.2569 -67.7602 -67.7210 -67.1296 -52.5369 -35.0132 -35.0073 -35.0026
   -34.5246 -34.5088 -34.5071 -34.5038 -34.4656 -34.4393 -33.8878 -33.8849
   -33.8689 -28.8252 -28.7929 -28.7871 -23.2667 -23.0477 -15.1031 -15.0764
   -14.5388 -14.4627 -14.1538 -13.8932 -13.6294 -13.6221 -13.6000 -13.5900
   -13.2236 -13.1966 -13.0173 -12.9468 -12.8314 -12.7129 -12.6825 -12.6679
   -12.5921 -12.3970 -12.3048 -12.2395 -11.9485 -11.8316  -6.8505  -6.7409
    -6.7352  -6.5779  -6.5455  -6.5400  -4.3339  -4.2776  -2.9614  -2.8962
    -2.3596  -1.5353  -1.4646  -1.3068  -1.2222  -1.0173  -0.9993  -0.8828
    -0.8487  -0.5284  -0.4040  -0.3353  -0.2099  -0.0434   0.0605   0.1207
     0.2146   0.3818   0.4781   0.5502   0.6485   0.7132   0.8739   0.9531
     1.0931   1.1450   1.2896   1.3426   1.4281   1.5063   1.5851   1.6532
     1.7947   1.8698   1.9149   1.9736   2.0379   2.0749   2.1271   2.1646
     2.3044   2.3333   2.3675   2.4804   2.5540   2.6018   2.7140   2.8222
     2.9383   2.9916   3.0313   3.0690   3.1346   3.1888   3.2805   3.3286
     3.3595   3.3862   3.3982   3.4787   3.5091   3.6326   3.6420   3.8724
     4.1592   4.2488   4.2994   4.8146   7.1715   7.3767   7.4236   9.2833
     9.6561   9.9680  10.2745  10.6606  11.1914  11.7680  12.4278  12.4874
    12.6826  12.7838  12.8860  13.0494  13.1126  13.1979  13.2295  13.3357
    13.3952  13.4589  13.5712  13.6354  13.7658

     occupation numbers 
     1.0000   1.0000   1.0000   1.0000   1.0000   1.0000   1.0000   1.0000
     1.0000   1.0000   1.0000   1.0000   1.0000   1.0000   1.0000   1.0000
     1.0000   1.0000   1.0000   1.0000   1.0000   1.0000   1.0000   1.0000
     1.0000   1.0000   1.0000   1.0000   1.0000   1.0000   1.0000   1.0000
     1.0000   1.0000   1.0000   1.0000   1.0000   1.0000   1.0000   1.0000
     1.0000   1.0000   1.0000   1.0000   1.0000   1.0000   1.0000   1.0000
     1.0000   1.0000   1.0000   1.0000   1.0000   1.0000   1.0000   1.0000
     1.0000   1.0000   1.0000   1.0000   1.0000   1.0000   1.0000   1.0000
     1.0000   1.0000   1.0000   1.0000   1.0000   1.0000   1.0000   1.0000
     1.0000   1.0000   1.0000   1.0000   1.0000   1.0000   1.0000   1.0000
     1.0000   1.0000   1.0000   1.0000   1.0000   1.0000   1.0000   1.0000
     1.0000   1.0000   1.0000   1.0000   1.0000   1.0000   1.0000   1.0000
     1.0000   1.0000   1.0000   1.0000   1.0000   1.0000   1.0000   1.0000
     1.0000   1.0000   1.0000   1.0000   1.0000   1.0000   1.0000   1.0000
     1.0000   1.0000   1.0000   1.0000   1.0000   1.0000   1.0000   1.0000
     1.0000   1.0000   1.0000   1.0000   0.0000   0.0000   0.0000   0.0000
     0.0000   0.0000   0.0000   0.0000   0.0000   0.0000   0.0000   0.0000
     0.0000   0.0000   0.0000   0.0000   0.0000   0.0000   0.0000   0.0000
     0.0000   0.0000   0.0000   0.0000   0.0000

          k = 0.1667 0.0000 0.0301 ( 25941 PWs)   bands (ev):

   -68.2569 -67.7602 -67.7210 -67.1296 -52.5369 -35.0132 -35.0073 -35.0027
   -34.5246 -34.5087 -34.5071 -34.5038 -34.4656 -34.4393 -33.8878 -33.8850
   -33.8689 -28.8254 -28.7928 -28.7871 -23.2666 -23.0475 -15.0765 -15.0211
   -14.4538 -14.3882 -14.2201 -13.9094 -13.8241 -13.8016 -13.5551 -13.5269
   -13.1951 -13.1396 -13.0092 -12.9162 -12.8288 -12.7698 -12.7214 -12.6316
   -12.5809 -12.4058 -12.3081 -12.2559 -11.9622 -11.8331  -6.8531  -6.7375
    -6.7354  -6.5764  -6.5442  -6.5413  -4.2433  -4.1876  -2.7126  -2.6422
    -2.3596  -1.7885  -1.6447  -1.5352  -1.1432  -0.9973  -0.9682  -0.9145
    -0.8153  -0.4107  -0.3606  -0.3063  -0.0806  -0.0582   0.1164   0.1651
     0.2544   0.3458   0.3755   0.5511   0.6380   0.6774   0.7648   0.8921
     0.9644   1.1543   1.2056   1.3082   1.4101   1.4347   1.5739   1.6539
     1.7376   1.8160   1.9105   1.9607   2.0669   2.1363   2.2060   2.2458
     2.2916   2.3750   2.4331   2.4880   2.5872   2.6318   2.6721   2.7928
     2.8804   2.9735   3.0074   3.0602   3.1131   3.1584   3.1883   3.2412
     3.2866   3.3553   3.3814   3.4481   3.4930   3.5974   3.6420   3.8865
     4.1886   4.3082   4.3886   4.8286   7.1945   7.3630   7.4076   9.2882
     9.3572   9.9160  10.7030  11.2166  11.7089  12.0263  12.1556  12.3722
    12.4187  12.6963  12.8056  12.9262  12.9768  13.2000  13.2532  13.3535
    13.4270  13.4721  13.6179  13.7924  13.8755

     occupation numbers 
     1.0000   1.0000   1.0000   1.0000   1.0000   1.0000   1.0000   1.0000
     1.0000   1.0000   1.0000   1.0000   1.0000   1.0000   1.0000   1.0000
     1.0000   1.0000   1.0000   1.0000   1.0000   1.0000   1.0000   1.0000
     1.0000   1.0000   1.0000   1.0000   1.0000   1.0000   1.0000   1.0000
     1.0000   1.0000   1.0000   1.0000   1.0000   1.0000   1.0000   1.0000
     1.0000   1.0000   1.0000   1.0000   1.0000   1.0000   1.0000   1.0000
     1.0000   1.0000   1.0000   1.0000   1.0000   1.0000   1.0000   1.0000
     1.0000   1.0000   1.0000   1.0000   1.0000   1.0000   1.0000   1.0000
     1.0000   1.0000   1.0000   1.0000   1.0000   1.0000   1.0000   1.0000
     1.0000   1.0000   1.0000   1.0000   1.0000   1.0000   1.0000   1.0000
     1.0000   1.0000   1.0000   1.0000   1.0000   1.0000   1.0000   1.0000
     1.0000   1.0000   1.0000   1.0000   1.0000   1.0000   1.0000   1.0000
     1.0000   1.0000   1.0000   1.0000   1.0000   1.0000   1.0000   1.0000
     1.0000   1.0000   1.0000   1.0000   1.0000   1.0000   1.0000   1.0000
     1.0000   1.0000   1.0000   1.0000   1.0000   1.0000   1.0000   1.0000
     1.0000   1.0000   1.0000   1.0000   0.0000   0.0000   0.0000   0.0000
     0.0000   0.0000   0.0000   0.0000   0.0000   0.0000   0.0000   0.0000
     0.0000   0.0000   0.0000   0.0000   0.0000   0.0000   0.0000   0.0000
     0.0000   0.0000   0.0000   0.0000   0.0000

          k = 0.1667 0.0000 0.2059 ( 25961 PWs)   bands (ev):

   -68.2569 -67.7602 -67.7210 -67.1296 -52.5369 -35.0132 -35.0073 -35.0027
   -34.5246 -34.5087 -34.5071 -34.5038 -34.4656 -34.4393 -33.8878 -33.8850
   -33.8689 -28.8254 -28.7928 -28.7871 -23.2666 -23.0475 -15.0596 -15.0394
   -14.4368 -14.4068 -14.2169 -13.9120 -13.8336 -13.7918 -13.5506 -13.5333
   -13.1836 -13.1502 -12.9907 -12.9362 -12.8124 -12.7591 -12.7449 -12.6195
   -12.5902 -12.4021 -12.3104 -12.2597 -11.9621 -11.8331  -6.8531  -6.7374
    -6.7353  -6.5764  -6.5441  -6.5413  -4.2530  -4.1777  -2.6996  -2.6581
    -2.3477  -1.7433  -1.6877  -1.5468  -1.0935  -1.0006  -0.9544  -0.9224
    -0.8089  -0.4857  -0.3283  -0.3014  -0.2015  -0.0373   0.0659   0.1881
     0.2494   0.3616   0.3896   0.5151   0.6293   0.6581   0.7674   0.9175
     1.0122   1.1892   1.2324   1.2913   1.4260   1.4603   1.6471   1.7085
     1.8045   1.8842   1.9425   1.9897   2.0337   2.0686   2.1294   2.2379
     2.2551   2.2851   2.3913   2.4762   2.5542   2.6275   2.6965   2.8344
     2.8737   2.9651   2.9734   3.0064   3.0661   3.1744   3.2213   3.2995
     3.3352   3.3475   3.3830   3.4449   3.4852   3.6068   3.6487   3.8697
     4.1854   4.3082   4.3968   4.8139   7.1978   7.3639   7.4073   9.3411
     9.5767   9.9971  10.1715  11.3046  11.7559  11.8425  12.1762  12.2815
    12.6085  12.6933  12.8979  12.9647  13.0925  13.1921  13.2967  13.3985
    13.5208  13.5361  13.6340  13.6686  13.7320

     occupation numbers 
     1.0000   1.0000   1.0000   1.0000   1.0000   1.0000   1.0000   1.0000
     1.0000   1.0000   1.0000   1.0000   1.0000   1.0000   1.0000   1.0000
     1.0000   1.0000   1.0000   1.0000   1.0000   1.0000   1.0000   1.0000
     1.0000   1.0000   1.0000   1.0000   1.0000   1.0000   1.0000   1.0000
     1.0000   1.0000   1.0000   1.0000   1.0000   1.0000   1.0000   1.0000
     1.0000   1.0000   1.0000   1.0000   1.0000   1.0000   1.0000   1.0000
     1.0000   1.0000   1.0000   1.0000   1.0000   1.0000   1.0000   1.0000
     1.0000   1.0000   1.0000   1.0000   1.0000   1.0000   1.0000   1.0000
     1.0000   1.0000   1.0000   1.0000   1.0000   1.0000   1.0000   1.0000
     1.0000   1.0000   1.0000   1.0000   1.0000   1.0000   1.0000   1.0000
     1.0000   1.0000   1.0000   1.0000   1.0000   1.0000   1.0000   1.0000
     1.0000   1.0000   1.0000   1.0000   1.0000   1.0000   1.0000   1.0000
     1.0000   1.0000   1.0000   1.0000   1.0000   1.0000   1.0000   1.0000
     1.0000   1.0000   1.0000   1.0000   1.0000   1.0000   1.0000   1.0000
     1.0000   1.0000   1.0000   1.0000   1.0000   1.0000   1.0000   1.0000
     1.0000   1.0000   1.0000   1.0000   0.0000   0.0000   0.0000   0.0000
     0.0000   0.0000   0.0000   0.0000   0.0000   0.0000   0.0000   0.0000
     0.0000   0.0000   0.0000   0.0000   0.0000   0.0000   0.0000   0.0000
     0.0000   0.0000   0.0000   0.0000   0.0000

          k = 0.1667 0.0000-0.1457 ( 25956 PWs)   bands (ev):

   -68.2569 -67.7602 -67.7210 -67.1296 -52.5369 -35.0132 -35.0073 -35.0027
   -34.5246 -34.5087 -34.5071 -34.5038 -34.4656 -34.4393 -33.8878 -33.8850
   -33.8689 -28.8254 -28.7928 -28.7871 -23.2666 -23.0475 -15.0669 -15.0317
   -14.4396 -14.4043 -14.2170 -13.9115 -13.8287 -13.7967 -13.5578 -13.5249
   -13.1804 -13.1547 -12.9988 -12.9294 -12.8182 -12.7588 -12.7344 -12.6267
   -12.5886 -12.4022 -12.3102 -12.2580 -11.9621 -11.8331  -6.8532  -6.7375
    -6.7353  -6.5764  -6.5441  -6.5413  -4.2388  -4.1924  -2.6965  -2.6598
    -2.3517  -1.7633  -1.6666  -1.5452  -1.1178  -0.9910  -0.9779  -0.8996
    -0.8126  -0.4613  -0.3456  -0.3014  -0.1710  -0.0507   0.0901   0.1818
     0.2458   0.3495   0.3726   0.5574   0.6334   0.7080   0.7855   0.9316
     0.9585   1.1855   1.2171   1.2603   1.4622   1.4900   1.6096   1.6129
     1.7085   1.7987   1.9058   1.9956   2.0489   2.1201   2.2278   2.2472
     2.2811   2.3613   2.4345   2.4791   2.5566   2.6276   2.7186   2.7895
     2.8821   2.9315   3.0386   3.0758   3.0960   3.1317   3.1815   3.2194
     3.2788   3.3358   3.4185   3.4251   3.5180   3.6234   3.6285   3.8669
     4.1940   4.3098   4.3917   4.8217   7.1964   7.3665   7.4096   9.3376
     9.5035   9.8519  10.4277  11.3344  11.7663  11.8828  12.1801  12.2991
    12.5629  12.8035  12.8920  13.0199  13.0446  13.0670  13.1626  13.2883
    13.4438  13.5057  13.6564  13.7254  13.9093

     occupation numbers 
     1.0000   1.0000   1.0000   1.0000   1.0000   1.0000   1.0000   1.0000
     1.0000   1.0000   1.0000   1.0000   1.0000   1.0000   1.0000   1.0000
     1.0000   1.0000   1.0000   1.0000   1.0000   1.0000   1.0000   1.0000
     1.0000   1.0000   1.0000   1.0000   1.0000   1.0000   1.0000   1.0000
     1.0000   1.0000   1.0000   1.0000   1.0000   1.0000   1.0000   1.0000
     1.0000   1.0000   1.0000   1.0000   1.0000   1.0000   1.0000   1.0000
     1.0000   1.0000   1.0000   1.0000   1.0000   1.0000   1.0000   1.0000
     1.0000   1.0000   1.0000   1.0000   1.0000   1.0000   1.0000   1.0000
     1.0000   1.0000   1.0000   1.0000   1.0000   1.0000   1.0000   1.0000
     1.0000   1.0000   1.0000   1.0000   1.0000   1.0000   1.0000   1.0000
     1.0000   1.0000   1.0000   1.0000   1.0000   1.0000   1.0000   1.0000
     1.0000   1.0000   1.0000   1.0000   1.0000   1.0000   1.0000   1.0000
     1.0000   1.0000   1.0000   1.0000   1.0000   1.0000   1.0000   1.0000
     1.0000   1.0000   1.0000   1.0000   1.0000   1.0000   1.0000   1.0000
     1.0000   1.0000   1.0000   1.0000   1.0000   1.0000   1.0000   1.0000
     1.0000   1.0000   1.0000   1.0000   0.0000   0.0000   0.0000   0.0000
     0.0000   0.0000   0.0000   0.0000   0.0000   0.0000   0.0000   0.0000
     0.0000   0.0000   0.0000   0.0000   0.0000   0.0000   0.0000   0.0000
     0.0000   0.0000   0.0000   0.0000   0.0000

          k = 0.1667 0.1921 0.0301 ( 25937 PWs)   bands (ev):

   -68.2569 -67.7602 -67.7210 -67.1296 -52.5369 -35.0132 -35.0073 -35.0027
   -34.5246 -34.5087 -34.5071 -34.5038 -34.4656 -34.4393 -33.8878 -33.8850
   -33.8689 -28.8254 -28.7928 -28.7871 -23.2666 -23.0475 -15.0612 -15.0109
   -14.5342 -14.4298 -14.1554 -13.9006 -13.7973 -13.7634 -13.5502 -13.5072
   -13.2228 -13.1727 -13.0152 -12.9272 -12.8496 -12.7562 -12.7172 -12.6301
   -12.5803 -12.3983 -12.2988 -12.2619 -11.9626 -11.8328  -6.8534  -6.7375
    -6.7345  -6.5765  -6.5444  -6.5417  -4.1862  -4.1302  -2.9116  -2.8389
    -2.3417  -1.6178  -1.5278  -1.3975  -1.2228  -1.0639  -0.9768  -0.8846
    -0.7415  -0.4270  -0.3464  -0.2782  -0.1013  -0.0690   0.0734   0.1458
     0.2122   0.3096   0.3241   0.4889   0.6118   0.6826   0.7715   0.9413
     1.0441   1.1161   1.2771   1.3835   1.4103   1.5105   1.6189   1.6646
     1.7599   1.7761   1.8409   1.9198   1.9718   2.1652   2.2095   2.2358
     2.3212   2.3562   2.4438   2.4892   2.5929   2.6230   2.6441   2.8227
     2.8803   3.0132   3.0505   3.0821   3.1403   3.1865   3.2167   3.2469
     3.2872   3.3377   3.3819   3.4170   3.4827   3.5503   3.5984   3.8728
     4.1743   4.2706   4.3081   4.8314   7.1941   7.3641   7.4071   9.3300
     9.6033   9.9274  10.6341  10.8438  11.7141  11.8098  12.3231  12.4865
    12.5645  12.7012  12.8587  12.9585  13.1201  13.1361  13.2489  13.3362
    13.4281  13.4804  13.5921  13.6918  13.7929

     occupation numbers 
     1.0000   1.0000   1.0000   1.0000   1.0000   1.0000   1.0000   1.0000
     1.0000   1.0000   1.0000   1.0000   1.0000   1.0000   1.0000   1.0000
     1.0000   1.0000   1.0000   1.0000   1.0000   1.0000   1.0000   1.0000
     1.0000   1.0000   1.0000   1.0000   1.0000   1.0000   1.0000   1.0000
     1.0000   1.0000   1.0000   1.0000   1.0000   1.0000   1.0000   1.0000
     1.0000   1.0000   1.0000   1.0000   1.0000   1.0000   1.0000   1.0000
     1.0000   1.0000   1.0000   1.0000   1.0000   1.0000   1.0000   1.0000
     1.0000   1.0000   1.0000   1.0000   1.0000   1.0000   1.0000   1.0000
     1.0000   1.0000   1.0000   1.0000   1.0000   1.0000   1.0000   1.0000
     1.0000   1.0000   1.0000   1.0000   1.0000   1.0000   1.0000   1.0000
     1.0000   1.0000   1.0000   1.0000   1.0000   1.0000   1.0000   1.0000
     1.0000   1.0000   1.0000   1.0000   1.0000   1.0000   1.0000   1.0000
     1.0000   1.0000   1.0000   1.0000   1.0000   1.0000   1.0000   1.0000
     1.0000   1.0000   1.0000   1.0000   1.0000   1.0000   1.0000   1.0000
     1.0000   1.0000   1.0000   1.0000   1.0000   1.0000   1.0000   1.0000
     1.0000   1.0000   1.0000   1.0000   0.0000   0.0000   0.0000   0.0000
     0.0000   0.0000   0.0000   0.0000   0.0000   0.0000   0.0000   0.0000
     0.0000   0.0000   0.0000   0.0000   0.0000   0.0000   0.0000   0.0000
     0.0000   0.0000   0.0000   0.0000   0.0000

          k = 0.1667 0.1921 0.2059 ( 25944 PWs)   bands (ev):

   -68.2569 -67.7602 -67.7210 -67.1296 -52.5369 -35.0132 -35.0073 -35.0027
   -34.5246 -34.5087 -34.5071 -34.5038 -34.4656 -34.4393 -33.8878 -33.8850
   -33.8689 -28.8254 -28.7928 -28.7871 -23.2666 -23.0475 -15.0466 -15.0264
   -14.5156 -14.4544 -14.1486 -13.9014 -13.7945 -13.7668 -13.5365 -13.5238
   -13.2139 -13.1817 -12.9933 -12.9466 -12.8360 -12.7537 -12.7324 -12.6179
   -12.5896 -12.3945 -12.3016 -12.2652 -11.9625 -11.8328  -6.8534  -6.7375
    -6.7344  -6.5765  -6.5443  -6.5417  -4.1917  -4.1244  -2.9053  -2.8468
    -2.3310  -1.6012  -1.5183  -1.4308  -1.1842  -1.0751  -0.9634  -0.8725
    -0.7433  -0.4816  -0.3193  -0.2896  -0.2141  -0.0566   0.0372   0.1526
     0.2165   0.2960   0.3495   0.5076   0.6111   0.6593   0.7533   0.9338
     1.0830   1.2112   1.3063   1.3715   1.4200   1.4948   1.6864   1.7330
     1.7908   1.8216   1.8653   1.9284   2.0029   2.1095   2.1636   2.1919
     2.2689   2.3254   2.3964   2.4546   2.5395   2.6349   2.6889   2.8272
     2.8859   2.9747   3.0091   3.0568   3.0929   3.2004   3.2440   3.2859
     3.3259   3.3471   3.3834   3.4376   3.4846   3.5547   3.6020   3.8609
     4.1745   4.2672   4.3223   4.8180   7.1976   7.3647   7.4070   9.3075
     9.7810  10.0712  10.3877  10.8728  11.2816  11.8044  12.4523  12.5628
    12.6232  12.7810  12.9221  13.0244  13.1473  13.2026  13.2802  13.3636
    13.4069  13.4899  13.5432  13.6794  13.8169

     occupation numbers 
     1.0000   1.0000   1.0000   1.0000   1.0000   1.0000   1.0000   1.0000
     1.0000   1.0000   1.0000   1.0000   1.0000   1.0000   1.0000   1.0000
     1.0000   1.0000   1.0000   1.0000   1.0000   1.0000   1.0000   1.0000
     1.0000   1.0000   1.0000   1.0000   1.0000   1.0000   1.0000   1.0000
     1.0000   1.0000   1.0000   1.0000   1.0000   1.0000   1.0000   1.0000
     1.0000   1.0000   1.0000   1.0000   1.0000   1.0000   1.0000   1.0000
     1.0000   1.0000   1.0000   1.0000   1.0000   1.0000   1.0000   1.0000
     1.0000   1.0000   1.0000   1.0000   1.0000   1.0000   1.0000   1.0000
     1.0000   1.0000   1.0000   1.0000   1.0000   1.0000   1.0000   1.0000
     1.0000   1.0000   1.0000   1.0000   1.0000   1.0000   1.0000   1.0000
     1.0000   1.0000   1.0000   1.0000   1.0000   1.0000   1.0000   1.0000
     1.0000   1.0000   1.0000   1.0000   1.0000   1.0000   1.0000   1.0000
     1.0000   1.0000   1.0000   1.0000   1.0000   1.0000   1.0000   1.0000
     1.0000   1.0000   1.0000   1.0000   1.0000   1.0000   1.0000   1.0000
     1.0000   1.0000   1.0000   1.0000   1.0000   1.0000   1.0000   1.0000
     1.0000   1.0000   1.0000   1.0000   0.0000   0.0000   0.0000   0.0000
     0.0000   0.0000   0.0000   0.0000   0.0000   0.0000   0.0000   0.0000
     0.0000   0.0000   0.0000   0.0000   0.0000   0.0000   0.0000   0.0000
     0.0000   0.0000   0.0000   0.0000   0.0000

          k = 0.1667 0.1921-0.1457 ( 25923 PWs)   bands (ev):

   -68.2569 -67.7602 -67.7210 -67.1296 -52.5369 -35.0132 -35.0073 -35.0027
   -34.5246 -34.5087 -34.5071 -34.5038 -34.4656 -34.4393 -33.8878 -33.8850
   -33.8689 -28.8254 -28.7928 -28.7871 -23.2666 -23.0475 -15.0531 -15.0196
   -14.5206 -14.4484 -14.1496 -13.9015 -13.7955 -13.7658 -13.5466 -13.5124
   -13.2073 -13.1890 -13.0027 -12.9394 -12.8406 -12.7515 -12.7255 -12.6242
   -12.5882 -12.3942 -12.3017 -12.2637 -11.9625 -11.8328  -6.8535  -6.7375
    -6.7344  -6.5765  -6.5443  -6.5417  -4.1785  -4.1382  -2.9046  -2.8475
    -2.3334  -1.5986  -1.5337  -1.4179  -1.1954  -1.0822  -0.9527  -0.8715
    -0.7514  -0.4733  -0.3295  -0.2912  -0.1652  -0.0676   0.0318   0.1534
     0.2132   0.3033   0.3386   0.5340   0.6306   0.6851   0.7677   0.9516
     1.0551   1.1583   1.2698   1.3686   1.4335   1.5418   1.6128   1.6819
     1.7285   1.7870   1.8616   1.9243   1.9745   2.1420   2.2081   2.2379
     2.3170   2.3779   2.3923   2.4862   2.5517   2.6175   2.7112   2.7794
     2.9373   2.9697   3.0508   3.0601   3.1150   3.1956   3.2089   3.2431
     3.2970   3.3179   3.3832   3.4287   3.5096   3.5517   3.6057   3.8528
     4.1800   4.2708   4.3124   4.8255   7.1961   7.3673   7.4097   9.2946
     9.8013   9.9017  10.5721  10.8100  11.4214  11.8640  12.4155  12.5012
    12.6483  12.7613  12.9618  12.9668  13.0595  13.1716  13.2402  13.3727
    13.4461  13.5326  13.5672  13.7040  13.7827

     occupation numbers 
     1.0000   1.0000   1.0000   1.0000   1.0000   1.0000   1.0000   1.0000
     1.0000   1.0000   1.0000   1.0000   1.0000   1.0000   1.0000   1.0000
     1.0000   1.0000   1.0000   1.0000   1.0000   1.0000   1.0000   1.0000
     1.0000   1.0000   1.0000   1.0000   1.0000   1.0000   1.0000   1.0000
     1.0000   1.0000   1.0000   1.0000   1.0000   1.0000   1.0000   1.0000
     1.0000   1.0000   1.0000   1.0000   1.0000   1.0000   1.0000   1.0000
     1.0000   1.0000   1.0000   1.0000   1.0000   1.0000   1.0000   1.0000
     1.0000   1.0000   1.0000   1.0000   1.0000   1.0000   1.0000   1.0000
     1.0000   1.0000   1.0000   1.0000   1.0000   1.0000   1.0000   1.0000
     1.0000   1.0000   1.0000   1.0000   1.0000   1.0000   1.0000   1.0000
     1.0000   1.0000   1.0000   1.0000   1.0000   1.0000   1.0000   1.0000
     1.0000   1.0000   1.0000   1.0000   1.0000   1.0000   1.0000   1.0000
     1.0000   1.0000   1.0000   1.0000   1.0000   1.0000   1.0000   1.0000
     1.0000   1.0000   1.0000   1.0000   1.0000   1.0000   1.0000   1.0000
     1.0000   1.0000   1.0000   1.0000   1.0000   1.0000   1.0000   1.0000
     1.0000   1.0000   1.0000   1.0000   0.0000   0.0000   0.0000   0.0000
     0.0000   0.0000   0.0000   0.0000   0.0000   0.0000   0.0000   0.0000
     0.0000   0.0000   0.0000   0.0000   0.0000   0.0000   0.0000   0.0000
     0.0000   0.0000   0.0000   0.0000   0.0000

          k = 0.3333 0.0000 0.0601 ( 25907 PWs)   bands (ev):

   -68.2569 -67.7602 -67.7210 -67.1296 -52.5369 -35.0131 -35.0072 -35.0027
   -34.5246 -34.5087 -34.5071 -34.5038 -34.4656 -34.4393 -33.8877 -33.8850
   -33.8689 -28.8259 -28.7927 -28.7872 -23.2663 -23.0472 -14.9339 -14.8819
   -14.4465 -14.3973 -14.2017 -14.0206 -14.0009 -13.9192 -13.4902 -13.4642
   -13.2192 -13.1751 -12.9729 -12.9068 -12.8965 -12.8138 -12.7478 -12.5879
   -12.5616 -12.3952 -12.3341 -12.2881 -11.9915 -11.8363  -6.8588  -6.7336
    -6.7304  -6.5738  -6.5449  -6.5423  -3.8626  -3.8002  -2.7017  -2.6150
    -2.2910  -1.9326  -1.8937  -1.5919  -1.1166  -0.9576  -0.8964  -0.8739
    -0.6823  -0.3019  -0.2921  -0.2386  -0.1634  -0.0379   0.0278   0.1341
     0.2268   0.2773   0.3647   0.4153   0.4990   0.6122   0.7022   0.7630
     0.9432   1.1087   1.2604   1.3431   1.4122   1.5674   1.5882   1.7028
     1.7180   1.8218   1.8546   1.9831   2.0320   2.1580   2.1828   2.2446
     2.3142   2.3297   2.4248   2.5051   2.5841   2.6357   2.6829   2.7844
     2.8363   2.8716   2.9074   2.9923   3.0498   3.0707   3.1584   3.2239
     3.2720   3.3123   3.3621   3.3808   3.4314   3.5045   3.5756   3.8700
     4.1821   4.3147   4.3986   4.8293   7.2369   7.2934   7.4232   9.3621
     9.6742  10.2010  11.0382  11.4102  12.0424  12.0597  12.2190  12.3805
    12.5451  12.5736  12.6663  12.9644  13.0581  13.2071  13.2756  13.3944
    13.4675  13.5210  13.6525  13.7655  13.8757

     occupation numbers 
     1.0000   1.0000   1.0000   1.0000   1.0000   1.0000   1.0000   1.0000
     1.0000   1.0000   1.0000   1.0000   1.0000   1.0000   1.0000   1.0000
     1.0000   1.0000   1.0000   1.0000   1.0000   1.0000   1.0000   1.0000
     1.0000   1.0000   1.0000   1.0000   1.0000   1.0000   1.0000   1.0000
     1.0000   1.0000   1.0000   1.0000   1.0000   1.0000   1.0000   1.0000
     1.0000   1.0000   1.0000   1.0000   1.0000   1.0000   1.0000   1.0000
     1.0000   1.0000   1.0000   1.0000   1.0000   1.0000   1.0000   1.0000
     1.0000   1.0000   1.0000   1.0000   1.0000   1.0000   1.0000   1.0000
     1.0000   1.0000   1.0000   1.0000   1.0000   1.0000   1.0000   1.0000
     1.0000   1.0000   1.0000   1.0000   1.0000   1.0000   1.0000   1.0000
     1.0000   1.0000   1.0000   1.0000   1.0000   1.0000   1.0000   1.0000
     1.0000   1.0000   1.0000   1.0000   1.0000   1.0000   1.0000   1.0000
     1.0000   1.0000   1.0000   1.0000   1.0000   1.0000   1.0000   1.0000
     1.0000   1.0000   1.0000   1.0000   1.0000   1.0000   1.0000   1.0000
     1.0000   1.0000   1.0000   1.0000   1.0000   1.0000   1.0000   1.0000
     1.0000   1.0000   1.0000   1.0000   0.0000   0.0000   0.0000   0.0000
     0.0000   0.0000   0.0000   0.0000   0.0000   0.0000   0.0000   0.0000
     0.0000   0.0000   0.0000   0.0000   0.0000   0.0000   0.0000   0.0000
     0.0000   0.0000   0.0000   0.0000   0.0000

          k = 0.3333 0.0000 0.2360 ( 25948 PWs)   bands (ev):

   -68.2569 -67.7602 -67.7210 -67.1296 -52.5369 -35.0132 -35.0072 -35.0028
   -34.5246 -34.5087 -34.5071 -34.5038 -34.4657 -34.4393 -33.8877 -33.8850
   -33.8690 -28.8259 -28.7927 -28.7872 -23.2663 -23.0472 -14.9163 -14.9008
   -14.4383 -14.4059 -14.1962 -14.0403 -13.9862 -13.9193 -13.4850 -13.4712
   -13.2183 -13.1763 -12.9544 -12.9251 -12.8744 -12.8415 -12.7303 -12.5998
   -12.5568 -12.3916 -12.3362 -12.2916 -11.9914 -11.8363  -6.8588  -6.7336
    -6.7303  -6.5738  -6.5449  -6.5422  -3.8709  -3.7916  -2.6758  -2.6426
    -2.2833  -1.9388  -1.8864  -1.6006  -1.0716  -0.9935  -0.9223  -0.8482
    -0.6223  -0.3897  -0.2755  -0.2298  -0.1862  -0.0494  -0.0306   0.1557
     0.2424   0.2828   0.3551   0.4101   0.4726   0.6027   0.7052   0.8231
     0.9939   1.1404   1.2257   1.3006   1.4866   1.5128   1.6441   1.6954
     1.7463   1.7942   1.9081   2.0108   2.0552   2.0939   2.1664   2.2372
     2.2628   2.3242   2.4181   2.5095   2.5689   2.6067   2.6824   2.7861
     2.8069   2.9051   2.9464   3.0109   3.0256   3.0898   3.1598   3.2366
     3.2695   3.2759   3.3503   3.3856   3.4535   3.4817   3.5919   3.8623
     4.1867   4.3170   4.4008   4.8250   7.2384   7.2954   7.4235   9.3573
     9.7092  10.5387  10.5592  11.4803  11.9275  12.0804  12.1495  12.4068
    12.5488  12.5708  12.7257  13.0072  13.1426  13.2646  13.3002  13.4089
    13.4340  13.6094  13.6596  13.7096  13.8249

     occupation numbers 
     1.0000   1.0000   1.0000   1.0000   1.0000   1.0000   1.0000   1.0000
     1.0000   1.0000   1.0000   1.0000   1.0000   1.0000   1.0000   1.0000
     1.0000   1.0000   1.0000   1.0000   1.0000   1.0000   1.0000   1.0000
     1.0000   1.0000   1.0000   1.0000   1.0000   1.0000   1.0000   1.0000
     1.0000   1.0000   1.0000   1.0000   1.0000   1.0000   1.0000   1.0000
     1.0000   1.0000   1.0000   1.0000   1.0000   1.0000   1.0000   1.0000
     1.0000   1.0000   1.0000   1.0000   1.0000   1.0000   1.0000   1.0000
     1.0000   1.0000   1.0000   1.0000   1.0000   1.0000   1.0000   1.0000
     1.0000   1.0000   1.0000   1.0000   1.0000   1.0000   1.0000   1.0000
     1.0000   1.0000   1.0000   1.0000   1.0000   1.0000   1.0000   1.0000
     1.0000   1.0000   1.0000   1.0000   1.0000   1.0000   1.0000   1.0000
     1.0000   1.0000   1.0000   1.0000   1.0000   1.0000   1.0000   1.0000
     1.0000   1.0000   1.0000   1.0000   1.0000   1.0000   1.0000   1.0000
     1.0000   1.0000   1.0000   1.0000   1.0000   1.0000   1.0000   1.0000
     1.0000   1.0000   1.0000   1.0000   1.0000   1.0000   1.0000   1.0000
     1.0000   1.0000   1.0000   1.0000   0.0000   0.0000   0.0000   0.0000
     0.0000   0.0000   0.0000   0.0000   0.0000   0.0000   0.0000   0.0000
     0.0000   0.0000   0.0000   0.0000   0.0000   0.0000   0.0000   0.0000
     0.0000   0.0000   0.0000   0.0000   0.0000

          k = 0.3333 0.0000-0.1157 ( 25913 PWs)   bands (ev):

   -68.2569 -67.7602 -67.7210 -67.1296 -52.5369 -35.0131 -35.0072 -35.0028
   -34.5246 -34.5087 -34.5071 -34.5038 -34.4656 -34.4393 -33.8877 -33.8850
   -33.8689 -28.8259 -28.7927 -28.7872 -23.2663 -23.0472 -14.9278 -14.8887
   -14.4359 -14.4088 -14.1981 -14.0298 -13.9945 -13.9194 -13.4962 -13.4585
   -13.2042 -13.1914 -12.9636 -12.9174 -12.8913 -12.8194 -12.7330 -12.5961
   -12.5656 -12.3924 -12.3320 -12.2911 -11.9915 -11.8363  -6.8589  -6.7336
    -6.7304  -6.5738  -6.5449  -6.5422  -3.8444  -3.8188  -2.6902  -2.6278
    -2.2865  -1.9528  -1.8705  -1.5975  -1.1201  -0.9496  -0.9264  -0.8355
    -0.6626  -0.3312  -0.2938  -0.2590  -0.1798  -0.0362   0.0267   0.1172
     0.2116   0.2874   0.3726   0.4019   0.5162   0.6446   0.7230   0.7889
     0.9756   1.1668   1.2030   1.3244   1.4374   1.4829   1.6263   1.6527
     1.6946   1.7701   1.8937   1.9654   2.0116   2.1507   2.2362   2.2665
     2.3120   2.3687   2.4740   2.5282   2.5722   2.6371   2.6572   2.7535
     2.8121   2.9181   2.9783   2.9858   3.0088   3.0997   3.1444   3.1886
     3.2199   3.2933   3.3688   3.3842   3.4422   3.4884   3.5937   3.8601
     4.1924   4.3161   4.3966   4.8323   7.2383   7.2972   7.4242   9.3561
     9.7749  10.1060  10.9584  11.5173  12.0072  12.1171  12.1609  12.4179
    12.5763  12.5894  12.7668  12.9736  13.0145  13.1494  13.1917  13.2817
    13.4311  13.6249  13.6474  13.7638  13.8913

     occupation numbers 
     1.0000   1.0000   1.0000   1.0000   1.0000   1.0000   1.0000   1.0000
     1.0000   1.0000   1.0000   1.0000   1.0000   1.0000   1.0000   1.0000
     1.0000   1.0000   1.0000   1.0000   1.0000   1.0000   1.0000   1.0000
     1.0000   1.0000   1.0000   1.0000   1.0000   1.0000   1.0000   1.0000
     1.0000   1.0000   1.0000   1.0000   1.0000   1.0000   1.0000   1.0000
     1.0000   1.0000   1.0000   1.0000   1.0000   1.0000   1.0000   1.0000
     1.0000   1.0000   1.0000   1.0000   1.0000   1.0000   1.0000   1.0000
     1.0000   1.0000   1.0000   1.0000   1.0000   1.0000   1.0000   1.0000
     1.0000   1.0000   1.0000   1.0000   1.0000   1.0000   1.0000   1.0000
     1.0000   1.0000   1.0000   1.0000   1.0000   1.0000   1.0000   1.0000
     1.0000   1.0000   1.0000   1.0000   1.0000   1.0000   1.0000   1.0000
     1.0000   1.0000   1.0000   1.0000   1.0000   1.0000   1.0000   1.0000
     1.0000   1.0000   1.0000   1.0000   1.0000   1.0000   1.0000   1.0000
     1.0000   1.0000   1.0000   1.0000   1.0000   1.0000   1.0000   1.0000
     1.0000   1.0000   1.0000   1.0000   1.0000   1.0000   1.0000   1.0000
     1.0000   1.0000   1.0000   1.0000   0.0000   0.0000   0.0000   0.0000
     0.0000   0.0000   0.0000   0.0000   0.0000   0.0000   0.0000   0.0000
     0.0000   0.0000   0.0000   0.0000   0.0000   0.0000   0.0000   0.0000
     0.0000   0.0000   0.0000   0.0000   0.0000

[...]
     atom    4 type  5   force =    -0.00000000    0.00025336   -0.00000000
     atom    5 type  5   force =    -0.00000000    0.00103907    0.00000000
     atom    6 type  5   force =     0.00000000   -0.00149122   -0.00000000
     atom    7 type  7   force =     0.00322349    0.01186018   -0.00565269
     atom    8 type  7   force =    -0.00322353    0.01186019    0.00565282
     atom    9 type  7   force =    -0.00151209   -0.00197221   -0.02226325
     atom   10 type  7   force =     0.00151207   -0.00197221    0.02226325
     atom   11 type  7   force =    -0.00158644   -0.01146459    0.00898134
     atom   12 type  7   force =     0.00158644   -0.01146459   -0.00898134
     atom   13 type  1   force =    -0.00049928   -0.00105868    0.00209173
     atom   14 type  1   force =     0.00049931   -0.00105868   -0.00209173
     atom   15 type  6   force =     0.00006923   -0.00170887    0.00570988
     atom   16 type  6   force =    -0.00006924   -0.00170886   -0.00570987
     atom   17 type  6   force =     0.00018051    0.00116164   -0.00816537
     atom   18 type  6   force =    -0.00018051    0.00116164    0.00816537
     atom   19 type  6   force =     0.00004372    0.00017837    0.00673265
     atom   20 type  6   force =    -0.00004371    0.00017837   -0.00673265
     atom   21 type  6   force =     0.00116327   -0.00000766   -0.00223693
     atom   22 type  6   force =    -0.00116328   -0.00000766    0.00223692
     atom   23 type  6   force =     0.00441455   -0.00145757   -0.00631201
     atom   24 type  6   force =    -0.00441456   -0.00145757    0.00631198
     atom   25 type  6   force =    -0.00331577   -0.00014746   -0.00649168
     atom   26 type  6   force =     0.00331579   -0.00014746    0.00649164
     atom   27 type  6   force =    -0.00098170    0.00176104    0.00796204
     atom   28 type  6   force =     0.00098170    0.00176104   -0.00796202
     atom   29 type  6   force =     0.00095694   -0.00156478   -0.00750316
     atom   30 type  6   force =    -0.00095695   -0.00156479    0.00750313
     atom   31 type  6   force =    -0.00233297   -0.00303286   -0.00616902
     atom   32 type  6   force =     0.00233296   -0.00303286    0.00616902
     atom   33 type  6   force =     0.00103223    0.00406980    0.00675767
     atom   34 type  6   force =    -0.00103223    0.00406980   -0.00675765
     atom   35 type  6   force =     0.00062517    0.00248050    0.01111244
     atom   36 type  6   force =    -0.00062516    0.00248050   -0.01111241
     atom   37 type  6   force =    -0.01178139    0.00045710   -0.00407773
     atom   38 type  6   force =     0.01178137    0.00045710    0.00407773
     atom   39 type  3   force =     0.00000000    0.00000000    0.00000000
     atom   40 type  3   force =     0.00000000    0.00000000    0.00000000
     atom   41 type  3   force =     0.00000000    0.00000000    0.00000000
     atom   42 type  3   force =     0.00000000    0.00000000    0.00000000
     atom   43 type  2   force =     0.00000000   -0.00000592   -0.00000000
     The Hubbard contrib.    to forces
     atom    1 type  4   force =     0.00000000    0.00000000    0.00000000
     atom    2 type  4   force =     0.00000000    0.00000000    0.00000000
     atom    3 type  5   force =     0.00000000    0.00000000    0.00000000
     atom    4 type  5   force =     0.00000000    0.00000000    0.00000000
     atom    5 type  5   force =     0.00000000    0.00000000    0.00000000
     atom    6 type  5   force =     0.00000000    0.00000000    0.00000000
     atom    7 type  7   force =     0.00000000    0.00000000    0.00000000
     atom    8 type  7   force =     0.00000000    0.00000000    0.00000000
     atom    9 type  7   force =     0.00000000    0.00000000    0.00000000
     atom   10 type  7   force =     0.00000000    0.00000000    0.00000000
     atom   11 type  7   force =     0.00000000    0.00000000    0.00000000
     atom   12 type  7   force =     0.00000000    0.00000000    0.00000000
     atom   13 type  1   force =     0.00000000    0.00000000    0.00000000
     atom   14 type  1   force =     0.00000000    0.00000000    0.00000000
     atom   15 type  6   force =     0.00000000    0.00000000    0.00000000
     atom   16 type  6   force =     0.00000000    0.00000000    0.00000000
     atom   17 type  6   force =     0.00000000    0.00000000    0.00000000
     atom   18 type  6   force =     0.00000000    0.00000000    0.00000000
     atom   19 type  6   force =     0.00000000    0.00000000    0.00000000
     atom   20 type  6   force =     0.00000000    0.00000000    0.00000000
     atom   21 type  6   force =     0.00000000    0.00000000    0.00000000
     atom   22 type  6   force =     0.00000000    0.00000000    0.00000000
     atom   23 type  6   force =     0.00000000    0.00000000    0.00000000
     atom   24 type  6   force =     0.00000000    0.00000000    0.00000000
     atom   25 type  6   force =     0.00000000    0.00000000    0.00000000
     atom   26 type  6   force =     0.00000000    0.00000000    0.00000000
     atom   27 type  6   force =     0.00000000    0.00000000    0.00000000
     atom   28 type  6   force =     0.00000000    0.00000000    0.00000000
     atom   29 type  6   force =     0.00000000    0.00000000    0.00000000
     atom   30 type  6   force =     0.00000000    0.00000000    0.00000000
     atom   31 type  6   force =     0.00000000    0.00000000    0.00000000
     atom   32 type  6   force =     0.00000000    0.00000000    0.00000000
     atom   33 type  6   force =     0.00000000    0.00000000    0.00000000
     atom   34 type  6   force =     0.00000000    0.00000000    0.00000000
     atom   35 type  6   force =     0.00000000    0.00000000    0.00000000
     atom   36 type  6   force =     0.00000000    0.00000000    0.00000000
     atom   37 type  6   force =     0.00000000    0.00000000    0.00000000
     atom   38 type  6   force =     0.00000000    0.00000000    0.00000000
     atom   39 type  3   force =     0.00000000    0.00000000    0.00000000
     atom   40 type  3   force =     0.00000000    0.00000000    0.00000000
     atom   41 type  3   force =     0.00000000    0.00000000    0.00000000
     atom   42 type  3   force =     0.00000000    0.00000000    0.00000000
     atom   43 type  2   force =     0.00000000    0.00000000    0.00000000
     The SCF correction term to forces
     atom    1 type  4   force =     0.00000000    0.00000239   -0.00000000
     atom    2 type  4   force =     0.00000000   -0.00000213   -0.00000000
     atom    3 type  5   force =    -0.00000000   -0.00000586    0.00000000
     atom    4 type  5   force =     0.00000000    0.00000273   -0.00000000
     atom    5 type  5   force =    -0.00000000   -0.00000852    0.00000000
     atom    6 type  5   force =    -0.00000000   -0.00000356    0.00000000
     atom    7 type  7   force =     0.00000057   -0.00000543   -0.00000781
     atom    8 type  7   force =    -0.00000057   -0.00000543    0.00000781
     atom    9 type  7   force =    -0.00000036    0.00000413    0.00000025
     atom   10 type  7   force =     0.00000036    0.00000413   -0.00000025
     atom   11 type  7   force =    -0.00000015    0.00000197    0.00000088
     atom   12 type  7   force =     0.00000015    0.00000197   -0.00000088
     atom   13 type  1   force =     0.00000013   -0.00000078    0.00000700
     atom   14 type  1   force =    -0.00000013   -0.00000078   -0.00000700
     atom   15 type  6   force =    -0.00000205   -0.00000382   -0.00000918
     atom   16 type  6   force =     0.00000205   -0.00000382    0.00000918
     atom   17 type  6   force =    -0.00000205    0.00000596    0.00001061
     atom   18 type  6   force =     0.00000205    0.00000596   -0.00001061
     atom   19 type  6   force =    -0.00000160    0.00000685   -0.00000646
     atom   20 type  6   force =     0.00000160    0.00000685    0.00000646
     atom   21 type  6   force =    -0.00001133   -0.00000760    0.00000852
     atom   22 type  6   force =     0.00001133   -0.00000760   -0.00000852
     atom   23 type  6   force =    -0.00000003   -0.00000295   -0.00000250
     atom   24 type  6   force =     0.00000003   -0.00000295    0.00000250
     atom   25 type  6   force =     0.00000149   -0.00000155   -0.00000223
     atom   26 type  6   force =    -0.00000149   -0.00000155    0.00000223
     atom   27 type  6   force =    -0.00000054    0.00000110    0.00000151
     atom   28 type  6   force =     0.00000054    0.00000110   -0.00000151
     atom   29 type  6   force =    -0.00000069    0.00000069   -0.00000305
     atom   30 type  6   force =     0.00000069    0.00000069    0.00000305
     atom   31 type  6   force =    -0.00000025    0.00000085   -0.00000827
     atom   32 type  6   force =     0.00000025    0.00000085    0.00000827
     atom   33 type  6   force =    -0.00000015   -0.00000036    0.00000398
     atom   34 type  6   force =     0.00000015   -0.00000036   -0.00000398
     atom   35 type  6   force =    -0.00000399   -0.00000538   -0.00001362
     atom   36 type  6   force =     0.00000399   -0.00000538    0.00001362
     atom   37 type  6   force =    -0.00001092    0.00000111   -0.00001029
     atom   38 type  6   force =     0.00001092    0.00000111    0.00001029
     atom   39 type  3   force =    -0.00000041   -0.00000039   -0.00000668
     atom   40 type  3   force =     0.00000041   -0.00000039    0.00000668
     atom   41 type  3   force =    -0.00000487   -0.00000014   -0.00000148
     atom   42 type  3   force =     0.00000487   -0.00000014    0.00000148
     atom   43 type  2   force =     0.00000000   -0.00001283   -0.00000000

     DFT-D3 dispersion contribution to forces:
     atom    1 type  4   force =     0.00000000    0.00035570   -0.00000000
     atom    2 type  4   force =    -0.00000000   -0.00037231   -0.00000000
     atom    3 type  5   force =     0.00000000    0.00045324   -0.00000000
     atom    4 type  5   force =    -0.00000000    0.00025516   -0.00000000
     atom    5 type  5   force =     0.00000000    0.00200823    0.00000000
     atom    6 type  5   force =     0.00000000   -0.00203051   -0.00000000
     atom    7 type  7   force =    -0.00023295   -0.00036550    0.00057759
     atom    8 type  7   force =     0.00023295   -0.00036550   -0.00057759
     atom    9 type  7   force =     0.00037254    0.00036580   -0.00070315
     atom   10 type  7   force =    -0.00037254    0.00036580    0.00070315
     atom   11 type  7   force =    -0.00010922   -0.00035803   -0.00058319
     atom   12 type  7   force =     0.00010922   -0.00035803    0.00058319
     atom   13 type  1   force =     0.00021207    0.00031329   -0.00058969
     atom   14 type  1   force =    -0.00021207    0.00031329    0.00058969
     atom   15 type  6   force =    -0.00000092   -0.00025580    0.00057692
     atom   16 type  6   force =     0.00000092   -0.00025580   -0.00057692
     atom   17 type  6   force =     0.00008001   -0.00002410   -0.00062435
     atom   18 type  6   force =    -0.00008001   -0.00002410    0.00062434
     atom   19 type  6   force =     0.00003447   -0.00019211    0.00036290
     atom   20 type  6   force =    -0.00003447   -0.00019211   -0.00036290
     atom   21 type  6   force =     0.00014907    0.00007479    0.00023048
     atom   22 type  6   force =    -0.00014907    0.00007479   -0.00023048
     atom   23 type  6   force =    -0.00013731    0.00110265    0.00032872
     atom   24 type  6   force =     0.00013731    0.00110265   -0.00032872
     atom   25 type  6   force =     0.00067898    0.00007263    0.00032373
     atom   26 type  6   force =    -0.00067898    0.00007263   -0.00032373
     atom   27 type  6   force =     0.00026144   -0.00049589   -0.00028629
     atom   28 type  6   force =    -0.00026144   -0.00049589    0.00028629
     atom   29 type  6   force =    -0.00026831    0.00028322    0.00023933
     atom   30 type  6   force =     0.00026831    0.00028322   -0.00023933
     atom   31 type  6   force =     0.00088723   -0.00045595    0.00036088
     atom   32 type  6   force =    -0.00088723   -0.00045595   -0.00036088
     atom   33 type  6   force =     0.00071195   -0.00057429   -0.00012921
     atom   34 type  6   force =    -0.00071195   -0.00057429    0.00012921
     atom   35 type  6   force =     0.00020305    0.00026232   -0.00072755
     atom   36 type  6   force =    -0.00020305    0.00026232    0.00072755
     atom   37 type  6   force =     0.00026254   -0.00004271   -0.00013385
     atom   38 type  6   force =    -0.00026254   -0.00004271    0.00013385
     atom   39 type  3   force =     0.00013856    0.00040472   -0.00021978
     atom   40 type  3   force =    -0.00013856    0.00040472    0.00021978
     atom   41 type  3   force =     0.00106812    0.00009520   -0.00011112
     atom   42 type  3   force =    -0.00106812    0.00009520    0.00011112
     atom   43 type  2   force =    -0.00000000   -0.00109001   -0.00000000

     Total force =     0.003024     Total SCF correction =     0.000056

     DFT-D3 dispersion Force =     0.005453


     Computing stress (Cartesian axis) and pressure

          total   stress  (Ry/bohr**3)                   (kbar)     P=        0.06
   0.00000063   0.00000000   0.00000031            0.09        0.00        0.05
   0.00000000  -0.00000098   0.00000000            0.00       -0.14        0.00
   0.00000031   0.00000000   0.00000147            0.05        0.00        0.22

     kinetic stress (kbar)  18360.54      0.00     -7.75
                                0.00  18527.30      0.00
                               -7.75      0.00  18390.93

     local   stress (kbar) -29135.05      0.00   -226.56
                                0.00 -26968.49     -0.00
                             -226.56     -0.00   6636.77

     nonloc. stress (kbar)   3890.43      0.00     -1.93
                                0.00   3905.11      0.00
                               -1.93      0.00   3884.69

     hartree stress (kbar)  16083.28     -0.00     93.45
                               -0.00  15290.92      0.00
                               93.45      0.00  -1142.27

     exc-cor stress (kbar)  -2354.40     -0.00     -0.01
                               -0.00  -2357.49      0.00
                               -0.01      0.00  -2356.12

     corecor stress (kbar)  -1982.13      0.00     -0.00
                                0.00  -1982.65     -0.00
                               -0.00     -0.00  -1982.65

     ewald   stress (kbar)  -4848.40     -0.00    142.60
                               -0.00  -6400.48      0.00
                              142.60      0.00 -23419.45

     hubbard stress (kbar)      0.00      0.00      0.00
                                0.00      0.00      0.00
                                0.00      0.00      0.00

     DFT-D   stress (kbar)    -14.17     -0.00      0.24
                               -0.00    -14.36     -0.00
                                0.24     -0.00    -11.67

     XDM     stress (kbar)      0.00      0.00      0.00
                                0.00      0.00      0.00
                                0.00      0.00      0.00

     dft-nl  stress (kbar)      0.00      0.00      0.00
                                0.00      0.00      0.00
                                0.00      0.00      0.00

     TS-vdW  stress (kbar)      0.00      0.00      0.00
                                0.00      0.00      0.00
                                0.00      0.00      0.00

     MDB     stress (kbar)      0.00      0.00      0.00
                                0.00      0.00      0.00
                                0.00      0.00      0.00

     3D-RISM stress (kbar)      0.00      0.00      0.00
                                0.00      0.00      0.00
                                0.00      0.00      0.00


     Writing all to output data dir ./temp/phl-ti1-ti2-v1.save/ :
     XML data file, charge density, pseudopotentials, collected wavefunctions

     init_run     :    325.40s CPU    328.49s WALL (       2 calls)
     electrons    :  96786.68s CPU  97481.69s WALL (      16 calls)
     update_pot   :     36.79s CPU     37.15s WALL (      14 calls)
     forces       :   1850.12s CPU   1859.54s WALL (      16 calls)
     force_dftd3  :     63.50s CPU     63.63s WALL (      16 calls)
     stress       :   6278.85s CPU   6331.21s WALL (      16 calls)
     stres_dftd3  :     63.51s CPU     63.63s WALL (      16 calls)

     Called by init_run:
     wfcinit      :    310.71s CPU    312.76s WALL (       2 calls)
     wfcinit:atom :      0.52s CPU      0.52s WALL (      80 calls)
     wfcinit:wfcr :    305.95s CPU    307.98s WALL (      80 calls)
     potinit      :      5.44s CPU      5.51s WALL (       2 calls)
     hinit0       :      1.91s CPU      1.95s WALL (       2 calls)

     Called by electrons:
     c_bands      :  89237.89s CPU  89729.39s WALL (     159 calls)
     sum_band     :   6620.50s CPU   6755.01s WALL (     159 calls)
     v_of_rho     :     62.06s CPU     64.41s WALL (     163 calls)
     v_h          :      2.00s CPU      2.10s WALL (     163 calls)
     v_xc         :     71.92s CPU     74.50s WALL (     195 calls)
     newd         :    558.35s CPU    631.51s WALL (     163 calls)
     PAW_pot      :    368.88s CPU    368.95s WALL (     177 calls)
     mix_rho      :      8.14s CPU      8.52s WALL (     159 calls)
     energy_dftd3 :     48.81s CPU     48.82s WALL (      16 calls)

     Called by c_bands:
     init_us_2    :    235.25s CPU    235.50s WALL (   14640 calls)
     cegterg      :  88774.94s CPU  89265.19s WALL (    6404 calls)

     Called by sum_band:
     sum_band:wei :      0.08s CPU      0.08s WALL (     159 calls)
     sum_band:loo :   5543.82s CPU   5594.94s WALL (     159 calls)
     sum_band:buf :     26.14s CPU     26.23s WALL (    6360 calls)
     sum_band:ini :    103.45s CPU    103.52s WALL (    6360 calls)
     sum_band:cal :   4365.93s CPU   4368.86s WALL (    6920 calls)
     sum_band:bec :     11.13s CPU     11.15s WALL (    6920 calls)
     addusdens    :   1054.62s CPU   1137.36s WALL (     159 calls)
                                        0.00s GPU  (     159 calls)
     addusd:skk   :      3.70s CPU      5.85s WALL (    1113 calls)
                                        0.00s GPU  (    1113 calls)

     Called by *egterg:
     cdiaghg      :   3917.63s CPU   3918.11s WALL (   44117 calls)
     cegterg:over :  11131.49s CPU  11140.22s WALL (   38796 calls)
     cegterg:upda :   6634.15s CPU   6663.29s WALL (   38796 calls)
     cegterg:last :  17922.03s CPU  17924.55s WALL (   18929 calls)
     h_psi        :  33034.09s CPU  33399.81s WALL (   45280 calls)
     s_psi        :  13171.67s CPU  13173.73s WALL (   45280 calls)
     g_psi        :     65.18s CPU     65.32s WALL (   38796 calls)

     Called by h_psi:
     h_psi:calbec :  12941.40s CPU  12951.89s WALL (   45280 calls)
     vloc_psi     :   6872.32s CPU   7189.37s WALL (   45280 calls)
     add_vuspsi   :  13159.35s CPU  13161.76s WALL (   45280 calls)

     General routines
     calbec       :  19326.62s CPU  19341.64s WALL (   55400 calls)
     fft          :     33.56s CPU     36.76s WALL (    4721 calls)
     ffts         :      0.97s CPU      1.04s WALL (     644 calls)
     fftw         :   5742.96s CPU   5972.16s WALL ( 7112808 calls)
     interpolate  :      3.72s CPU      3.93s WALL (     326 calls)

     Parallel routines

     PAW routines
     PAW_pot      :    368.88s CPU    368.95s WALL (     177 calls)
     PAW_symme    :      0.10s CPU      0.11s WALL (     336 calls)

     PWSCF        :   1d 5h22m CPU   1d 5h34m WALL


   This run was terminated on:  16:27:45  15Mar2025            

=------------------------------------------------------------------------------=
   JOB DONE.
=------------------------------------------------------------------------------=
