
     Program PWSCF v.7.3.1 starts on 28Jan2025 at 14: 0:57 

     This program is part of the open-source Quantum ESPRESSO suite
     for quantum simulation of materials; please cite
         "P. Giannozzi et al., J. Phys.:Condens. Matter 21 395502 (2009);
         "P. Giannozzi et al., J. Phys.:Condens. Matter 29 465901 (2017);
         "P. Giannozzi et al., J. Chem. Phys. 152 154105 (2020);
          URL http://www.quantum-espresso.org", 
     in publications or presentations arising from this work. More details at
     http://www.quantum-espresso.org/quote

     Parallel version (MPI), running on     6 processors

     MPI processes distributed on     1 nodes
     1168 MiB available memory on the printing compute node when the environment starts

     Reading input from relax.in
Warning: card  &CELL ignored
Warning: card    CELL_DOFREE     = 'IBRAV' ignored
Warning: card  / ignored

     Current dimensions of program PWSCF are:
     Max number of different atomic species (ntypx) = 10
     Max number of k-points (npk) =  40000
     Max angular momentum in pseudopotentials (lmaxx) =  4
     file Al.pbe-n-kjpaw_psl.1.0.0.UPF: wavefunction(s)  3S 3P renormalized
     file Fe.pbe-spn-kjpaw_psl.1.0.0.UPF: wavefunction(s)  3P 3D renormalized
     file H.pbe-kjpaw_psl.1.0.0.UPF: wavefunction(s)  1S renormalized
     file K.pbe-spn-kjpaw_psl.1.0.0.UPF: wavefunction(s)  3S renormalized
     file Mg.pbe-spnl-kjpaw_psl.1.0.0.UPF: wavefunction(s)  2P renormalized
     file O.pbe-n-kjpaw_psl.1.0.0.UPF: wavefunction(s)  2S 2P renormalized
     file Si.pbe-n-kjpaw_psl.1.0.0.UPF: wavefunction(s)  3S 3P renormalized

     R & G space division:  proc/nbgrp/npool/nimage =       6
     Subspace diagonalization in iterative solution of the eigenvalue problem:
     one sub-group per band group will be used
     custom distributed-memory algorithm (size of sub-group:  2*  2 procs)


     Parallelization info
     --------------------
     sticks:   dense  smooth     PW     G-vecs:    dense   smooth      PW
     Min        1105     554    150                97744    34578    4918
     Max        1106     555    151                97745    34580    4920
     Sum        6633    3329    905               586467   207475   29511

     Using Slab Decomposition



     bravais-lattice index     =          -12
     lattice parameter (alat)  =      10.0136  a.u.
     unit-cell volume          =    3303.4414 (a.u.)^3
     number of atoms/cell      =           44
     number of atomic types    =            7
     number of electrons       =       262.00
     number of Kohn-Sham states=          157
     kinetic-energy cutoff     =      60.0000  Ry
     charge density cutoff     =     480.0000  Ry
     scf convergence threshold =      1.0E-06
     mixing beta               =       0.7000
     number of iterations used =            8  plain     mixing
     energy convergence thresh.=      1.0E-04
     force convergence thresh. =      1.0E-03
     Exchange-correlation= SLA  PW   PBX  PBC
                           (   1   4   3   4   0   0   0)
     nstep                     =           50


     celldm(1)=  10.013640  celldm(2)=   1.735306  celldm(3)=   1.926511
     celldm(4)=   0.000000  celldm(5)=  -0.177565  celldm(6)=   0.000000

     crystal axes: (cart. coord. in units of alat)
               a(1) = (   1.000000   0.000000   0.000000 )  
               a(2) = (   0.000000   1.735306   0.000000 )  
               a(3) = (  -0.342081   0.000000   1.895896 )  

     reciprocal axes: (cart. coord. in units 2 pi/alat)
               b(1) = (  1.000000 -0.000000  0.180432 )  
               b(2) = (  0.000000  0.576267 -0.000000 )  
               b(3) = (  0.000000  0.000000  0.527455 )  


     PseudoPot. # 1 for Al read from file:
     ./../../../pseudos/Al.pbe-n-kjpaw_psl.1.0.0.UPF
     MD5 check sum: 502b6b27b9c6270cab5dd1084b96fa6d
     Pseudo is Projector augmented-wave + core cor, Zval =  3.0
     Generated using &quot;atomic&quot; code by A. Dal Corso  v.6.3
     Shape of augmentation charge: PSQ
     Using radial grid of 1135 points,  6 beta functions with: 
                l(1) =   0
                l(2) =   0
                l(3) =   1
                l(4) =   1
                l(5) =   2
                l(6) =   2
     Q(r) pseudized with 0 coefficients 


     PseudoPot. # 2 for Fe read from file:
     ./../../../pseudos/Fe.pbe-spn-kjpaw_psl.1.0.0.UPF
     MD5 check sum: fc81f059e5c5069939230b1155715ae8
     Pseudo is Projector augmented-wave + core cor, Zval = 16.0
     Generated using &quot;atomic&quot; code by A. Dal Corso  v.6.3
     Shape of augmentation charge: PSQ
     Using radial grid of 1191 points,  6 beta functions with: 
                l(1) =   0
                l(2) =   0
                l(3) =   1
                l(4) =   1
                l(5) =   2
                l(6) =   2
     Q(r) pseudized with 0 coefficients 


     PseudoPot. # 3 for H  read from file:
     ./../../../pseudos/H.pbe-kjpaw_psl.1.0.0.UPF
     MD5 check sum: d81a744832360e4a8af0b0b5b123bc2a
     Pseudo is Projector augmented-wave, Zval =  1.0
     Generated using &quot;atomic&quot; code by A. Dal Corso  v.6.3MaX
     Shape of augmentation charge: PSQ
     Using radial grid of  929 points,  2 beta functions with: 
                l(1) =   0
                l(2) =   0
     Q(r) pseudized with 0 coefficients 


     PseudoPot. # 4 for K  read from file:
     ./../../../pseudos/K.pbe-spn-kjpaw_psl.1.0.0.UPF
     MD5 check sum: 34cc42130a09071ebe376fd42eb21491
     Pseudo is Projector augmented-wave + core cor, Zval =  9.0
     Generated using &quot;atomic&quot; code by A. Dal Corso  v.6.2.2
     Shape of augmentation charge: PSQ
     Using radial grid of 1165 points,  6 beta functions with: 
                l(1) =   0
                l(2) =   0
                l(3) =   1
                l(4) =   1
                l(5) =   2
                l(6) =   2
     Q(r) pseudized with 0 coefficients 


     PseudoPot. # 5 for Mg read from file:
     ./../../../pseudos/Mg.pbe-spnl-kjpaw_psl.1.0.0.UPF
     MD5 check sum: fda14e0d92a6a9a5ebed782e5a4b3067
     Pseudo is Projector augmented-wave + core cor, Zval = 10.0
     Generated using &quot;atomic&quot; code by A. Dal Corso  v.6.3
     Shape of augmentation charge: PSQ
     Using radial grid of 1129 points,  4 beta functions with: 
                l(1) =   0
                l(2) =   0
                l(3) =   1
                l(4) =   1
     Q(r) pseudized with 0 coefficients 


     PseudoPot. # 6 for O  read from file:
     ./../../../pseudos/O.pbe-n-kjpaw_psl.1.0.0.UPF
     MD5 check sum: e99d9cef9b487d1ca56f5b95ecd0fd7a
     Pseudo is Projector augmented-wave + core cor, Zval =  6.0
     Generated using &quot;atomic&quot; code by A. Dal Corso  v.6.3
     Shape of augmentation charge: PSQ
     Using radial grid of 1095 points,  4 beta functions with: 
                l(1) =   0
                l(2) =   0
                l(3) =   1
                l(4) =   1
     Q(r) pseudized with 0 coefficients 


     PseudoPot. # 7 for Si read from file:
     ./../../../pseudos/Si.pbe-n-kjpaw_psl.1.0.0.UPF
     MD5 check sum: c39c59da582df4a0d9f10159256ea34e
     Pseudo is Projector augmented-wave + core cor, Zval =  4.0
     Generated using &quot;atomic&quot; code by A. Dal Corso  v.6.3
     Shape of augmentation charge: PSQ
     Using radial grid of 1141 points,  6 beta functions with: 
                l(1) =   0
                l(2) =   0
                l(3) =   1
                l(4) =   1
                l(5) =   2
                l(6) =   2
     Q(r) pseudized with 0 coefficients 


     atomic species   valence    mass     pseudopotential
     Al                3.00    26.98154     Al( 1.00)
     Fe               16.00    55.84500     Fe( 1.00)
     H                 1.00     1.00794     H ( 1.00)
     K                 9.00    39.09830     K ( 1.00)
     Mg               10.00    24.30500     Mg( 1.00)
     O                 6.00    15.99940     O ( 1.00)
     Si                4.00    28.08550     Si( 1.00)

      2 Sym. Ops. (no inversion) found


                                    s                        frac. trans.

      isym =  1     identity                                     

 cryst.   s( 1) = (     1          0          0      )
                  (     0          1          0      )
                  (     0          0          1      )

 cart.    s( 1) = (  1.0000000  0.0000000 -0.0000000 )
                  (  0.0000000  1.0000000  0.0000000 )
                  (  0.0000000  0.0000000  1.0000000 )


      isym =  2     180 deg rotation - cart. axis [0,1,0]        

 cryst.   s( 2) = (    -1          0          0      )
                  (     0          1          0      )
                  (     0          0         -1      )

 cart.    s( 2) = ( -1.0000000  0.0000000  0.0000000 )
                  (  0.0000000  1.0000000  0.0000000 )
                  (  0.0000000  0.0000000 -1.0000000 )


     point group C_2  (2)   
     there are  2 classes
     the character table:

       E     C2   
A      1.00  1.00
B      1.00 -1.00

     the symmetry operations in each class and the name of the first element:

     E        1
          identity                                               
     C2       2
          180 deg rotation - cart. axis [0,1,0]                  

   Cartesian axes

     site n.     atom                  positions (alat units)
         1        K      tau(   1) = (   0.0000000   0.8559224   0.0000000  )
         2        K      tau(   2) = (   0.5000000   0.0093568   0.0000000  )
         3        Mg     tau(   3) = (  -0.1710407   0.0067712   0.9479482  )
         4        Mg     tau(   4) = (  -0.1710407   1.1543881   0.9479482  )
         5        Mg     tau(   5) = (   0.3289593   0.8562226   0.9479482  )
         6        Mg     tau(   6) = (   0.3289593   1.4480089   0.9479482  )
         7        Mg     tau(   7) = (   0.3289593   0.2986375   0.9479482  )
         8        Si     tau(   8) = (   0.0066674   0.2865251   0.4219393  )
         9        Si     tau(   9) = (   0.6512512   0.2865251   1.4739571  )
        10        Si     tau(  10) = (   0.6701371   1.4476688   1.4628623  )
        11        Si     tau(  11) = (  -0.0122184   1.4476688   0.4330341  )
        12        Si     tau(  12) = (   0.4872056   1.1568454   0.4292651  )
        13        Si     tau(  13) = (   0.1707131   1.1568454   1.4666313  )
        14        Al     tau(  14) = (   0.1506005   0.5746762   1.4713786  )
        15        Al     tau(  15) = (   0.5073182   0.5746762   0.4245178  )
        16        O      tau(  16) = (  -0.0043508   0.2833738   0.7297400  )
        17        O      tau(  17) = (   0.6622695   0.2833738   1.1661564  )
        18        O      tau(  18) = (   0.6658139   1.4451231   1.1576912  )
        19        O      tau(  19) = (  -0.0078952   1.4451231   0.7382052  )
        20        O      tau(  20) = (   0.4926234   1.1618863   0.7357690  )
        21        O      tau(  21) = (   0.1652953   1.1618863   1.1601274  )
        22        O      tau(  22) = (   0.1548298   0.5779784   1.1454267  )
        23        O      tau(  23) = (   0.5030889   0.5779784   0.7504697  )
        24        O      tau(  24) = (   0.2847398   0.3548857   0.3143567  )
        25        O      tau(  25) = (   0.3731789   0.3548857   1.5815397  )
        26        O      tau(  26) = (   0.9404978   1.7303189   0.3181314  )
        27        O      tau(  27) = (  -0.2825791   1.7303189   1.5777650  )
        28        O      tau(  28) = (   0.3988927   1.3439356   1.5754330  )
        29        O      tau(  29) = (   0.2590260   1.3439356   0.3204634  )
        30        O      tau(  30) = (   0.7582660   1.2710892   0.3185125  )
        31        O      tau(  31) = (  -0.1003473   1.2710892   1.5773839  )
        32        O      tau(  32) = (   0.4432368   0.8811364   0.3085875  )
        33        O      tau(  33) = (   0.2146819   0.8811364   1.5873090  )
        34        O      tau(  34) = (  -0.1423236   0.4782556   1.5925436  )
        35        O      tau(  35) = (   0.8002423   0.4782556   0.3033529  )
        36        O      tau(  36) = (  -0.0041068   0.8750247   0.7469263  )
        37        O      tau(  37) = (   0.6620255   0.8750247   1.1489701  )
        38        O      tau(  38) = (   0.4966158   1.7335917   0.7534577  )
        39        O      tau(  39) = (   0.1613029   1.7335917   1.1424387  )
        40        H      tau(  40) = (  -0.0032097   0.8603995   0.5673129  )
        41        H      tau(  41) = (   0.6611284   0.8603995   1.3285835  )
        42        H      tau(  42) = (   0.4926802   0.0219534   0.5746291  )
        43        H      tau(  43) = (   0.1652385   0.0219534   1.3212673  )
        44        Fe     tau(  44) = (  -0.1710407   0.5780843   0.9479482  )

     --------------------------------------------
     DFT-D3 Dispersion Correction (3-body terms):
     --------------------------------------------
       Reference C6 values for interpolation: 

         atom   Coordination number   C6
         H          0.912             6.05
         H          0.000            15.18
         O          0.000            31.01
         O          0.993            25.63
         O          1.989            20.74
         Mg         0.000          1366.75
         Mg         0.963           902.54
         Mg         1.950           351.12
         Al         0.000          1081.08
         Al         0.965           875.51
         Al         1.931           513.50
         Al         2.915           307.19
         Si         0.000           635.71
         Si         0.951           540.53
         Si         1.944           466.25
         Si         2.941           443.01
         Si         3.868           299.55
         K          0.000          9967.00
         K          0.977           676.04
         Fe         0.000           982.67
         Fe         1.648           409.99
         Fe         9.138           219.01

       Values used:

         atom   Coordination number  R0_AB[au]  C6      C8
         K         13.594            4.007    676.04 129074.98
         K         13.826            4.007    676.04 129074.98
         Mg        11.561            3.292    351.12  31436.69
         Mg        11.488            3.292    351.12  31436.69
         Mg        11.470            3.292    351.12  31436.69
         Mg        11.760            3.292    351.12  31436.69
         Mg        11.625            3.292    351.12  31436.69
         Si         6.820            3.583    299.55  21425.58
         Si         6.820            3.583    299.55  21425.58
         Si         6.545            3.583    299.55  21425.58
         Si         6.545            3.583    299.55  21425.58
         Si         6.592            3.583    299.55  21425.58
         Si         6.592            3.583    299.55  21425.58
         Al         7.608            3.789    307.19  29441.29
         Al         7.608            3.789    307.19  29441.29
         O          3.654            2.345     20.74    418.58
         O          3.654            2.345     20.74    418.58
         O          3.929            2.345     20.74    418.58
         O          3.929            2.345     20.74    418.58
         O          3.909            2.345     20.74    418.58
         O          3.909            2.345     20.74    418.58
         O          3.847            2.345     20.74    418.58
         O          3.847            2.345     20.74    418.58
         O          3.191            2.345     20.74    418.58
         O          3.191            2.345     20.74    418.58
         O          3.154            2.345     20.74    418.58
         O          3.154            2.345     20.74    418.58
         O          3.056            2.345     20.74    418.58
         O          3.056            2.345     20.74    418.58
         O          3.059            2.345     20.74    418.58
         O          3.059            2.345     20.74    418.58
         O          3.189            2.345     20.74    418.58
         O          3.189            2.345     20.74    418.58
         O          3.254            2.345     20.74    418.58
         O          3.254            2.345     20.74    418.58
         O          3.777            2.345     20.74    418.58
         O          3.777            2.345     20.74    418.58
         O          3.999            2.345     20.74    418.58
         O          3.999            2.345     20.74    418.58
         H          1.297            2.062      6.07     73.35
         H          1.297            2.062      6.07     73.35
         H          1.300            2.062      6.07     73.35
         H          1.300            2.062      6.07     73.35
         Fe         8.120            3.252    219.01  20487.87

         Molecular C6 ( Ry / a.u.^6 ) =    165305.24


   Crystallographic axes

     site n.     atom                  positions (cryst. coord.)
         1        K      tau(   1) = (  0.0000000  0.4932400  0.0000000  )
         2        K      tau(   2) = (  0.5000000  0.0053920  0.0000000  )
         3        Mg     tau(   3) = (  0.0000000  0.0039020  0.5000000  )
         4        Mg     tau(   4) = (  0.0000000  0.6652360  0.5000000  )
         5        Mg     tau(   5) = (  0.5000000  0.4934130  0.5000000  )
         6        Mg     tau(   6) = (  0.5000000  0.8344400  0.5000000  )
         7        Mg     tau(   7) = (  0.5000000  0.1720950  0.5000000  )
         8        Si     tau(   8) = (  0.0827990  0.1651150  0.2225540  )
         9        Si     tau(   9) = (  0.9172010  0.1651150  0.7774460  )
        10        Si     tau(  10) = (  0.9340850  0.8342440  0.7715940  )
        11        Si     tau(  11) = (  0.0659150  0.8342440  0.2284060  )
        12        Si     tau(  12) = (  0.5646590  0.6666520  0.2264180  )
        13        Si     tau(  13) = (  0.4353410  0.6666520  0.7735820  )
        14        Al     tau(  14) = (  0.4160850  0.3311670  0.7760860  )
        15        Al     tau(  15) = (  0.5839150  0.3311670  0.2239140  )
        16        O      tau(  16) = (  0.1273180  0.1632990  0.3849050  )
        17        O      tau(  17) = (  0.8726820  0.1632990  0.6150950  )
        18        O      tau(  18) = (  0.8746990  0.8327770  0.6106300  )
        19        O      tau(  19) = (  0.1253010  0.8327770  0.3893700  )
        20        O      tau(  20) = (  0.6253800  0.6695570  0.3880850  )
        21        O      tau(  21) = (  0.3746200  0.6695570  0.6119150  )
        22        O      tau(  22) = (  0.3615020  0.3330700  0.6041610  )
        23        O      tau(  23) = (  0.6384980  0.3330700  0.3958390  )
        24        O      tau(  24) = (  0.3414600  0.2045090  0.1658090  )
        25        O      tau(  25) = (  0.6585400  0.2045090  0.8341910  )
        26        O      tau(  26) = (  0.9978990  0.9971260  0.1678000  )
        27        O      tau(  27) = (  0.0021010  0.9971260  0.8322000  )
        28        O      tau(  28) = (  0.6831520  0.7744660  0.8309700  )
        29        O      tau(  29) = (  0.3168480  0.7744660  0.1690300  )
        30        O      tau(  30) = (  0.8157360  0.7324870  0.1680010  )
        31        O      tau(  31) = (  0.1842640  0.7324870  0.8319990  )
        32        O      tau(  32) = (  0.4989160  0.5077700  0.1627660  )
        33        O      tau(  33) = (  0.5010840  0.5077700  0.8372340  )
        34        O      tau(  34) = (  0.1450230  0.2756030  0.8399950  )
        35        O      tau(  35) = (  0.8549770  0.2756030  0.1600050  )
        36        O      tau(  36) = (  0.1306630  0.5042480  0.3939700  )
        37        O      tau(  37) = (  0.8693370  0.5042480  0.6060300  )
        38        O      tau(  38) = (  0.6325640  0.9990120  0.3974150  )
        39        O      tau(  39) = (  0.3674360  0.9990120  0.6025850  )
        40        H      tau(  40) = (  0.0991520  0.4958200  0.2992320  )
        41        H      tau(  41) = (  0.9008480  0.4958200  0.7007680  )
        42        H      tau(  42) = (  0.5963620  0.0126510  0.3030910  )
        43        H      tau(  43) = (  0.4036380  0.0126510  0.6969090  )
        44        Fe     tau(  44) = (  0.0000000  0.3331310  0.5000000  )

     number of k points=    20  Gaussian smearing, width (Ry)=  0.0010
                       cart. coord. in units 2pi/alat
        k(    1) = (   0.0000000   0.0000000   0.0000000), wk =   0.0370370
        k(    2) = (   0.0000000   0.0000000   0.1758183), wk =   0.0740741
        k(    3) = (   0.0000000   0.1920891   0.0000000), wk =   0.0740741
        k(    4) = (   0.0000000   0.1920891   0.1758183), wk =   0.1481481
        k(    5) = (   0.1666667   0.0000000   0.0300721), wk =   0.0740741
        k(    6) = (   0.1666667   0.0000000   0.2058904), wk =   0.0740741
        k(    7) = (   0.1666667   0.0000000  -0.1457462), wk =   0.0740741
        k(    8) = (   0.1666667   0.1920891   0.0300721), wk =   0.1481481
        k(    9) = (   0.1666667   0.1920891   0.2058904), wk =   0.1481481
        k(   10) = (   0.1666667   0.1920891  -0.1457462), wk =   0.1481481
        k(   11) = (   0.3333333   0.0000000   0.0601442), wk =   0.0740741
        k(   12) = (   0.3333333   0.0000000   0.2359625), wk =   0.0740741
        k(   13) = (   0.3333333   0.0000000  -0.1156742), wk =   0.0740741
        k(   14) = (   0.3333333   0.1920891   0.0601442), wk =   0.1481481
        k(   15) = (   0.3333333   0.1920891   0.2359625), wk =   0.1481481
        k(   16) = (   0.3333333   0.1920891  -0.1156742), wk =   0.1481481
        k(   17) = (  -0.5000000   0.0000000  -0.0902162), wk =   0.0370370
        k(   18) = (  -0.5000000   0.0000000   0.0856021), wk =   0.0740741
        k(   19) = (  -0.5000000   0.1920891  -0.0902162), wk =   0.0740741
        k(   20) = (  -0.5000000   0.1920891   0.0856021), wk =   0.1481481

                       cryst. coord.
        k(    1) = (   0.0000000   0.0000000   0.0000000), wk =   0.0370370
        k(    2) = (   0.0000000   0.0000000   0.3333333), wk =   0.0740741
        k(    3) = (   0.0000000   0.3333333   0.0000000), wk =   0.0740741
        k(    4) = (   0.0000000   0.3333333   0.3333333), wk =   0.1481481
        k(    5) = (   0.1666667   0.0000000  -0.0000000), wk =   0.0740741
        k(    6) = (   0.1666667   0.0000000   0.3333333), wk =   0.0740741
        k(    7) = (   0.1666667   0.0000000  -0.3333333), wk =   0.0740741
        k(    8) = (   0.1666667   0.3333333  -0.0000000), wk =   0.1481481
        k(    9) = (   0.1666667   0.3333333   0.3333333), wk =   0.1481481
        k(   10) = (   0.1666667   0.3333333  -0.3333333), wk =   0.1481481
        k(   11) = (   0.3333333   0.0000000  -0.0000000), wk =   0.0740741
        k(   12) = (   0.3333333   0.0000000   0.3333333), wk =   0.0740741
        k(   13) = (   0.3333333   0.0000000  -0.3333333), wk =   0.0740741
        k(   14) = (   0.3333333   0.3333333  -0.0000000), wk =   0.1481481
        k(   15) = (   0.3333333   0.3333333   0.3333333), wk =   0.1481481
        k(   16) = (   0.3333333   0.3333333  -0.3333333), wk =   0.1481481
        k(   17) = (  -0.5000000   0.0000000   0.0000000), wk =   0.0370370
        k(   18) = (  -0.5000000   0.0000000   0.3333333), wk =   0.0740741
        k(   19) = (  -0.5000000   0.3333333   0.0000000), wk =   0.0740741
        k(   20) = (  -0.5000000   0.3333333   0.3333333), wk =   0.1481481

     Dense  grid:   586467 G-vectors     FFT dimensions: (  72, 125, 135)

     Smooth grid:   207475 G-vectors     FFT dimensions: (  50,  90,  96)

     Dynamical RAM for                 wfc:      10.35 MB

     Dynamical RAM for     wfc (w. buffer):     217.38 MB

     Dynamical RAM for           str. fact:      10.44 MB

     Dynamical RAM for           local pot:       0.00 MB

     Dynamical RAM for          nlocal pot:      28.88 MB

     Dynamical RAM for                qrad:      12.30 MB

     Dynamical RAM for          rho,v,vnew:       9.21 MB

     Dynamical RAM for               rhoin:       3.07 MB

     Dynamical RAM for            rho*nmix:      23.86 MB

     Dynamical RAM for           G-vectors:       5.86 MB

     Dynamical RAM for          h,s,v(r/c):       1.13 MB

     Dynamical RAM for          <psi|beta>:       1.05 MB

     Dynamical RAM for                 psi:      20.70 MB

     Dynamical RAM for                hpsi:      20.70 MB

     Dynamical RAM for                spsi:      20.70 MB

     Dynamical RAM for      wfcinit/wfcrot:      24.90 MB

     Dynamical RAM for           addusdens:     313.21 MB

     Dynamical RAM for          addusforce:     382.66 MB

     Dynamical RAM for         addusstress:     299.79 MB

     Estimated static dynamical RAM per process >     306.97 MB

     Estimated max dynamical RAM per process >     713.49 MB

     Estimated total dynamical RAM >       4.18 GB

     Check: negative core charge=   -0.000004

     Initial potential from superposition of free atoms

     starting charge     261.9493, renormalised to     262.0000
     Starting wfcs are  183 randomized atomic wfcs
     Checking if some PAW data can be deallocated... 
       PAW data deallocated on    5 nodes for type:  1
       PAW data deallocated on    5 nodes for type:  2
       PAW data deallocated on    5 nodes for type:  3
       PAW data deallocated on    5 nodes for type:  4
       PAW data deallocated on    5 nodes for type:  5
       PAW data deallocated on    1 nodes for type:  6
       PAW data deallocated on    4 nodes for type:  7

     total cpu time spent up to now is       58.5 secs

     Self-consistent Calculation

     iteration #  1     ecut=    60.00 Ry     beta= 0.70
     Davidson diagonalization with overlap

---- Real-time Memory Report at c_bands before calling an iterative solver
           389 MiB given to the printing process from OS
             0 MiB allocation reported by mallinfo(arena+hblkhd)
           830 MiB available memory on the node where the printing process lives
------------------
     ethr =  1.00E-02,  avg # of iterations =  5.8

     total cpu time spent up to now is      248.6 secs

     total energy              =   -2623.80755613 Ry
     estimated scf accuracy    <      12.25184096 Ry

     iteration #  2     ecut=    60.00 Ry     beta= 0.70
     Davidson diagonalization with overlap

---- Real-time Memory Report at c_bands before calling an iterative solver
           649 MiB given to the printing process from OS
             0 MiB allocation reported by mallinfo(arena+hblkhd)
          2692 MiB available memory on the node where the printing process lives
------------------
     ethr =  4.68E-03,  avg # of iterations =  5.3

     total cpu time spent up to now is      535.0 secs

     total energy              =   -2629.09588207 Ry
     estimated scf accuracy    <      11.30898117 Ry

     iteration #  3     ecut=    60.00 Ry     beta= 0.70
     Davidson diagonalization with overlap

---- Real-time Memory Report at c_bands before calling an iterative solver
           656 MiB given to the printing process from OS
             0 MiB allocation reported by mallinfo(arena+hblkhd)
          2660 MiB available memory on the node where the printing process lives
------------------
     ethr =  4.32E-03,  avg # of iterations =  2.0

     total cpu time spent up to now is      689.1 secs

     total energy              =   -2629.62573802 Ry
     estimated scf accuracy    <       7.51549386 Ry

     iteration #  4     ecut=    60.00 Ry     beta= 0.70
     Davidson diagonalization with overlap

---- Real-time Memory Report at c_bands before calling an iterative solver
           658 MiB given to the printing process from OS
             0 MiB allocation reported by mallinfo(arena+hblkhd)
          2653 MiB available memory on the node where the printing process lives
------------------
     ethr =  2.87E-03,  avg # of iterations =  2.0

     total cpu time spent up to now is      847.4 secs

     total energy              =   -2630.49618188 Ry
     estimated scf accuracy    <       0.83049576 Ry

     iteration #  5     ecut=    60.00 Ry     beta= 0.70
     Davidson diagonalization with overlap

---- Real-time Memory Report at c_bands before calling an iterative solver
           659 MiB given to the printing process from OS
             0 MiB allocation reported by mallinfo(arena+hblkhd)
          2639 MiB available memory on the node where the printing process lives
------------------
     c_bands:  3 eigenvalues not converged
     ethr =  3.17E-04,  avg # of iterations = 11.7

     total cpu time spent up to now is     1156.5 secs

     total energy              =   -2631.17457676 Ry
     estimated scf accuracy    <       0.18261790 Ry

     iteration #  6     ecut=    60.00 Ry     beta= 0.70
     Davidson diagonalization with overlap

---- Real-time Memory Report at c_bands before calling an iterative solver
           660 MiB given to the printing process from OS
             0 MiB allocation reported by mallinfo(arena+hblkhd)
          2636 MiB available memory on the node where the printing process lives
------------------
     c_bands:  1 eigenvalues not converged
     c_bands:  1 eigenvalues not converged
     ethr =  6.97E-05,  avg # of iterations = 14.7

     total cpu time spent up to now is     1380.7 secs

     total energy              =   -2631.17889797 Ry
     estimated scf accuracy    <       0.07671532 Ry

     iteration #  7     ecut=    60.00 Ry     beta= 0.70
     Davidson diagonalization with overlap

---- Real-time Memory Report at c_bands before calling an iterative solver
           661 MiB given to the printing process from OS
             0 MiB allocation reported by mallinfo(arena+hblkhd)
          2606 MiB available memory on the node where the printing process lives
------------------
     c_bands:  1 eigenvalues not converged
     c_bands:  1 eigenvalues not converged
     c_bands:  2 eigenvalues not converged
     c_bands:  1 eigenvalues not converged
     c_bands:  2 eigenvalues not converged
     ethr =  2.93E-05,  avg # of iterations = 11.1

     total cpu time spent up to now is     1596.3 secs

     total energy              =   -2631.18345784 Ry
     estimated scf accuracy    <       0.03161183 Ry

     iteration #  8     ecut=    60.00 Ry     beta= 0.70
     Davidson diagonalization with overlap

---- Real-time Memory Report at c_bands before calling an iterative solver
           662 MiB given to the printing process from OS
             0 MiB allocation reported by mallinfo(arena+hblkhd)
          2605 MiB available memory on the node where the printing process lives
------------------
     c_bands:  1 eigenvalues not converged
     c_bands:  3 eigenvalues not converged
     c_bands:  1 eigenvalues not converged
     c_bands:  2 eigenvalues not converged
     c_bands:  1 eigenvalues not converged
     ethr =  1.21E-05,  avg # of iterations = 12.6

     total cpu time spent up to now is     1811.5 secs

     total energy              =   -2631.18611871 Ry
     estimated scf accuracy    <       0.01294922 Ry

     iteration #  9     ecut=    60.00 Ry     beta= 0.70
     Davidson diagonalization with overlap

---- Real-time Memory Report at c_bands before calling an iterative solver
           663 MiB given to the printing process from OS
             0 MiB allocation reported by mallinfo(arena+hblkhd)
          2607 MiB available memory on the node where the printing process lives
------------------
     ethr =  4.94E-06,  avg # of iterations = 10.7

     total cpu time spent up to now is     2038.8 secs

     total energy              =   -2631.18810512 Ry
     estimated scf accuracy    <       0.00620633 Ry

     iteration # 10     ecut=    60.00 Ry     beta= 0.70
     Davidson diagonalization with overlap

---- Real-time Memory Report at c_bands before calling an iterative solver
           665 MiB given to the printing process from OS
             0 MiB allocation reported by mallinfo(arena+hblkhd)
          2597 MiB available memory on the node where the printing process lives
------------------
     c_bands:  2 eigenvalues not converged
     c_bands:  1 eigenvalues not converged
     ethr =  2.37E-06,  avg # of iterations =  5.2

     total cpu time spent up to now is     2219.3 secs

     total energy              =   -2631.18784190 Ry
     estimated scf accuracy    <       0.00419122 Ry

     iteration # 11     ecut=    60.00 Ry     beta= 0.70
     Davidson diagonalization with overlap

---- Real-time Memory Report at c_bands before calling an iterative solver
           666 MiB given to the printing process from OS
             0 MiB allocation reported by mallinfo(arena+hblkhd)
          2595 MiB available memory on the node where the printing process lives
------------------
     c_bands:  1 eigenvalues not converged
     ethr =  1.60E-06,  avg # of iterations =  3.5

     total cpu time spent up to now is     2379.8 secs

     total energy              =   -2631.18802859 Ry
     estimated scf accuracy    <       0.00110072 Ry

     iteration # 12     ecut=    60.00 Ry     beta= 0.70
     Davidson diagonalization with overlap

---- Real-time Memory Report at c_bands before calling an iterative solver
           666 MiB given to the printing process from OS
             0 MiB allocation reported by mallinfo(arena+hblkhd)
          2589 MiB available memory on the node where the printing process lives
------------------
     c_bands:  1 eigenvalues not converged
     c_bands:  2 eigenvalues not converged
     c_bands:  1 eigenvalues not converged
     ethr =  4.20E-07,  avg # of iterations =  9.8

     total cpu time spent up to now is     2612.1 secs

     total energy              =   -2631.18836961 Ry
     estimated scf accuracy    <       0.00021304 Ry

     iteration # 13     ecut=    60.00 Ry     beta= 0.70
     Davidson diagonalization with overlap

---- Real-time Memory Report at c_bands before calling an iterative solver
           666 MiB given to the printing process from OS
             0 MiB allocation reported by mallinfo(arena+hblkhd)
          2588 MiB available memory on the node where the printing process lives
------------------
     c_bands:  1 eigenvalues not converged
     ethr =  8.13E-08,  avg # of iterations =  7.2

     total cpu time spent up to now is     2831.9 secs

     total energy              =   -2631.18843551 Ry
     estimated scf accuracy    <       0.00004199 Ry

     iteration # 14     ecut=    60.00 Ry     beta= 0.70
     Davidson diagonalization with overlap

---- Real-time Memory Report at c_bands before calling an iterative solver
           666 MiB given to the printing process from OS
             0 MiB allocation reported by mallinfo(arena+hblkhd)
          2591 MiB available memory on the node where the printing process lives
------------------
     ethr =  1.60E-08,  avg # of iterations =  6.0

     total cpu time spent up to now is     3089.6 secs

     total energy              =   -2631.18845882 Ry
     estimated scf accuracy    <       0.00000321 Ry

     iteration # 15     ecut=    60.00 Ry     beta= 0.70
     Davidson diagonalization with overlap

---- Real-time Memory Report at c_bands before calling an iterative solver
           666 MiB given to the printing process from OS
             0 MiB allocation reported by mallinfo(arena+hblkhd)
          2592 MiB available memory on the node where the printing process lives
------------------
     ethr =  1.22E-09,  avg # of iterations =  9.4

     total cpu time spent up to now is     3458.1 secs

     total energy              =   -2631.18846219 Ry
     estimated scf accuracy    <       0.00000507 Ry

     iteration # 16     ecut=    60.00 Ry     beta= 0.70
     Davidson diagonalization with overlap

---- Real-time Memory Report at c_bands before calling an iterative solver
           666 MiB given to the printing process from OS
             0 MiB allocation reported by mallinfo(arena+hblkhd)
          2580 MiB available memory on the node where the printing process lives
------------------
     ethr =  1.22E-09,  avg # of iterations =  2.0

     total cpu time spent up to now is     3610.3 secs

     total energy              =   -2631.18846153 Ry
     estimated scf accuracy    <       0.00000164 Ry

     iteration # 17     ecut=    60.00 Ry     beta= 0.70
     Davidson diagonalization with overlap

---- Real-time Memory Report at c_bands before calling an iterative solver
           666 MiB given to the printing process from OS
             0 MiB allocation reported by mallinfo(arena+hblkhd)
          2177 MiB available memory on the node where the printing process lives
------------------
     ethr =  6.26E-10,  avg # of iterations =  5.7

     total cpu time spent up to now is     3845.6 secs

     End of self-consistent calculation

          k = 0.0000 0.0000 0.0000 ( 25927 PWs)   bands (ev):

   -78.1150 -67.5532 -67.5391 -67.3788 -67.0284 -66.8794 -44.3042 -44.2484
   -44.1167 -34.3244 -34.3060 -34.3043 -34.2938 -34.2870 -34.2772 -34.1418
   -34.1373 -34.1139 -33.7816 -33.7805 -33.7793 -33.6519 -33.6223 -33.6201
   -23.0704 -23.0340 -15.1176 -15.0648 -14.1679 -14.1246 -13.6616 -13.6382
   -13.4281 -13.2934 -13.2523 -13.1370 -12.9600 -12.8631 -12.8624 -12.8248
   -12.7582 -12.6661 -12.4865 -12.4069 -12.2703 -12.2534 -12.1949 -12.0826
   -11.1034 -10.8116  -6.6390  -6.6005  -6.5642  -6.5545  -6.5122  -6.5078
    -4.3158  -4.2576  -2.4326  -2.3378  -1.8175  -1.3445  -1.1681  -1.1665
    -1.1219  -1.0276  -0.6645  -0.5834  -0.5145  -0.3950  -0.3589  -0.1637
     0.0276   0.1271   0.2239   0.5017   0.5921   0.5921   0.6871   0.8699
     0.8939   1.1415   1.3301   1.3475   1.3856   1.5348   1.5438   1.6641
     1.8650   1.8992   1.9694   2.0702   2.0897   2.2436   2.2598   2.2813
     2.3863   2.4894   2.6215   2.6662   2.6901   2.7030   2.8572   2.8751
     2.9127   2.9821   3.0197   3.1140   3.2268   3.2980   3.3143   3.3373
     3.4142   3.4432   3.4711   3.5672   3.6151   3.6701   3.7371   3.7938
     3.8676   3.8724   3.9750   3.9831   4.1177   4.2984   4.4946   4.6111
     7.9532   8.2268   8.2860   9.1257   9.2584   9.7868  10.6480  11.2494
    11.5931  11.9816  12.1270  12.2268  12.5587  12.6720  13.0216  13.0508
    13.1389  13.3204  13.3411  13.5568  13.6497  13.6892  13.7985  13.8579
    13.8649  14.0799  14.1838  14.2420  14.3877

     occupation numbers 
     1.0000   1.0000   1.0000   1.0000   1.0000   1.0000   1.0000   1.0000
     1.0000   1.0000   1.0000   1.0000   1.0000   1.0000   1.0000   1.0000
     1.0000   1.0000   1.0000   1.0000   1.0000   1.0000   1.0000   1.0000
     1.0000   1.0000   1.0000   1.0000   1.0000   1.0000   1.0000   1.0000
     1.0000   1.0000   1.0000   1.0000   1.0000   1.0000   1.0000   1.0000
     1.0000   1.0000   1.0000   1.0000   1.0000   1.0000   1.0000   1.0000
     1.0000   1.0000   1.0000   1.0000   1.0000   1.0000   1.0000   1.0000
     1.0000   1.0000   1.0000   1.0000   1.0000   1.0000   1.0000   1.0000
     1.0000   1.0000   1.0000   1.0000   1.0000   1.0000   1.0000   1.0000
     1.0000   1.0000   1.0000   1.0000   1.0000   1.0000   1.0000   1.0000
     1.0000   1.0000   1.0000   1.0000   1.0000   1.0000   1.0000   1.0000
     1.0000   1.0000   1.0000   1.0000   1.0000   1.0000   1.0000   1.0000
     1.0000   1.0000   1.0000   1.0000   1.0000   1.0000   1.0000   1.0000
     1.0000   1.0000   1.0000   1.0000   1.0000   1.0000   1.0000   1.0000
     1.0000   1.0000   1.0000   1.0000   1.0000   1.0000   1.0000   1.0000
     1.0000   1.0000   1.0000   1.0000   1.0000   1.0000   1.0000   1.0000
     1.0000   1.0000   1.0000   0.0000   0.0000   0.0000   0.0000   0.0000
     0.0000   0.0000   0.0000   0.0000   0.0000   0.0000   0.0000   0.0000
     0.0000   0.0000   0.0000   0.0000   0.0000   0.0000   0.0000   0.0000
     0.0000   0.0000   0.0000   0.0000   0.0000

          k = 0.0000 0.0000 0.1758 ( 25971 PWs)   bands (ev):

   -78.1150 -67.5532 -67.5391 -67.3788 -67.0284 -66.8794 -44.3042 -44.2485
   -44.1167 -34.3244 -34.3060 -34.3044 -34.2938 -34.2871 -34.2772 -34.1418
   -34.1373 -34.1140 -33.7816 -33.7805 -33.7793 -33.6520 -33.6224 -33.6202
   -23.0704 -23.0340 -15.1049 -15.0783 -14.1578 -14.1352 -13.6620 -13.6377
   -13.4183 -13.3138 -13.2434 -13.1322 -12.9610 -12.8678 -12.8521 -12.8350
   -12.7510 -12.6705 -12.4792 -12.4136 -12.2781 -12.2414 -12.1921 -12.0894
   -11.1031 -10.8123  -6.6390  -6.6005  -6.5642  -6.5545  -6.5121  -6.5078
    -4.3117  -4.2621  -2.4107  -2.3634  -1.7849  -1.3335  -1.1878  -1.1388
    -1.1144  -1.0540  -0.6359  -0.5917  -0.5437  -0.4138  -0.3381  -0.2590
     0.0519   0.1552   0.1768   0.4453   0.5717   0.5864   0.7107   0.8977
     0.9374   1.2192   1.2712   1.3398   1.4368   1.4903   1.5863   1.6990
     1.8817   1.9121   2.0690   2.0849   2.1048   2.2197   2.2705   2.2935
     2.3704   2.4406   2.5874   2.6253   2.6539   2.7186   2.8015   2.8350
     2.8670   3.0628   3.0760   3.1231   3.1420   3.2955   3.3055   3.3808
     3.4105   3.4528   3.4863   3.5358   3.6268   3.7096   3.7525   3.7844
     3.8407   3.8763   3.9346   3.9577   4.1282   4.3174   4.4935   4.6136
     7.9537   8.2274   8.2836   9.2488   9.4295   9.7827  10.1961  11.3601
    11.6177  11.8093  12.1579  12.1934  12.6816  12.8965  12.9771  13.1005
    13.2128  13.2795  13.3719  13.4810  13.5440  13.7032  13.7977  13.8310
    13.9414  14.0634  14.1350  14.2554  14.2891

     occupation numbers 
     1.0000   1.0000   1.0000   1.0000   1.0000   1.0000   1.0000   1.0000
     1.0000   1.0000   1.0000   1.0000   1.0000   1.0000   1.0000   1.0000
     1.0000   1.0000   1.0000   1.0000   1.0000   1.0000   1.0000   1.0000
     1.0000   1.0000   1.0000   1.0000   1.0000   1.0000   1.0000   1.0000
     1.0000   1.0000   1.0000   1.0000   1.0000   1.0000   1.0000   1.0000
     1.0000   1.0000   1.0000   1.0000   1.0000   1.0000   1.0000   1.0000
     1.0000   1.0000   1.0000   1.0000   1.0000   1.0000   1.0000   1.0000
     1.0000   1.0000   1.0000   1.0000   1.0000   1.0000   1.0000   1.0000
     1.0000   1.0000   1.0000   1.0000   1.0000   1.0000   1.0000   1.0000
     1.0000   1.0000   1.0000   1.0000   1.0000   1.0000   1.0000   1.0000
     1.0000   1.0000   1.0000   1.0000   1.0000   1.0000   1.0000   1.0000
     1.0000   1.0000   1.0000   1.0000   1.0000   1.0000   1.0000   1.0000
     1.0000   1.0000   1.0000   1.0000   1.0000   1.0000   1.0000   1.0000
     1.0000   1.0000   1.0000   1.0000   1.0000   1.0000   1.0000   1.0000
     1.0000   1.0000   1.0000   1.0000   1.0000   1.0000   1.0000   1.0000
     1.0000   1.0000   1.0000   1.0000   1.0000   1.0000   1.0000   1.0000
     1.0000   1.0000   1.0000   0.0000   0.0000   0.0000   0.0000   0.0000
     0.0000   0.0000   0.0000   0.0000   0.0000   0.0000   0.0000   0.0000
     0.0000   0.0000   0.0000   0.0000   0.0000   0.0000   0.0000   0.0000
     0.0000   0.0000   0.0000   0.0000   0.0000

          k = 0.0000 0.1921 0.0000 ( 25933 PWs)   bands (ev):

   -78.1150 -67.5532 -67.5391 -67.3788 -67.0284 -66.8794 -44.3041 -44.2485
   -44.1167 -34.3244 -34.3060 -34.3043 -34.2938 -34.2870 -34.2772 -34.1418
   -34.1373 -34.1140 -33.7816 -33.7805 -33.7793 -33.6520 -33.6223 -33.6202
   -23.0704 -23.0340 -15.1128 -15.0600 -14.2007 -14.1536 -13.6617 -13.6383
   -13.3500 -13.2417 -13.1897 -13.1355 -12.9808 -12.9291 -12.9133 -12.8489
   -12.7717 -12.6583 -12.4773 -12.4032 -12.2700 -12.2524 -12.1901 -12.0795
   -11.1021 -10.8111  -6.6367  -6.6031  -6.5638  -6.5532  -6.5131  -6.5085
    -4.2765  -4.2175  -2.5796  -2.4769  -1.7586  -1.4051  -1.1150  -1.1097
    -0.9960  -0.9449  -0.7405  -0.6293  -0.5515  -0.3090  -0.2907  -0.1444
    -0.0591   0.1584   0.2255   0.4761   0.5448   0.5485   0.6951   0.8645
     0.9088   1.1494   1.2409   1.3163   1.3909   1.5436   1.5697   1.7228
     1.8937   1.9297   1.9619   2.0772   2.1275   2.2465   2.3434   2.3866
     2.3950   2.4878   2.5276   2.6731   2.6837   2.7468   2.8499   2.8864
     2.9469   3.0002   3.0689   3.0792   3.1749   3.2254   3.3592   3.3621
     3.4027   3.4185   3.4855   3.4993   3.6465   3.6597   3.7310   3.8007
     3.8517   3.8988   3.9504   3.9835   4.0802   4.2799   4.3092   4.6084
     7.9608   8.2276   8.2849   9.2252   9.5214   9.7935  10.4798  10.8952
    11.4901  11.8259  12.2710  12.5806  12.5832  12.8016  12.9470  13.0896
    13.1991  13.3298  13.3449  13.5100  13.5257  13.6616  13.7124  13.8068
    13.8285  13.8674  14.2819  14.3938  14.4640

     occupation numbers 
     1.0000   1.0000   1.0000   1.0000   1.0000   1.0000   1.0000   1.0000
     1.0000   1.0000   1.0000   1.0000   1.0000   1.0000   1.0000   1.0000
     1.0000   1.0000   1.0000   1.0000   1.0000   1.0000   1.0000   1.0000
     1.0000   1.0000   1.0000   1.0000   1.0000   1.0000   1.0000   1.0000
     1.0000   1.0000   1.0000   1.0000   1.0000   1.0000   1.0000   1.0000
     1.0000   1.0000   1.0000   1.0000   1.0000   1.0000   1.0000   1.0000
     1.0000   1.0000   1.0000   1.0000   1.0000   1.0000   1.0000   1.0000
     1.0000   1.0000   1.0000   1.0000   1.0000   1.0000   1.0000   1.0000
     1.0000   1.0000   1.0000   1.0000   1.0000   1.0000   1.0000   1.0000
     1.0000   1.0000   1.0000   1.0000   1.0000   1.0000   1.0000   1.0000
     1.0000   1.0000   1.0000   1.0000   1.0000   1.0000   1.0000   1.0000
     1.0000   1.0000   1.0000   1.0000   1.0000   1.0000   1.0000   1.0000
     1.0000   1.0000   1.0000   1.0000   1.0000   1.0000   1.0000   1.0000
     1.0000   1.0000   1.0000   1.0000   1.0000   1.0000   1.0000   1.0000
     1.0000   1.0000   1.0000   1.0000   1.0000   1.0000   1.0000   1.0000
     1.0000   1.0000   1.0000   1.0000   1.0000   1.0000   1.0000   1.0000
     1.0000   1.0000   1.0000   0.0000   0.0000   0.0000   0.0000   0.0000
     0.0000   0.0000   0.0000   0.0000   0.0000   0.0000   0.0000   0.0000
     0.0000   0.0000   0.0000   0.0000   0.0000   0.0000   0.0000   0.0000
     0.0000   0.0000   0.0000   0.0000   0.0000

          k = 0.0000 0.1921 0.1758 ( 25924 PWs)   bands (ev):

   -78.1150 -67.5532 -67.5391 -67.3788 -67.0284 -66.8794 -44.3041 -44.2484
   -44.1167 -34.3244 -34.3060 -34.3043 -34.2938 -34.2870 -34.2772 -34.1418
   -34.1373 -34.1140 -33.7816 -33.7805 -33.7793 -33.6520 -33.6223 -33.6202
   -23.0704 -23.0340 -15.1000 -15.0736 -14.1893 -14.1658 -13.6622 -13.6377
   -13.3440 -13.2360 -13.2089 -13.1231 -12.9879 -12.9268 -12.9099 -12.8506
   -12.7682 -12.6630 -12.4705 -12.4098 -12.2776 -12.2411 -12.1866 -12.0862
   -11.1017 -10.8118  -6.6367  -6.6032  -6.5638  -6.5531  -6.5130  -6.5085
    -4.2699  -4.2246  -2.5564  -2.5025  -1.7299  -1.3945  -1.1137  -1.1076
    -0.9931  -0.9530  -0.7168  -0.6582  -0.5608  -0.3541  -0.2703  -0.2130
    -0.0147   0.1514   0.1729   0.4532   0.5174   0.5472   0.7342   0.8626
     0.9663   1.1440   1.1958   1.3699   1.4521   1.5361   1.6823   1.7191
     1.8795   1.9385   2.0028   2.0596   2.1327   2.2385   2.3234   2.3830
     2.4128   2.4614   2.5134   2.6336   2.6813   2.7367   2.8080   2.8648
     2.9405   3.0217   3.0708   3.1078   3.1567   3.2098   3.2997   3.3859
     3.4029   3.4321   3.4531   3.5521   3.6229   3.6919   3.7580   3.8098
     3.8439   3.8804   3.9340   3.9490   4.0651   4.3072   4.3292   4.6113
     7.9615   8.2282   8.2820   9.2022   9.7353   9.8610  10.4801  10.6728
    11.1934  11.8210  12.2678  12.6098  12.7001  12.8963  13.0925  13.1527
    13.2139  13.3150  13.4332  13.4828  13.5867  13.6249  13.6613  13.7699
    13.8326  13.9884  14.2536  14.2982  14.4147

     occupation numbers 
     1.0000   1.0000   1.0000   1.0000   1.0000   1.0000   1.0000   1.0000
     1.0000   1.0000   1.0000   1.0000   1.0000   1.0000   1.0000   1.0000
     1.0000   1.0000   1.0000   1.0000   1.0000   1.0000   1.0000   1.0000
     1.0000   1.0000   1.0000   1.0000   1.0000   1.0000   1.0000   1.0000
     1.0000   1.0000   1.0000   1.0000   1.0000   1.0000   1.0000   1.0000
     1.0000   1.0000   1.0000   1.0000   1.0000   1.0000   1.0000   1.0000
     1.0000   1.0000   1.0000   1.0000   1.0000   1.0000   1.0000   1.0000
     1.0000   1.0000   1.0000   1.0000   1.0000   1.0000   1.0000   1.0000
     1.0000   1.0000   1.0000   1.0000   1.0000   1.0000   1.0000   1.0000
     1.0000   1.0000   1.0000   1.0000   1.0000   1.0000   1.0000   1.0000
     1.0000   1.0000   1.0000   1.0000   1.0000   1.0000   1.0000   1.0000
     1.0000   1.0000   1.0000   1.0000   1.0000   1.0000   1.0000   1.0000
     1.0000   1.0000   1.0000   1.0000   1.0000   1.0000   1.0000   1.0000
     1.0000   1.0000   1.0000   1.0000   1.0000   1.0000   1.0000   1.0000
     1.0000   1.0000   1.0000   1.0000   1.0000   1.0000   1.0000   1.0000
     1.0000   1.0000   1.0000   1.0000   1.0000   1.0000   1.0000   1.0000
     1.0000   1.0000   1.0000   0.0000   0.0000   0.0000   0.0000   0.0000
     0.0000   0.0000   0.0000   0.0000   0.0000   0.0000   0.0000   0.0000
     0.0000   0.0000   0.0000   0.0000   0.0000   0.0000   0.0000   0.0000
     0.0000   0.0000   0.0000   0.0000   0.0000

          k = 0.1667 0.0000 0.0301 ( 25941 PWs)   bands (ev):

   -78.1150 -67.5532 -67.5392 -67.3788 -67.0284 -66.8794 -44.3042 -44.2484
   -44.1167 -34.3235 -34.3089 -34.3022 -34.2943 -34.2866 -34.2772 -34.1418
   -34.1372 -34.1140 -33.7816 -33.7806 -33.7793 -33.6520 -33.6224 -33.6201
   -23.0703 -23.0339 -15.0593 -15.0076 -14.1888 -14.1477 -13.7696 -13.7398
   -13.3682 -13.2306 -13.1995 -13.1203 -12.9715 -12.8767 -12.8539 -12.8326
   -12.7495 -12.6717 -12.5018 -12.4215 -12.3363 -12.2896 -12.1803 -12.0693
   -11.0900 -10.8257  -6.6391  -6.6044  -6.5629  -6.5530  -6.5122  -6.5045
    -4.1585  -4.0971  -2.4030  -2.3077  -1.8182  -1.4549  -1.4098  -1.3187
    -0.9057  -0.8248  -0.6878  -0.6267  -0.5117  -0.3461  -0.3277  -0.1588
     0.0236   0.1428   0.2124   0.4661   0.5241   0.6273   0.6518   0.7726
     1.0550   1.1847   1.2708   1.3314   1.3691   1.4642   1.5605   1.6354
     1.7512   1.9083   1.9304   2.0339   2.0860   2.2651   2.2967   2.3706
     2.4160   2.4929   2.6331   2.6492   2.6735   2.7064   2.8079   2.8780
     2.9480   2.9611   3.0582   3.1574   3.1890   3.2204   3.3162   3.3388
     3.3623   3.4540   3.4998   3.5396   3.6196   3.6877   3.7087   3.7788
     3.8296   3.8621   3.9217   3.9764   4.0758   4.3022   4.4578   4.4928
     7.9570   8.2333   8.2637   9.2589   9.4039   9.8021  10.8358  11.3300
    11.7177  12.0156  12.1446  12.3999  12.5402  12.7986  12.9325  13.0404
    13.1596  13.2809  13.3131  13.5855  13.6027  13.6531  13.7514  13.8185
    13.8543  14.1382  14.1956  14.2534  14.3536

     occupation numbers 
     1.0000   1.0000   1.0000   1.0000   1.0000   1.0000   1.0000   1.0000
     1.0000   1.0000   1.0000   1.0000   1.0000   1.0000   1.0000   1.0000
     1.0000   1.0000   1.0000   1.0000   1.0000   1.0000   1.0000   1.0000
     1.0000   1.0000   1.0000   1.0000   1.0000   1.0000   1.0000   1.0000
     1.0000   1.0000   1.0000   1.0000   1.0000   1.0000   1.0000   1.0000
     1.0000   1.0000   1.0000   1.0000   1.0000   1.0000   1.0000   1.0000
     1.0000   1.0000   1.0000   1.0000   1.0000   1.0000   1.0000   1.0000
     1.0000   1.0000   1.0000   1.0000   1.0000   1.0000   1.0000   1.0000
     1.0000   1.0000   1.0000   1.0000   1.0000   1.0000   1.0000   1.0000
     1.0000   1.0000   1.0000   1.0000   1.0000   1.0000   1.0000   1.0000
     1.0000   1.0000   1.0000   1.0000   1.0000   1.0000   1.0000   1.0000
     1.0000   1.0000   1.0000   1.0000   1.0000   1.0000   1.0000   1.0000
     1.0000   1.0000   1.0000   1.0000   1.0000   1.0000   1.0000   1.0000
     1.0000   1.0000   1.0000   1.0000   1.0000   1.0000   1.0000   1.0000
     1.0000   1.0000   1.0000   1.0000   1.0000   1.0000   1.0000   1.0000
     1.0000   1.0000   1.0000   1.0000   1.0000   1.0000   1.0000   1.0000
     1.0000   1.0000   1.0000   0.0000   0.0000   0.0000   0.0000   0.0000
     0.0000   0.0000   0.0000   0.0000   0.0000   0.0000   0.0000   0.0000
     0.0000   0.0000   0.0000   0.0000   0.0000   0.0000   0.0000   0.0000
     0.0000   0.0000   0.0000   0.0000   0.0000

          k = 0.1667 0.0000 0.2059 ( 25961 PWs)   bands (ev):

   -78.1150 -67.5532 -67.5392 -67.3788 -67.0284 -66.8794 -44.3042 -44.2485
   -44.1167 -34.3235 -34.3089 -34.3022 -34.2943 -34.2866 -34.2772 -34.1418
   -34.1372 -34.1140 -33.7816 -33.7806 -33.7793 -33.6520 -33.6224 -33.6201
   -23.0703 -23.0339 -15.0432 -15.0245 -14.1803 -14.1567 -13.7664 -13.7431
   -13.3594 -13.2491 -13.1928 -13.1137 -12.9719 -12.8756 -12.8496 -12.8424
   -12.7438 -12.6756 -12.4949 -12.4294 -12.3316 -12.2930 -12.1713 -12.0779
   -11.0894 -10.8266  -6.6391  -6.6044  -6.5628  -6.5530  -6.5120  -6.5045
    -4.1597  -4.0962  -2.3831  -2.3319  -1.7830  -1.4935  -1.3795  -1.3049
    -0.9026  -0.8300  -0.6747  -0.6461  -0.5014  -0.3654  -0.3109  -0.2669
     0.0652   0.1529   0.1884   0.4014   0.5098   0.6062   0.6436   0.8345
     1.1205   1.2095   1.2469   1.3302   1.3863   1.4736   1.5780   1.6531
     1.7975   1.8881   1.9560   2.0408   2.1662   2.2526   2.3091   2.3860
     2.4292   2.4663   2.5245   2.5951   2.6749   2.7170   2.7974   2.8441
     2.8741   3.0028   3.1094   3.1476   3.1917   3.2304   3.2700   3.3313
     3.3659   3.4770   3.5089   3.5375   3.5927   3.7146   3.7362   3.7907
     3.8398   3.8766   3.8881   3.8980   4.1046   4.3036   4.4718   4.5012
     7.9567   8.2335   8.2618   9.2539   9.5895   9.9904  10.2942  11.4277
    11.7352  11.8716  12.1975  12.3354  12.5070  12.8407  13.0653  13.2018
    13.2398  13.3318  13.3765  13.4127  13.5953  13.6843  13.7450  13.8379
    13.8973  13.9710  14.0766  14.3258  14.3689

     occupation numbers 
     1.0000   1.0000   1.0000   1.0000   1.0000   1.0000   1.0000   1.0000
     1.0000   1.0000   1.0000   1.0000   1.0000   1.0000   1.0000   1.0000
     1.0000   1.0000   1.0000   1.0000   1.0000   1.0000   1.0000   1.0000
     1.0000   1.0000   1.0000   1.0000   1.0000   1.0000   1.0000   1.0000
     1.0000   1.0000   1.0000   1.0000   1.0000   1.0000   1.0000   1.0000
     1.0000   1.0000   1.0000   1.0000   1.0000   1.0000   1.0000   1.0000
     1.0000   1.0000   1.0000   1.0000   1.0000   1.0000   1.0000   1.0000
     1.0000   1.0000   1.0000   1.0000   1.0000   1.0000   1.0000   1.0000
     1.0000   1.0000   1.0000   1.0000   1.0000   1.0000   1.0000   1.0000
     1.0000   1.0000   1.0000   1.0000   1.0000   1.0000   1.0000   1.0000
     1.0000   1.0000   1.0000   1.0000   1.0000   1.0000   1.0000   1.0000
     1.0000   1.0000   1.0000   1.0000   1.0000   1.0000   1.0000   1.0000
     1.0000   1.0000   1.0000   1.0000   1.0000   1.0000   1.0000   1.0000
     1.0000   1.0000   1.0000   1.0000   1.0000   1.0000   1.0000   1.0000
     1.0000   1.0000   1.0000   1.0000   1.0000   1.0000   1.0000   1.0000
     1.0000   1.0000   1.0000   1.0000   1.0000   1.0000   1.0000   1.0000
     1.0000   1.0000   1.0000   0.0000   0.0000   0.0000   0.0000   0.0000
     0.0000   0.0000   0.0000   0.0000   0.0000   0.0000   0.0000   0.0000
     0.0000   0.0000   0.0000   0.0000   0.0000   0.0000   0.0000   0.0000
     0.0000   0.0000   0.0000   0.0000   0.0000

          k = 0.1667 0.0000-0.1457 ( 25956 PWs)   bands (ev):

   -78.1150 -67.5532 -67.5392 -67.3788 -67.0284 -66.8794 -44.3042 -44.2485
   -44.1167 -34.3235 -34.3089 -34.3022 -34.2943 -34.2866 -34.2773 -34.1418
   -34.1372 -34.1140 -33.7816 -33.7806 -33.7793 -33.6520 -33.6224 -33.6201
   -23.0703 -23.0339 -15.0502 -15.0173 -14.1810 -14.1560 -13.7655 -13.7440
   -13.3621 -13.2392 -13.2017 -13.1134 -12.9724 -12.8728 -12.8580 -12.8327
   -12.7472 -12.6759 -12.4919 -12.4317 -12.3173 -12.3089 -12.1702 -12.0770
   -11.0894 -10.8265  -6.6392  -6.6044  -6.5628  -6.5529  -6.5120  -6.5045
    -4.1430  -4.1132  -2.3804  -2.3330  -1.7967  -1.4890  -1.3793  -1.3095
    -0.8868  -0.8492  -0.6616  -0.6204  -0.5293  -0.3498  -0.3366  -0.2387
     0.0282   0.1639   0.1917   0.4124   0.5403   0.6274   0.6749   0.8132
     1.0653   1.1887   1.2238   1.3288   1.4216   1.4942   1.5857   1.6252
     1.8049   1.8785   1.9905   1.9974   2.1184   2.2511   2.3014   2.3505
     2.3988   2.4904   2.5800   2.6240   2.6559   2.7230   2.7975   2.8630
     2.9156   2.9950   3.1076   3.1372   3.2138   3.2444   3.2904   3.3684
     3.3931   3.4299   3.4762   3.5564   3.5993   3.6475   3.7362   3.7950
     3.8083   3.8529   3.8842   3.9381   4.1416   4.2983   4.4659   4.4903
     7.9575   8.2331   8.2638   9.2526   9.6224   9.7324  10.5749  11.4596
    11.7916  11.8555  12.2325  12.2974  12.5412  12.9159  12.9667  13.0720
    13.1725  13.2932  13.3936  13.4509  13.5383  13.6677  13.7002  13.8312
    13.8934  14.0430  14.1934  14.3251  14.3559

     occupation numbers 
     1.0000   1.0000   1.0000   1.0000   1.0000   1.0000   1.0000   1.0000
     1.0000   1.0000   1.0000   1.0000   1.0000   1.0000   1.0000   1.0000
     1.0000   1.0000   1.0000   1.0000   1.0000   1.0000   1.0000   1.0000
     1.0000   1.0000   1.0000   1.0000   1.0000   1.0000   1.0000   1.0000
     1.0000   1.0000   1.0000   1.0000   1.0000   1.0000   1.0000   1.0000
     1.0000   1.0000   1.0000   1.0000   1.0000   1.0000   1.0000   1.0000
     1.0000   1.0000   1.0000   1.0000   1.0000   1.0000   1.0000   1.0000
     1.0000   1.0000   1.0000   1.0000   1.0000   1.0000   1.0000   1.0000
     1.0000   1.0000   1.0000   1.0000   1.0000   1.0000   1.0000   1.0000
     1.0000   1.0000   1.0000   1.0000   1.0000   1.0000   1.0000   1.0000
     1.0000   1.0000   1.0000   1.0000   1.0000   1.0000   1.0000   1.0000
     1.0000   1.0000   1.0000   1.0000   1.0000   1.0000   1.0000   1.0000
     1.0000   1.0000   1.0000   1.0000   1.0000   1.0000   1.0000   1.0000
     1.0000   1.0000   1.0000   1.0000   1.0000   1.0000   1.0000   1.0000
     1.0000   1.0000   1.0000   1.0000   1.0000   1.0000   1.0000   1.0000
     1.0000   1.0000   1.0000   1.0000   1.0000   1.0000   1.0000   1.0000
     1.0000   1.0000   1.0000   0.0000   0.0000   0.0000   0.0000   0.0000
     0.0000   0.0000   0.0000   0.0000   0.0000   0.0000   0.0000   0.0000
     0.0000   0.0000   0.0000   0.0000   0.0000   0.0000   0.0000   0.0000
     0.0000   0.0000   0.0000   0.0000   0.0000

          k = 0.1667 0.1921 0.0301 ( 25937 PWs)   bands (ev):

   -78.1150 -67.5532 -67.5392 -67.3788 -67.0284 -66.8794 -44.3042 -44.2484
   -44.1167 -34.3235 -34.3089 -34.3022 -34.2943 -34.2866 -34.2772 -34.1418
   -34.1372 -34.1140 -33.7816 -33.7806 -33.7792 -33.6520 -33.6224 -33.6201
   -23.0703 -23.0339 -15.0547 -15.0031 -14.2172 -14.1726 -13.7588 -13.7317
   -13.3154 -13.2194 -13.1411 -13.0973 -12.9772 -12.9302 -12.8992 -12.8603
   -12.7693 -12.6650 -12.4958 -12.4113 -12.3316 -12.2925 -12.1773 -12.0678
   -11.0890 -10.8254  -6.6375  -6.6065  -6.5628  -6.5519  -6.5126  -6.5050
    -4.1223  -4.0603  -2.5623  -2.4609  -1.7361  -1.3829  -1.3173  -1.2863
    -0.8936  -0.8329  -0.7586  -0.6179  -0.4995  -0.2913  -0.2570  -0.1250
    -0.0139   0.1241   0.2025   0.4477   0.4830   0.6075   0.6535   0.7443
     1.0735   1.1192   1.2711   1.3127   1.3650   1.4598   1.5387   1.6595
     1.7813   1.8879   1.9112   2.0736   2.1567   2.2791   2.3336   2.3764
     2.4418   2.5059   2.5578   2.6871   2.7030   2.7931   2.8389   2.8984
     2.9451   3.0019   3.0667   3.1466   3.1783   3.2111   3.2818   3.3225
     3.3804   3.4583   3.4761   3.5327   3.5882   3.6539   3.6882   3.7735
     3.8092   3.8439   3.8971   3.9885   4.0766   4.2638   4.3651   4.4958
     7.9643   8.2340   8.2621   9.2276   9.6727   9.8911  10.6660  11.0541
    11.5933  11.8849  12.2508  12.5742  12.6760  12.7770  13.0255  13.0630
    13.1974  13.3156  13.3334  13.4665  13.5134  13.6207  13.7351  13.7929
    13.9374  14.0021  14.2303  14.4058  14.5446

     occupation numbers 
     1.0000   1.0000   1.0000   1.0000   1.0000   1.0000   1.0000   1.0000
     1.0000   1.0000   1.0000   1.0000   1.0000   1.0000   1.0000   1.0000
     1.0000   1.0000   1.0000   1.0000   1.0000   1.0000   1.0000   1.0000
     1.0000   1.0000   1.0000   1.0000   1.0000   1.0000   1.0000   1.0000
     1.0000   1.0000   1.0000   1.0000   1.0000   1.0000   1.0000   1.0000
     1.0000   1.0000   1.0000   1.0000   1.0000   1.0000   1.0000   1.0000
     1.0000   1.0000   1.0000   1.0000   1.0000   1.0000   1.0000   1.0000
     1.0000   1.0000   1.0000   1.0000   1.0000   1.0000   1.0000   1.0000
     1.0000   1.0000   1.0000   1.0000   1.0000   1.0000   1.0000   1.0000
     1.0000   1.0000   1.0000   1.0000   1.0000   1.0000   1.0000   1.0000
     1.0000   1.0000   1.0000   1.0000   1.0000   1.0000   1.0000   1.0000
     1.0000   1.0000   1.0000   1.0000   1.0000   1.0000   1.0000   1.0000
     1.0000   1.0000   1.0000   1.0000   1.0000   1.0000   1.0000   1.0000
     1.0000   1.0000   1.0000   1.0000   1.0000   1.0000   1.0000   1.0000
     1.0000   1.0000   1.0000   1.0000   1.0000   1.0000   1.0000   1.0000
     1.0000   1.0000   1.0000   1.0000   1.0000   1.0000   1.0000   1.0000
     1.0000   1.0000   1.0000   0.0000   0.0000   0.0000   0.0000   0.0000
     0.0000   0.0000   0.0000   0.0000   0.0000   0.0000   0.0000   0.0000
     0.0000   0.0000   0.0000   0.0000   0.0000   0.0000   0.0000   0.0000
     0.0000   0.0000   0.0000   0.0000   0.0000

          k = 0.1667 0.1921 0.2059 ( 25944 PWs)   bands (ev):

   -78.1150 -67.5532 -67.5392 -67.3788 -67.0284 -66.8794 -44.3042 -44.2485
   -44.1167 -34.3235 -34.3089 -34.3022 -34.2943 -34.2866 -34.2772 -34.1418
   -34.1372 -34.1140 -33.7816 -33.7806 -33.7792 -33.6520 -33.6224 -33.6201
   -23.0703 -23.0339 -15.0387 -15.0199 -14.2059 -14.1846 -13.7574 -13.7332
   -13.3096 -13.2150 -13.1611 -13.0815 -12.9795 -12.9393 -12.8902 -12.8610
   -12.7664 -12.6700 -12.4899 -12.4183 -12.3300 -12.2927 -12.1685 -12.0762
   -11.0884 -10.8262  -6.6375  -6.6065  -6.5627  -6.5519  -6.5125  -6.5049
    -4.1207  -4.0621  -2.5377  -2.4884  -1.7081  -1.3724  -1.3395  -1.2642
    -0.9007  -0.8246  -0.7562  -0.6257  -0.4912  -0.3620  -0.2324  -0.1802
     0.0281   0.1092   0.1841   0.4056   0.4662   0.5957   0.6393   0.7943
     1.0939   1.1185   1.2475   1.3779   1.3935   1.4768   1.5829   1.7297
     1.7964   1.8520   1.9067   2.0588   2.1842   2.2599   2.3560   2.3979
     2.4575   2.4842   2.5318   2.6288   2.6927   2.7737   2.8195   2.8613
     2.9416   3.0182   3.0612   3.1340   3.1848   3.2043   3.2630   3.3353
     3.3737   3.4491   3.4911   3.5393   3.6004   3.6297   3.7223   3.7777
     3.8134   3.8511   3.9017   3.9350   4.0763   4.2804   4.3780   4.5083
     7.9643   8.2342   8.2598   9.2153   9.7014  10.1813  10.5839  10.8770
    11.2815  11.8684  12.2465  12.5749  12.7408  12.8322  13.0843  13.2495
    13.2845  13.3222  13.4078  13.4528  13.5382  13.6647  13.7089  13.7792
    13.8699  14.0045  14.1578  14.3003  14.5253

     occupation numbers 
     1.0000   1.0000   1.0000   1.0000   1.0000   1.0000   1.0000   1.0000
     1.0000   1.0000   1.0000   1.0000   1.0000   1.0000   1.0000   1.0000
     1.0000   1.0000   1.0000   1.0000   1.0000   1.0000   1.0000   1.0000
     1.0000   1.0000   1.0000   1.0000   1.0000   1.0000   1.0000   1.0000
     1.0000   1.0000   1.0000   1.0000   1.0000   1.0000   1.0000   1.0000
     1.0000   1.0000   1.0000   1.0000   1.0000   1.0000   1.0000   1.0000
     1.0000   1.0000   1.0000   1.0000   1.0000   1.0000   1.0000   1.0000
     1.0000   1.0000   1.0000   1.0000   1.0000   1.0000   1.0000   1.0000
     1.0000   1.0000   1.0000   1.0000   1.0000   1.0000   1.0000   1.0000
     1.0000   1.0000   1.0000   1.0000   1.0000   1.0000   1.0000   1.0000
     1.0000   1.0000   1.0000   1.0000   1.0000   1.0000   1.0000   1.0000
     1.0000   1.0000   1.0000   1.0000   1.0000   1.0000   1.0000   1.0000
     1.0000   1.0000   1.0000   1.0000   1.0000   1.0000   1.0000   1.0000
     1.0000   1.0000   1.0000   1.0000   1.0000   1.0000   1.0000   1.0000
     1.0000   1.0000   1.0000   1.0000   1.0000   1.0000   1.0000   1.0000
     1.0000   1.0000   1.0000   1.0000   1.0000   1.0000   1.0000   1.0000
     1.0000   1.0000   1.0000   0.0000   0.0000   0.0000   0.0000   0.0000
     0.0000   0.0000   0.0000   0.0000   0.0000   0.0000   0.0000   0.0000
     0.0000   0.0000   0.0000   0.0000   0.0000   0.0000   0.0000   0.0000
     0.0000   0.0000   0.0000   0.0000   0.0000

          k = 0.1667 0.1921-0.1457 ( 25923 PWs)   bands (ev):

   -78.1150 -67.5532 -67.5392 -67.3788 -67.0284 -66.8794 -44.3041 -44.2484
   -44.1167 -34.3235 -34.3089 -34.3022 -34.2943 -34.2866 -34.2772 -34.1418
   -34.1372 -34.1140 -33.7816 -33.7806 -33.7792 -33.6520 -33.6224 -33.6201
   -23.0703 -23.0339 -15.0456 -15.0127 -14.2083 -14.1822 -13.7549 -13.7357
   -13.3112 -13.2164 -13.1541 -13.0876 -12.9811 -12.9271 -12.9025 -12.8589
   -12.7665 -12.6695 -12.4863 -12.4204 -12.3184 -12.3063 -12.1674 -12.0755
   -11.0883 -10.8261  -6.6376  -6.6066  -6.5627  -6.5518  -6.5125  -6.5049
    -4.1050  -4.0782  -2.5394  -2.4860  -1.7186  -1.3757  -1.3411  -1.2622
    -0.8768  -0.8517  -0.7237  -0.6267  -0.5287  -0.3240  -0.2354  -0.1779
    -0.0042   0.1224   0.1681   0.4360   0.4907   0.5887   0.6923   0.7797
     1.0605   1.0925   1.2347   1.3483   1.4093   1.4954   1.5866   1.6851
     1.8167   1.8539   1.9100   2.0829   2.1611   2.2411   2.3343   2.3802
     2.4042   2.5152   2.5481   2.6514   2.7377   2.7458   2.7998   2.9114
     2.9571   3.0307   3.0894   3.1139   3.1812   3.1992   3.2808   3.3440
     3.3935   3.4402   3.4799   3.5367   3.5910   3.6581   3.7192   3.7488
     3.7943   3.8414   3.9021   3.9200   4.1210   4.2697   4.3729   4.4920
     7.9651   8.2340   8.2624   9.2092   9.7305  10.0030  10.7874  10.8157
    11.3860  11.9270  12.2829  12.5889  12.6582  12.8330  13.0349  13.1450
    13.2181  13.3218  13.4073  13.4579  13.5484  13.6367  13.7008  13.8564
    13.8910  13.9412  14.1034  14.3571  14.4667

     occupation numbers 
     1.0000   1.0000   1.0000   1.0000   1.0000   1.0000   1.0000   1.0000
     1.0000   1.0000   1.0000   1.0000   1.0000   1.0000   1.0000   1.0000
     1.0000   1.0000   1.0000   1.0000   1.0000   1.0000   1.0000   1.0000
     1.0000   1.0000   1.0000   1.0000   1.0000   1.0000   1.0000   1.0000
     1.0000   1.0000   1.0000   1.0000   1.0000   1.0000   1.0000   1.0000
     1.0000   1.0000   1.0000   1.0000   1.0000   1.0000   1.0000   1.0000
     1.0000   1.0000   1.0000   1.0000   1.0000   1.0000   1.0000   1.0000
     1.0000   1.0000   1.0000   1.0000   1.0000   1.0000   1.0000   1.0000
     1.0000   1.0000   1.0000   1.0000   1.0000   1.0000   1.0000   1.0000
     1.0000   1.0000   1.0000   1.0000   1.0000   1.0000   1.0000   1.0000
     1.0000   1.0000   1.0000   1.0000   1.0000   1.0000   1.0000   1.0000
     1.0000   1.0000   1.0000   1.0000   1.0000   1.0000   1.0000   1.0000
     1.0000   1.0000   1.0000   1.0000   1.0000   1.0000   1.0000   1.0000
     1.0000   1.0000   1.0000   1.0000   1.0000   1.0000   1.0000   1.0000
     1.0000   1.0000   1.0000   1.0000   1.0000   1.0000   1.0000   1.0000
     1.0000   1.0000   1.0000   1.0000   1.0000   1.0000   1.0000   1.0000
     1.0000   1.0000   1.0000   0.0000   0.0000   0.0000   0.0000   0.0000
     0.0000   0.0000   0.0000   0.0000   0.0000   0.0000   0.0000   0.0000
     0.0000   0.0000   0.0000   0.0000   0.0000   0.0000   0.0000   0.0000
     0.0000   0.0000   0.0000   0.0000   0.0000

          k = 0.3333 0.0000 0.0601 ( 25907 PWs)   bands (ev):

   -78.1150 -67.5531 -67.5392 -67.3788 -67.0284 -66.8794 -44.3042 -44.2484
   -44.1167 -34.3212 -34.3128 -34.3000 -34.2954 -34.2858 -34.2774 -34.1419
   -34.1371 -34.1140 -33.7816 -33.7806 -33.7792 -33.6520 -33.6224 -33.6200
   -23.0700 -23.0336 -14.8991 -14.8511 -14.3150 -14.2777 -13.8858 -13.8517
   -13.2701 -13.1444 -13.0849 -13.0762 -12.9942 -12.9193 -12.8632 -12.8476
   -12.7581 -12.6737 -12.5522 -12.4809 -12.4164 -12.3407 -12.1636 -12.0600
   -11.0593 -10.8592  -6.6399  -6.6120  -6.5599  -6.5502  -6.5120  -6.4978
    -3.7479  -3.6762  -2.5483  -2.4389  -1.8152  -1.6687  -1.4136  -1.2604
    -0.8517  -0.7696  -0.7269  -0.6782  -0.4030  -0.2895  -0.2294  -0.1308
    -0.0748   0.1352   0.2615   0.4240   0.5028   0.6172   0.6586   0.7215
     1.0229   1.1156   1.2050   1.3204   1.4204   1.4552   1.5698   1.5990
     1.6408   1.6721   1.7965   1.9992   2.0911   2.3056   2.3319   2.3963
     2.4524   2.5430   2.6667   2.6892   2.7151   2.7599   2.8306   2.9100
     2.9206   2.9811   3.1193   3.1348   3.1699   3.1918   3.2339   3.2663
     3.3096   3.4798   3.4938   3.5610   3.6027   3.6263   3.6415   3.7364
     3.7692   3.8221   3.8684   3.9675   4.0427   4.2169   4.3299   4.4548
     7.9637   8.2178   8.2463   9.2619   9.6247  10.3172  11.2567  11.4745
    11.9299  12.0643  12.1993  12.2906  12.7239  12.7289  12.7819  13.0366
    13.1686  13.2135  13.4667  13.5141  13.5706  13.6208  13.7453  13.9107
    13.9690  14.2172  14.2516  14.3575  14.4727

     occupation numbers 
     1.0000   1.0000   1.0000   1.0000   1.0000   1.0000   1.0000   1.0000
     1.0000   1.0000   1.0000   1.0000   1.0000   1.0000   1.0000   1.0000
     1.0000   1.0000   1.0000   1.0000   1.0000   1.0000   1.0000   1.0000
     1.0000   1.0000   1.0000   1.0000   1.0000   1.0000   1.0000   1.0000
     1.0000   1.0000   1.0000   1.0000   1.0000   1.0000   1.0000   1.0000
     1.0000   1.0000   1.0000   1.0000   1.0000   1.0000   1.0000   1.0000
     1.0000   1.0000   1.0000   1.0000   1.0000   1.0000   1.0000   1.0000
     1.0000   1.0000   1.0000   1.0000   1.0000   1.0000   1.0000   1.0000
     1.0000   1.0000   1.0000   1.0000   1.0000   1.0000   1.0000   1.0000
     1.0000   1.0000   1.0000   1.0000   1.0000   1.0000   1.0000   1.0000
     1.0000   1.0000   1.0000   1.0000   1.0000   1.0000   1.0000   1.0000
     1.0000   1.0000   1.0000   1.0000   1.0000   1.0000   1.0000   1.0000
     1.0000   1.0000   1.0000   1.0000   1.0000   1.0000   1.0000   1.0000
     1.0000   1.0000   1.0000   1.0000   1.0000   1.0000   1.0000   1.0000
     1.0000   1.0000   1.0000   1.0000   1.0000   1.0000   1.0000   1.0000
     1.0000   1.0000   1.0000   1.0000   1.0000   1.0000   1.0000   1.0000
     1.0000   1.0000   1.0000   0.0000   0.0000   0.0000   0.0000   0.0000
     0.0000   0.0000   0.0000   0.0000   0.0000   0.0000   0.0000   0.0000
     0.0000   0.0000   0.0000   0.0000   0.0000   0.0000   0.0000   0.0000
     0.0000   0.0000   0.0000   0.0000   0.0000

          k = 0.3333 0.0000 0.2360 ( 25948 PWs)   bands (ev):

   -78.1150 -67.5531 -67.5392 -67.3788 -67.0284 -66.8794 -44.3042 -44.2484
   -44.1167 -34.3212 -34.3128 -34.3001 -34.2954 -34.2858 -34.2774 -34.1419
   -34.1371 -34.1140 -33.7816 -33.7806 -33.7792 -33.6520 -33.6224 -33.6200
   -23.0700 -23.0336 -14.8815 -14.8695 -14.3131 -14.2797 -13.8803 -13.8575
   -13.2641 -13.1509 -13.0905 -13.0692 -12.9941 -12.9126 -12.8685 -12.8494
   -12.7579 -12.6754 -12.5440 -12.4922 -12.4008 -12.3521 -12.1534 -12.0694
   -11.0583 -10.8602  -6.6400  -6.6121  -6.5598  -6.5502  -6.5119  -6.4977
    -3.7492  -3.6750  -2.5218  -2.4688  -1.7870  -1.7053  -1.3858  -1.2506
    -0.8495  -0.7759  -0.7288  -0.6659  -0.3717  -0.2984  -0.2440  -0.2285
    -0.0195   0.0873   0.2673   0.3936   0.5118   0.5915   0.6405   0.7805
     1.0700   1.1349   1.1771   1.3102   1.3641   1.5053   1.5899   1.6413
     1.6639   1.7162   1.7339   2.0572   2.1199   2.2709   2.3406   2.3942
     2.4342   2.4755   2.6200   2.7134   2.7550   2.7808   2.8103   2.8336
     2.9204   3.0263   3.0630   3.1133   3.1307   3.2150   3.2852   3.3089
     3.3226   3.4882   3.5067   3.5742   3.5883   3.5944   3.6330   3.6939
     3.7670   3.8540   3.8718   3.9358   4.0617   4.2458   4.3249   4.4608
     7.9629   8.2175   8.2466   9.2593   9.6353  10.6153  10.8194  11.5388
    11.9706  12.0014  12.1778  12.3404  12.6559  12.6851  12.8034  12.9349
    13.2850  13.3429  13.4768  13.4784  13.5439  13.6571  13.8510  13.9266
    13.9630  14.0402  14.0557  14.4745  14.5690

     occupation numbers 
     1.0000   1.0000   1.0000   1.0000   1.0000   1.0000   1.0000   1.0000
     1.0000   1.0000   1.0000   1.0000   1.0000   1.0000   1.0000   1.0000
     1.0000   1.0000   1.0000   1.0000   1.0000   1.0000   1.0000   1.0000
     1.0000   1.0000   1.0000   1.0000   1.0000   1.0000   1.0000   1.0000
     1.0000   1.0000   1.0000   1.0000   1.0000   1.0000   1.0000   1.0000
     1.0000   1.0000   1.0000   1.0000   1.0000   1.0000   1.0000   1.0000
     1.0000   1.0000   1.0000   1.0000   1.0000   1.0000   1.0000   1.0000
     1.0000   1.0000   1.0000   1.0000   1.0000   1.0000   1.0000   1.0000
     1.0000   1.0000   1.0000   1.0000   1.0000   1.0000   1.0000   1.0000
     1.0000   1.0000   1.0000   1.0000   1.0000   1.0000   1.0000   1.0000
     1.0000   1.0000   1.0000   1.0000   1.0000   1.0000   1.0000   1.0000
     1.0000   1.0000   1.0000   1.0000   1.0000   1.0000   1.0000   1.0000
     1.0000   1.0000   1.0000   1.0000   1.0000   1.0000   1.0000   1.0000
     1.0000   1.0000   1.0000   1.0000   1.0000   1.0000   1.0000   1.0000
     1.0000   1.0000   1.0000   1.0000   1.0000   1.0000   1.0000   1.0000
     1.0000   1.0000   1.0000   1.0000   1.0000   1.0000   1.0000   1.0000
     1.0000   1.0000   1.0000   0.0000   0.0000   0.0000   0.0000   0.0000
     0.0000   0.0000   0.0000   0.0000   0.0000   0.0000   0.0000   0.0000
     0.0000   0.0000   0.0000   0.0000   0.0000   0.0000   0.0000   0.0000
     0.0000   0.0000   0.0000   0.0000   0.0000

          k = 0.3333 0.0000-0.1157 ( 25913 PWs)   bands (ev):

   -78.1150 -67.5531 -67.5392 -67.3788 -67.0284 -66.8794 -44.3042 -44.2484
   -44.1167 -34.3212 -34.3128 -34.3001 -34.2954 -34.2858 -34.2774 -34.1419
   -34.1371 -34.1140 -33.7816 -33.7806 -33.7792 -33.6520 -33.6224 -33.6200
   -23.0700 -23.0336 -14.8938 -14.8568 -14.3075 -14.2856 -13.8813 -13.8565
   -13.2676 -13.1442 -13.0964 -13.0656 -12.9975 -12.9150 -12.8707 -12.8409
   -12.7579 -12.6780 -12.5409 -12.4956 -12.3967 -12.3558 -12.1544 -12.0678
   -11.0585 -10.8599  -6.6400  -6.6122  -6.5598  -6.5502  -6.5119  -6.4977
    -3.7155  -3.7096  -2.5370  -2.4524  -1.8002  -1.6870  -1.4049  -1.2561
    -0.8382  -0.7677  -0.7141  -0.6723  -0.4106  -0.2735  -0.2515  -0.1844
    -0.0785   0.1070   0.2998   0.3801   0.5296   0.6036   0.6868   0.7333
     1.0658   1.0825   1.2098   1.3076   1.4158   1.4647   1.5879   1.6219
     1.6394   1.6720   1.8013   2.0144   2.0921   2.2671   2.3235   2.3766
     2.4305   2.5399   2.6631   2.6861   2.7404   2.7796   2.8180   2.8839
     2.9187   2.9755   3.0883   3.1181   3.1795   3.2215   3.3126   3.3377
     3.3428   3.4453   3.4760   3.5482   3.5805   3.6316   3.6486   3.6624
     3.7653   3.7958   3.8522   3.9624   4.1269   4.1972   4.3291   4.4565
     7.9636   8.2190   8.2463   9.2591   9.6618  10.2971  11.1876  11.5961
    11.9001  12.0519  12.2354  12.3676  12.6474  12.7002  12.8198  12.9220
    13.1546  13.3041  13.3849  13.5163  13.5654  13.6199  13.6715  13.8536
    14.0307  14.1243  14.2575  14.4033  14.5495

     occupation numbers 
     1.0000   1.0000   1.0000   1.0000   1.0000   1.0000   1.0000   1.0000
     1.0000   1.0000   1.0000   1.0000   1.0000   1.0000   1.0000   1.0000
     1.0000   1.0000   1.0000   1.0000   1.0000   1.0000   1.0000   1.0000
     1.0000   1.0000   1.0000   1.0000   1.0000   1.0000   1.0000   1.0000
     1.0000   1.0000   1.0000   1.0000   1.0000   1.0000   1.0000   1.0000
     1.0000   1.0000   1.0000   1.0000   1.0000   1.0000   1.0000   1.0000
     1.0000   1.0000   1.0000   1.0000   1.0000   1.0000   1.0000   1.0000
     1.0000   1.0000   1.0000   1.0000   1.0000   1.0000   1.0000   1.0000
     1.0000   1.0000   1.0000   1.0000   1.0000   1.0000   1.0000   1.0000
     1.0000   1.0000   1.0000   1.0000   1.0000   1.0000   1.0000   1.0000
     1.0000   1.0000   1.0000   1.0000   1.0000   1.0000   1.0000   1.0000
     1.0000   1.0000   1.0000   1.0000   1.0000   1.0000   1.0000   1.0000
     1.0000   1.0000   1.0000   1.0000   1.0000   1.0000   1.0000   1.0000
     1.0000   1.0000   1.0000   1.0000   1.0000   1.0000   1.0000   1.0000
     1.0000   1.0000   1.0000   1.0000   1.0000   1.0000   1.0000   1.0000
     1.0000   1.0000   1.0000   1.0000   1.0000   1.0000   1.0000   1.0000
     1.0000   1.0000   1.0000   0.0000   0.0000   0.0000   0.0000   0.0000
     0.0000   0.0000   0.0000   0.0000   0.0000   0.0000   0.0000   0.0000
     0.0000   0.0000   0.0000   0.0000   0.0000   0.0000   0.0000   0.0000
     0.0000   0.0000   0.0000   0.0000   0.0000

          k = 0.3333 0.1921 0.0601 ( 25923 PWs)   bands (ev):

   -78.1150 -67.5531 -67.5392 -67.3788 -67.0284 -66.8794 -44.3042 -44.2484
   -44.1167 -34.3212 -34.3128 -34.3000 -34.2954 -34.2858 -34.2774 -34.1419
   -34.1371 -34.1140 -33.7816 -33.7806 -33.7792 -33.6520 -33.6224 -33.6200
   -23.0700 -23.0336 -14.8956 -14.8476 -14.3258 -14.2871 -13.8834 -13.8509
   -13.2401 -13.1661 -13.0666 -13.0363 -12.9815 -12.9302 -12.8920 -12.8871
   -12.7641 -12.6742 -12.5455 -12.4655 -12.4162 -12.3486 -12.1620 -12.0599
   -11.0588 -10.8591  -6.6396  -6.6135  -6.5600  -6.5496  -6.5116  -6.4979
    -3.7256  -3.6541  -2.6498  -2.5496  -1.7291  -1.5641  -1.3704  -1.2820
    -0.8706  -0.7925  -0.7227  -0.6439  -0.3965  -0.2455  -0.2129  -0.1109
    -0.0412   0.0959   0.2430   0.4203   0.5007   0.5958   0.6316   0.6770
     0.9822   1.0476   1.2722   1.3405   1.3919   1.4638   1.5265   1.6018
     1.6380   1.6901   1.8056   1.9436   2.1480   2.2832   2.3494   2.4111
     2.4496   2.5581   2.6253   2.6818   2.7266   2.8224   2.8682   2.9305
     2.9590   3.0274   3.0534   3.1178   3.1788   3.2003   3.2965   3.3176
     3.3603   3.4345   3.4752   3.5123   3.5770   3.5995   3.6400   3.6653
     3.7180   3.8450   3.8867   3.9989   4.0662   4.2309   4.2993   4.3944
     7.9706   8.2161   8.2468   9.2365   9.6661  10.5291  11.1147  11.4297
    11.8504  11.9114  12.0895  12.4898  12.5775  12.7049  12.8719  13.1122
    13.2102  13.2628  13.4197  13.4661  13.5032  13.6872  13.8012  13.9457
    14.0736  14.2580  14.2889  14.3667  14.4314

     occupation numbers 
     1.0000   1.0000   1.0000   1.0000   1.0000   1.0000   1.0000   1.0000
     1.0000   1.0000   1.0000   1.0000   1.0000   1.0000   1.0000   1.0000
     1.0000   1.0000   1.0000   1.0000   1.0000   1.0000   1.0000   1.0000
     1.0000   1.0000   1.0000   1.0000   1.0000   1.0000   1.0000   1.0000
     1.0000   1.0000   1.0000   1.0000   1.0000   1.0000   1.0000   1.0000
     1.0000   1.0000   1.0000   1.0000   1.0000   1.0000   1.0000   1.0000
     1.0000   1.0000   1.0000   1.0000   1.0000   1.0000   1.0000   1.0000
     1.0000   1.0000   1.0000   1.0000   1.0000   1.0000   1.0000   1.0000
     1.0000   1.0000   1.0000   1.0000   1.0000   1.0000   1.0000   1.0000
     1.0000   1.0000   1.0000   1.0000   1.0000   1.0000   1.0000   1.0000
     1.0000   1.0000   1.0000   1.0000   1.0000   1.0000   1.0000   1.0000
     1.0000   1.0000   1.0000   1.0000   1.0000   1.0000   1.0000   1.0000
     1.0000   1.0000   1.0000   1.0000   1.0000   1.0000   1.0000   1.0000
     1.0000   1.0000   1.0000   1.0000   1.0000   1.0000   1.0000   1.0000
     1.0000   1.0000   1.0000   1.0000   1.0000   1.0000   1.0000   1.0000
     1.0000   1.0000   1.0000   1.0000   1.0000   1.0000   1.0000   1.0000
     1.0000   1.0000   1.0000   0.0000   0.0000   0.0000   0.0000   0.0000
     0.0000   0.0000   0.0000   0.0000   0.0000   0.0000   0.0000   0.0000
     0.0000   0.0000   0.0000   0.0000   0.0000   0.0000   0.0000   0.0000
     0.0000   0.0000   0.0000   0.0000   0.0000

          k = 0.3333 0.1921 0.2360 ( 25909 PWs)   bands (ev):

   -78.1150 -67.5531 -67.5392 -67.3788 -67.0284 -66.8794 -44.3042 -44.2484
   -44.1167 -34.3212 -34.3128 -34.3000 -34.2954 -34.2858 -34.2774 -34.1419
   -34.1371 -34.1140 -33.7816 -33.7806 -33.7792 -33.6520 -33.6224 -33.6200
   -23.0700 -23.0336 -14.8784 -14.8656 -14.3222 -14.2909 -13.8780 -13.8568
   -13.2356 -13.1637 -13.0784 -13.0287 -12.9836 -12.9248 -12.9085 -12.8740
[...]
     atom   12 type  7   force =     0.00000000    0.00000000    0.00000000
     atom   13 type  7   force =     0.00000000    0.00000000    0.00000000
     atom   14 type  1   force =     0.00000000    0.00000000    0.00000000
     atom   15 type  1   force =     0.00000000    0.00000000    0.00000000
     atom   16 type  6   force =     0.00000000    0.00000000    0.00000000
     atom   17 type  6   force =     0.00000000    0.00000000    0.00000000
     atom   18 type  6   force =     0.00000000    0.00000000    0.00000000
     atom   19 type  6   force =     0.00000000    0.00000000    0.00000000
     atom   20 type  6   force =     0.00000000    0.00000000    0.00000000
     atom   21 type  6   force =     0.00000000    0.00000000    0.00000000
     atom   22 type  6   force =     0.00000000    0.00000000    0.00000000
     atom   23 type  6   force =     0.00000000    0.00000000    0.00000000
     atom   24 type  6   force =     0.00000000    0.00000000    0.00000000
     atom   25 type  6   force =     0.00000000    0.00000000    0.00000000
     atom   26 type  6   force =     0.00000000    0.00000000    0.00000000
     atom   27 type  6   force =     0.00000000    0.00000000    0.00000000
     atom   28 type  6   force =     0.00000000    0.00000000    0.00000000
     atom   29 type  6   force =     0.00000000    0.00000000    0.00000000
     atom   30 type  6   force =     0.00000000    0.00000000    0.00000000
     atom   31 type  6   force =     0.00000000    0.00000000    0.00000000
     atom   32 type  6   force =     0.00000000    0.00000000    0.00000000
     atom   33 type  6   force =     0.00000000    0.00000000    0.00000000
     atom   34 type  6   force =     0.00000000    0.00000000    0.00000000
     atom   35 type  6   force =     0.00000000    0.00000000    0.00000000
     atom   36 type  6   force =     0.00000000    0.00000000    0.00000000
     atom   37 type  6   force =     0.00000000    0.00000000    0.00000000
     atom   38 type  6   force =     0.00000000    0.00000000    0.00000000
     atom   39 type  6   force =     0.00000000    0.00000000    0.00000000
     atom   40 type  3   force =     0.00000000    0.00000000    0.00000000
     atom   41 type  3   force =     0.00000000    0.00000000    0.00000000
     atom   42 type  3   force =     0.00000000    0.00000000    0.00000000
     atom   43 type  3   force =     0.00000000    0.00000000    0.00000000
     atom   44 type  2   force =     0.00000000    0.00000000    0.00000000
     The SCF correction term to forces
     atom    1 type  4   force =    -0.00000000   -0.00000185    0.00000000
     atom    2 type  4   force =    -0.00000000    0.00001176    0.00000000
     atom    3 type  5   force =     0.00000000   -0.00002128   -0.00000000
     atom    4 type  5   force =    -0.00000000   -0.00001032   -0.00000000
     atom    5 type  5   force =    -0.00000000   -0.00001107   -0.00000000
     atom    6 type  5   force =     0.00000000    0.00000262    0.00000000
     atom    7 type  5   force =    -0.00000000   -0.00000762    0.00000000
     atom    8 type  7   force =    -0.00000980    0.00000563   -0.00000223
     atom    9 type  7   force =     0.00000980    0.00000563    0.00000223
     atom   10 type  7   force =     0.00000075    0.00000395   -0.00001056
     atom   11 type  7   force =    -0.00000075    0.00000395    0.00001056
     atom   12 type  7   force =     0.00000231    0.00000192    0.00001180
     atom   13 type  7   force =    -0.00000231    0.00000192   -0.00001180
     atom   14 type  1   force =    -0.00000398   -0.00000829    0.00000108
     atom   15 type  1   force =     0.00000398   -0.00000829   -0.00000108
     atom   16 type  6   force =    -0.00001129    0.00002208    0.00001517
     atom   17 type  6   force =     0.00001129    0.00002208   -0.00001517
     atom   18 type  6   force =    -0.00001212    0.00000780   -0.00000350
     atom   19 type  6   force =     0.00001212    0.00000780    0.00000350
     atom   20 type  6   force =     0.00000533    0.00000792    0.00001940
     atom   21 type  6   force =    -0.00000533    0.00000792   -0.00001940
     atom   22 type  6   force =    -0.00000419   -0.00000622   -0.00000279
     atom   23 type  6   force =     0.00000419   -0.00000622    0.00000279
     atom   24 type  6   force =    -0.00000492    0.00001324   -0.00000964
     atom   25 type  6   force =     0.00000492    0.00001324    0.00000964
     atom   26 type  6   force =    -0.00003516    0.00000809    0.00000479
     atom   27 type  6   force =     0.00003516    0.00000809   -0.00000479
     atom   28 type  6   force =    -0.00001372    0.00002150   -0.00001912
     atom   29 type  6   force =     0.00001372    0.00002150    0.00001912
     atom   30 type  6   force =     0.00000816   -0.00001523    0.00001301
     atom   31 type  6   force =    -0.00000816   -0.00001523   -0.00001301
     atom   32 type  6   force =     0.00000149   -0.00001243    0.00000075
     atom   33 type  6   force =    -0.00000149   -0.00001243   -0.00000075
     atom   34 type  6   force =     0.00004846   -0.00006509   -0.00001129
     atom   35 type  6   force =    -0.00004846   -0.00006509    0.00001129
     atom   36 type  6   force =    -0.00000372    0.00000464    0.00000786
     atom   37 type  6   force =     0.00000372    0.00000464   -0.00000786
     atom   38 type  6   force =     0.00000174    0.00000081    0.00001632
     atom   39 type  6   force =    -0.00000174    0.00000081   -0.00001632
     atom   40 type  3   force =    -0.00000056   -0.00000118   -0.00000391
     atom   41 type  3   force =     0.00000056   -0.00000118    0.00000391
     atom   42 type  3   force =     0.00000096    0.00000050    0.00000087
     atom   43 type  3   force =    -0.00000096    0.00000050   -0.00000087
     atom   44 type  2   force =    -0.00000000   -0.00011442    0.00000000

     DFT-D3 dispersion contribution to forces:
     atom    1 type  4   force =    -0.00000000    0.00052042    0.00000000
     atom    2 type  4   force =     0.00000000   -0.00021729    0.00000000
     atom    3 type  5   force =     0.00000000    0.00065620   -0.00000000
     atom    4 type  5   force =    -0.00000000   -0.00161002   -0.00000000
     atom    5 type  5   force =     0.00000000   -0.00080867    0.00000000
     atom    6 type  5   force =    -0.00000000    0.00120042    0.00000000
     atom    7 type  5   force =     0.00000000   -0.00004216   -0.00000000
     atom    8 type  7   force =    -0.00002435   -0.00004253   -0.00015017
     atom    9 type  7   force =     0.00002435   -0.00004253    0.00015017
     atom   10 type  7   force =     0.00005672   -0.00004515    0.00024099
     atom   11 type  7   force =    -0.00005672   -0.00004515   -0.00024099
     atom   12 type  7   force =    -0.00015983    0.00012962   -0.00025758
     atom   13 type  7   force =     0.00015983    0.00012962    0.00025758
     atom   14 type  1   force =    -0.00001599    0.00003108   -0.00112834
     atom   15 type  1   force =     0.00001599    0.00003108    0.00112834
     atom   16 type  6   force =    -0.00000287   -0.00001273    0.00043238
     atom   17 type  6   force =     0.00000287   -0.00001273   -0.00043238
     atom   18 type  6   force =    -0.00001980    0.00002932   -0.00031919
     atom   19 type  6   force =     0.00001980    0.00002932    0.00031919
     atom   20 type  6   force =     0.00000605   -0.00006086    0.00035531
     atom   21 type  6   force =    -0.00000605   -0.00006086   -0.00035531
     atom   22 type  6   force =     0.00002759   -0.00003344    0.00012826
     atom   23 type  6   force =    -0.00002759   -0.00003344   -0.00012826
     atom   24 type  6   force =    -0.00019650    0.00105334    0.00010126
     atom   25 type  6   force =     0.00019650    0.00105334   -0.00010126
     atom   26 type  6   force =     0.00081489    0.00007988    0.00015889
     atom   27 type  6   force =    -0.00081489    0.00007988   -0.00015889
     atom   28 type  6   force =     0.00039960   -0.00057222   -0.00017749
     atom   29 type  6   force =    -0.00039960   -0.00057222    0.00017749
     atom   30 type  6   force =    -0.00027389    0.00040219    0.00023320
     atom   31 type  6   force =     0.00027389    0.00040219   -0.00023320
     atom   32 type  6   force =     0.00085421   -0.00045096    0.00038899
     atom   33 type  6   force =    -0.00085420   -0.00045096   -0.00038899
     atom   34 type  6   force =     0.00070206   -0.00067016   -0.00024120
     atom   35 type  6   force =    -0.00070206   -0.00067016    0.00024120
     atom   36 type  6   force =     0.00007744    0.00013202   -0.00055424
     atom   37 type  6   force =    -0.00007744    0.00013202    0.00055424
     atom   38 type  6   force =     0.00002425    0.00004728   -0.00051873
     atom   39 type  6   force =    -0.00002425    0.00004728    0.00051873
     atom   40 type  3   force =     0.00021499    0.00047624   -0.00011880
     atom   41 type  3   force =    -0.00021500    0.00047624    0.00011880
     atom   42 type  3   force =     0.00008498   -0.00052726   -0.00024044
     atom   43 type  3   force =    -0.00008498   -0.00052726    0.00024044
     atom   44 type  2   force =    -0.00000000    0.00036975   -0.00000000

     Total force =     0.003784     Total SCF correction =     0.000197

     DFT-D3 dispersion Force =     0.004621


     Computing stress (Cartesian axis) and pressure

          total   stress  (Ry/bohr**3)                   (kbar)     P=        7.39
   0.00004255   0.00000000  -0.00000905            6.26        0.00       -1.33
   0.00000000   0.00001430   0.00000000            0.00        2.10        0.00
  -0.00000905   0.00000000   0.00009388           -1.33        0.00       13.81

     kinetic stress (kbar)  20839.38      0.00     -8.25
                                0.00  20817.17      0.00
                               -8.25      0.00  20555.35

     local   stress (kbar) -39782.77      0.00    -50.96
                                0.00 -39286.50     -0.00
                              -50.96     -0.00  18132.91

     nonloc. stress (kbar)   3919.05      0.00     -4.29
                                0.00   3920.13      0.00
                               -4.29      0.00   3903.21

     hartree stress (kbar)  22630.77     -0.00     17.66
                               -0.00  22371.59      0.00
                               17.66      0.00  -5682.41

     exc-cor stress (kbar)  -2916.32     -0.00      0.22
                               -0.00  -2916.10      0.00
                                0.22      0.00  -2913.20

     corecor stress (kbar)  -1922.22      0.00      0.24
                                0.00  -1922.28     -0.00
                                0.24     -0.00  -1923.97

     ewald   stress (kbar)  -2746.01     -0.00     44.01
                               -0.00  -2966.29      0.00
                               44.01      0.00 -32046.23

     hubbard stress (kbar)      0.00      0.00      0.00
                                0.00      0.00      0.00
                                0.00      0.00      0.00

     DFT-D   stress (kbar)    -15.61     -0.00      0.04
                               -0.00    -15.61     -0.00
                                0.04     -0.00    -11.86

     XDM     stress (kbar)      0.00      0.00      0.00
                                0.00      0.00      0.00
                                0.00      0.00      0.00

     dft-nl  stress (kbar)      0.00      0.00      0.00
                                0.00      0.00      0.00
                                0.00      0.00      0.00

     TS-vdW  stress (kbar)      0.00      0.00      0.00
                                0.00      0.00      0.00
                                0.00      0.00      0.00

     MDB     stress (kbar)      0.00      0.00      0.00
                                0.00      0.00      0.00
                                0.00      0.00      0.00

     3D-RISM stress (kbar)      0.00      0.00      0.00
                                0.00      0.00      0.00
                                0.00      0.00      0.00

     Energy error            =      2.5E-05 Ry
     Gradient error          =      9.5E-04 Ry/Bohr

     bfgs converged in  21 scf cycles and  20 bfgs steps
     (criteria: energy <  1.0E-04 Ry, force <  1.0E-03 Ry/Bohr)

     End of BFGS Geometry Optimization

     Final energy             =   -2631.1990897070 Ry

     File ./temp/phl-fe1-fe2-nspin.bfgs deleted, as requested
Begin final coordinates

ATOMIC_POSITIONS (crystal)
K                0.0000000000        0.4995668133        0.0000000000
K                0.5000000000        0.0029696103        0.0000000000
Mg              -0.0000000000        0.0085811607        0.5000000000
Mg              -0.0000000000        0.6612991224        0.5000000000
Mg               0.5000000000        0.4906496046        0.5000000000
Mg               0.5000000000        0.8351125988        0.5000000000
Mg               0.5000000000        0.1746155727        0.5000000000
Si               0.0858055325        0.1680554597        0.2230909834
Si               0.9141944535        0.1680554597        0.7769090466
Si               0.9356479598        0.8356767815        0.7702792481
Si               0.0643520402        0.8356767815        0.2297207519
Si               0.5627674947        0.6671911101        0.2268440369
Si               0.4372325053        0.6671911101        0.7731559481
Al               0.4113448310        0.3325093211        0.7762147287
Al               0.5886551690        0.3325093211        0.2237852713
O                0.1273520876        0.1678661093        0.3859101610
O                0.8726478824        0.1678661093        0.6140898680
O                0.8753460656        0.8324761120        0.6093440283
O                0.1246539344        0.8324761120        0.3906559717
O                0.6238429546        0.6676063853        0.3887940214
O                0.3761570454        0.6676063853        0.6112059786
O                0.3598868482        0.3332582205        0.6039331568
O                0.6401131518        0.3332582205        0.3960668432
O                0.3474016824        0.2028759438        0.1661104902
O                0.6525983176        0.2028759438        0.8338894798
O                0.9970684847        0.9996439847        0.1696801364
O                0.0029315153        0.9996439847        0.8303198486
O                0.6853638436        0.7754280757        0.8307075856
O                0.3146361564        0.7754280757        0.1692924144
O                0.8128592874        0.7348827080        0.1680969973
O                0.1871407126        0.7348827080        0.8319030027
O                0.4974457777        0.5087573693        0.1609623810
O                0.5025541923        0.5087573693        0.8390376340
O                0.1378375204        0.2808651158        0.8418806749
O                0.8621624946        0.2808651158        0.1581193251
O                0.1258243228        0.4960973192        0.3955149928
O                0.8741756922        0.4960973192        0.6044850072
O                0.6317876115        1.0002528523        0.3973777517
O                0.3682123885        1.0002528523        0.6026222183
H                0.0842445951        0.4759011307        0.3010321429
H                0.9157554349        0.4759011307        0.6989678571
H                0.5951499646        0.0176905566        0.3025385910
H                0.4048500354        0.0176905566        0.6974614090
Fe              -0.0000000000        0.3331314587        0.5000000000
End final coordinates



     Writing all to output data dir ./temp/phl-fe1-fe2-nspin.save/ :
     XML data file, charge density, pseudopotentials, collected wavefunctions

     init_run     :     56.49s CPU     57.75s WALL (       1 calls)
     electrons    :  36414.32s CPU  36848.71s WALL (      21 calls)
     update_pot   :     24.63s CPU     24.98s WALL (      20 calls)
     forces       :    807.48s CPU    817.83s WALL (      21 calls)
     force_dftd3  :     61.19s CPU     61.27s WALL (      21 calls)
     stress       :   6242.96s CPU   6293.46s WALL (      21 calls)
     stres_dftd3  :     61.01s CPU     61.09s WALL (      21 calls)

     Called by init_run:
     wfcinit      :     51.38s CPU     52.11s WALL (       1 calls)
     wfcinit:atom :      0.18s CPU      0.27s WALL (      20 calls)
     wfcinit:wfcr :     49.87s CPU     50.36s WALL (      20 calls)
     potinit      :      1.18s CPU      1.20s WALL (       1 calls)
     hinit0       :      1.01s CPU      1.06s WALL (       1 calls)

     Called by electrons:
     c_bands      :  32396.64s CPU  32644.98s WALL (     172 calls)
     sum_band     :   3367.30s CPU   3483.64s WALL (     172 calls)
     v_of_rho     :     42.34s CPU     43.62s WALL (     181 calls)
     v_h          :      3.86s CPU      4.02s WALL (     181 calls)
     v_xc         :     47.32s CPU     48.65s WALL (     223 calls)
     newd         :    473.55s CPU    550.29s WALL (     181 calls)
     PAW_pot      :    167.36s CPU    167.39s WALL (     201 calls)
     mix_rho      :      7.07s CPU      7.28s WALL (     172 calls)
     energy_dftd3 :     48.10s CPU     48.10s WALL (      21 calls)

     Called by c_bands:
     init_us_2    :    255.37s CPU    255.60s WALL (    8140 calls)
     cegterg      :  32067.37s CPU  32312.50s WALL (    3440 calls)

     Called by sum_band:
     sum_band:wei :      0.03s CPU      0.03s WALL (     172 calls)
     sum_band:loo :   2774.17s CPU   2799.49s WALL (     172 calls)
     sum_band:buf :     28.90s CPU     28.96s WALL (    3440 calls)
     sum_band:ini :    113.82s CPU    113.88s WALL (    3440 calls)
     sum_band:cal :   1354.52s CPU   1355.68s WALL (    3840 calls)
     sum_band:bec :      3.22s CPU      3.23s WALL (    3840 calls)
     addusdens    :    449.73s CPU    540.23s WALL (     172 calls)
                                        0.00s GPU  (     172 calls)
     addusd:skk   :      4.98s CPU      7.29s WALL (    1204 calls)
                                        0.00s GPU  (    1204 calls)

     Called by *egterg:
     cdiaghg      :   1726.47s CPU   1741.99s WALL (   27244 calls)
     cegterg:over :   5797.48s CPU   5800.14s WALL (   24444 calls)
     cegterg:upda :   2592.86s CPU   2601.36s WALL (   24444 calls)
     cegterg:last :   5219.51s CPU   5222.43s WALL (    9514 calls)
     cdiaghg:chol :     44.07s CPU     44.14s WALL (   27244 calls)
     cdiaghg:inve :     29.48s CPU     29.55s WALL (   27244 calls)
     cdiaghg:para :    442.46s CPU    449.23s WALL (   54488 calls)
     h_psi        :  12502.25s CPU  12667.68s WALL (   27904 calls)
     s_psi        :   2132.45s CPU   2135.17s WALL (   27904 calls)
     g_psi        :     29.99s CPU     30.06s WALL (   24444 calls)

     Called by h_psi:
     h_psi:calbec :   3871.97s CPU   3876.61s WALL (   27904 calls)
     vloc_psi     :   6420.91s CPU   6543.65s WALL (   27904 calls)
     add_vuspsi   :   2153.19s CPU   2168.92s WALL (   27904 calls)

     General routines
     calbec       :   8135.53s CPU   8142.13s WALL (   33844 calls)
     fft          :     41.02s CPU     43.21s WALL (    2868 calls)
     ffts         :      1.12s CPU      1.15s WALL (     353 calls)
     fftw         :   5330.82s CPU   5427.72s WALL ( 3871412 calls)
     interpolate  :      3.66s CPU      3.79s WALL (     181 calls)

     Parallel routines

     PAW routines
     PAW_pot      :    167.36s CPU    167.39s WALL (     201 calls)
     PAW_symme    :      0.16s CPU      0.16s WALL (     373 calls)

     PWSCF        :     12h 9m CPU     12h18m WALL


   This run was terminated on:   2:19: 5  29Jan2025            

=------------------------------------------------------------------------------=
   JOB DONE.
=------------------------------------------------------------------------------=
