
     Program PWSCF v.7.3.1 starts on  7Jan2025 at 15:49:56 

     This program is part of the open-source Quantum ESPRESSO suite
     for quantum simulation of materials; please cite
         "P. Giannozzi et al., J. Phys.:Condens. Matter 21 395502 (2009);
         "P. Giannozzi et al., J. Phys.:Condens. Matter 29 465901 (2017);
         "P. Giannozzi et al., J. Chem. Phys. 152 154105 (2020);
          URL http://www.quantum-espresso.org", 
     in publications or presentations arising from this work. More details at
     http://www.quantum-espresso.org/quote

     Parallel version (MPI), running on     4 processors

     MPI processes distributed on     1 nodes
     14222 MiB available memory on the printing compute node when the environment starts

     Reading input from relax.in
Warning: card  &CELL ignored
Warning: card    CELL_DOFREE     = 'IBRAV' ignored
Warning: card  / ignored

     Current dimensions of program PWSCF are:
     Max number of different atomic species (ntypx) = 10
     Max number of k-points (npk) =  40000
     Max angular momentum in pseudopotentials (lmaxx) =  4
     file Al.pbe-n-kjpaw_psl.1.0.0.UPF: wavefunction(s)  3S 3P renormalized
     file Fe.pbe-spn-kjpaw_psl.1.0.0.UPF: wavefunction(s)  3P 3D renormalized
     file H.pbe-kjpaw_psl.1.0.0.UPF: wavefunction(s)  1S renormalized
     file K.pbe-spn-kjpaw_psl.1.0.0.UPF: wavefunction(s)  3S renormalized
     file Mg.pbe-spnl-kjpaw_psl.1.0.0.UPF: wavefunction(s)  2P renormalized
     file O.pbe-n-kjpaw_psl.1.0.0.UPF: wavefunction(s)  2S 2P renormalized
     file Si.pbe-n-kjpaw_psl.1.0.0.UPF: wavefunction(s)  3S 3P renormalized

     R & G space division:  proc/nbgrp/npool/nimage =       4
     Subspace diagonalization in iterative solution of the eigenvalue problem:
     one sub-group per band group will be used
     custom distributed-memory algorithm (size of sub-group:  2*  2 procs)


     Parallelization info
     --------------------
     sticks:   dense  smooth     PW     G-vecs:    dense   smooth      PW
     Min        1658     832    225               146616    51868    7377
     Max        1659     833    227               146617    51870    7378
     Sum        6633    3329    905               586467   207475   29511

     Using Slab Decomposition



     bravais-lattice index     =          -12
     lattice parameter (alat)  =      10.0136  a.u.
     unit-cell volume          =    3303.4414 (a.u.)^3
     number of atoms/cell      =           44
     number of atomic types    =            7
     number of electrons       =       262.00
     number of Kohn-Sham states=          157
     kinetic-energy cutoff     =      60.0000  Ry
     charge density cutoff     =     480.0000  Ry
     scf convergence threshold =      1.0E-06
     mixing beta               =       0.7000
     number of iterations used =            8  plain     mixing
     energy convergence thresh.=      1.0E-04
     force convergence thresh. =      1.0E-03
     Exchange-correlation= SLA  PW   PBX  PBC
                           (   1   4   3   4   0   0   0)
     nstep                     =           50


     celldm(1)=  10.013640  celldm(2)=   1.735306  celldm(3)=   1.926511
     celldm(4)=   0.000000  celldm(5)=  -0.177565  celldm(6)=   0.000000

     crystal axes: (cart. coord. in units of alat)
               a(1) = (   1.000000   0.000000   0.000000 )  
               a(2) = (   0.000000   1.735306   0.000000 )  
               a(3) = (  -0.342081   0.000000   1.895896 )  

     reciprocal axes: (cart. coord. in units 2 pi/alat)
               b(1) = (  1.000000 -0.000000  0.180432 )  
               b(2) = (  0.000000  0.576267 -0.000000 )  
               b(3) = (  0.000000  0.000000  0.527455 )  


     PseudoPot. # 1 for Al read from file:
     ./../../../pseudos/Al.pbe-n-kjpaw_psl.1.0.0.UPF
     MD5 check sum: 502b6b27b9c6270cab5dd1084b96fa6d
     Pseudo is Projector augmented-wave + core cor, Zval =  3.0
     Generated using &quot;atomic&quot; code by A. Dal Corso  v.6.3
     Shape of augmentation charge: PSQ
     Using radial grid of 1135 points,  6 beta functions with: 
                l(1) =   0
                l(2) =   0
                l(3) =   1
                l(4) =   1
                l(5) =   2
                l(6) =   2
     Q(r) pseudized with 0 coefficients 


     PseudoPot. # 2 for Fe read from file:
     ./../../../pseudos/Fe.pbe-spn-kjpaw_psl.1.0.0.UPF
     MD5 check sum: fc81f059e5c5069939230b1155715ae8
     Pseudo is Projector augmented-wave + core cor, Zval = 16.0
     Generated using &quot;atomic&quot; code by A. Dal Corso  v.6.3
     Shape of augmentation charge: PSQ
     Using radial grid of 1191 points,  6 beta functions with: 
                l(1) =   0
                l(2) =   0
                l(3) =   1
                l(4) =   1
                l(5) =   2
                l(6) =   2
     Q(r) pseudized with 0 coefficients 


     PseudoPot. # 3 for H  read from file:
     ./../../../pseudos/H.pbe-kjpaw_psl.1.0.0.UPF
     MD5 check sum: d81a744832360e4a8af0b0b5b123bc2a
     Pseudo is Projector augmented-wave, Zval =  1.0
     Generated using &quot;atomic&quot; code by A. Dal Corso  v.6.3MaX
     Shape of augmentation charge: PSQ
     Using radial grid of  929 points,  2 beta functions with: 
                l(1) =   0
                l(2) =   0
     Q(r) pseudized with 0 coefficients 


     PseudoPot. # 4 for K  read from file:
     ./../../../pseudos/K.pbe-spn-kjpaw_psl.1.0.0.UPF
     MD5 check sum: 34cc42130a09071ebe376fd42eb21491
     Pseudo is Projector augmented-wave + core cor, Zval =  9.0
     Generated using &quot;atomic&quot; code by A. Dal Corso  v.6.2.2
     Shape of augmentation charge: PSQ
     Using radial grid of 1165 points,  6 beta functions with: 
                l(1) =   0
                l(2) =   0
                l(3) =   1
                l(4) =   1
                l(5) =   2
                l(6) =   2
     Q(r) pseudized with 0 coefficients 


     PseudoPot. # 5 for Mg read from file:
     ./../../../pseudos/Mg.pbe-spnl-kjpaw_psl.1.0.0.UPF
     MD5 check sum: fda14e0d92a6a9a5ebed782e5a4b3067
     Pseudo is Projector augmented-wave + core cor, Zval = 10.0
     Generated using &quot;atomic&quot; code by A. Dal Corso  v.6.3
     Shape of augmentation charge: PSQ
     Using radial grid of 1129 points,  4 beta functions with: 
                l(1) =   0
                l(2) =   0
                l(3) =   1
                l(4) =   1
     Q(r) pseudized with 0 coefficients 


     PseudoPot. # 6 for O  read from file:
     ./../../../pseudos/O.pbe-n-kjpaw_psl.1.0.0.UPF
     MD5 check sum: e99d9cef9b487d1ca56f5b95ecd0fd7a
     Pseudo is Projector augmented-wave + core cor, Zval =  6.0
     Generated using &quot;atomic&quot; code by A. Dal Corso  v.6.3
     Shape of augmentation charge: PSQ
     Using radial grid of 1095 points,  4 beta functions with: 
                l(1) =   0
                l(2) =   0
                l(3) =   1
                l(4) =   1
     Q(r) pseudized with 0 coefficients 


     PseudoPot. # 7 for Si read from file:
     ./../../../pseudos/Si.pbe-n-kjpaw_psl.1.0.0.UPF
     MD5 check sum: c39c59da582df4a0d9f10159256ea34e
     Pseudo is Projector augmented-wave + core cor, Zval =  4.0
     Generated using &quot;atomic&quot; code by A. Dal Corso  v.6.3
     Shape of augmentation charge: PSQ
     Using radial grid of 1141 points,  6 beta functions with: 
                l(1) =   0
                l(2) =   0
                l(3) =   1
                l(4) =   1
                l(5) =   2
                l(6) =   2
     Q(r) pseudized with 0 coefficients 


     atomic species   valence    mass     pseudopotential
     Al                3.00    26.98154     Al( 1.00)
     Fe               16.00    55.84500     Fe( 1.00)
     H                 1.00     1.00794     H ( 1.00)
     K                 9.00    39.09830     K ( 1.00)
     Mg               10.00    24.30500     Mg( 1.00)
     O                 6.00    15.99940     O ( 1.00)
     Si                4.00    28.08550     Si( 1.00)

     Starting magnetic structure 
     atomic species   magnetization
     Al              0.000
     Fe              0.300
     H               0.000
     K               0.000
     Mg              0.000
     O               0.000
     Si              0.000

      2 Sym. Ops. (no inversion) found


                                    s                        frac. trans.

      isym =  1     identity                                     

 cryst.   s( 1) = (     1          0          0      )
                  (     0          1          0      )
                  (     0          0          1      )

 cart.    s( 1) = (  1.0000000  0.0000000 -0.0000000 )
                  (  0.0000000  1.0000000  0.0000000 )
                  (  0.0000000  0.0000000  1.0000000 )


      isym =  2     180 deg rotation - cart. axis [0,1,0]        

 cryst.   s( 2) = (    -1          0          0      )
                  (     0          1          0      )
                  (     0          0         -1      )

 cart.    s( 2) = ( -1.0000000  0.0000000  0.0000000 )
                  (  0.0000000  1.0000000  0.0000000 )
                  (  0.0000000  0.0000000 -1.0000000 )


     point group C_2  (2)   
     there are  2 classes
     the character table:

       E     C2   
A      1.00  1.00
B      1.00 -1.00

     the symmetry operations in each class and the name of the first element:

     E        1
          identity                                               
     C2       2
          180 deg rotation - cart. axis [0,1,0]                  

   Cartesian axes

     site n.     atom                  positions (alat units)
         1        K      tau(   1) = (   0.0000000   0.8559224   0.0000000  )
         2        K      tau(   2) = (   0.5000000   0.0093568   0.0000000  )
         3        Mg     tau(   3) = (  -0.1710407   0.5780843   0.9479482  )
         4        Mg     tau(   4) = (  -0.1710407   1.1543881   0.9479482  )
         5        Mg     tau(   5) = (   0.3289593   0.8562226   0.9479482  )
         6        Mg     tau(   6) = (   0.3289593   1.4480089   0.9479482  )
         7        Mg     tau(   7) = (   0.3289593   0.2986375   0.9479482  )
         8        Si     tau(   8) = (   0.0066674   0.2865251   0.4219393  )
         9        Si     tau(   9) = (   0.6512512   0.2865251   1.4739571  )
        10        Si     tau(  10) = (   0.6701371   1.4476688   1.4628623  )
        11        Si     tau(  11) = (  -0.0122184   1.4476688   0.4330341  )
        12        Si     tau(  12) = (   0.4872056   1.1568454   0.4292651  )
        13        Si     tau(  13) = (   0.1707131   1.1568454   1.4666313  )
        14        Al     tau(  14) = (   0.1506005   0.5746762   1.4713786  )
        15        Al     tau(  15) = (   0.5073182   0.5746762   0.4245178  )
        16        O      tau(  16) = (  -0.0043508   0.2833738   0.7297400  )
        17        O      tau(  17) = (   0.6622695   0.2833738   1.1661564  )
        18        O      tau(  18) = (   0.6658139   1.4451231   1.1576912  )
        19        O      tau(  19) = (  -0.0078952   1.4451231   0.7382052  )
        20        O      tau(  20) = (   0.4926234   1.1618863   0.7357690  )
        21        O      tau(  21) = (   0.1652953   1.1618863   1.1601274  )
        22        O      tau(  22) = (   0.1548298   0.5779784   1.1454267  )
        23        O      tau(  23) = (   0.5030889   0.5779784   0.7504697  )
        24        O      tau(  24) = (   0.2847398   0.3548857   0.3143567  )
        25        O      tau(  25) = (   0.3731789   0.3548857   1.5815397  )
        26        O      tau(  26) = (   0.9404978   1.7303189   0.3181314  )
        27        O      tau(  27) = (  -0.2825791   1.7303189   1.5777650  )
        28        O      tau(  28) = (   0.3988927   1.3439356   1.5754330  )
        29        O      tau(  29) = (   0.2590260   1.3439356   0.3204634  )
        30        O      tau(  30) = (   0.7582660   1.2710892   0.3185125  )
        31        O      tau(  31) = (  -0.1003473   1.2710892   1.5773839  )
        32        O      tau(  32) = (   0.4432368   0.8811364   0.3085875  )
        33        O      tau(  33) = (   0.2146819   0.8811364   1.5873090  )
        34        O      tau(  34) = (  -0.1423236   0.4782556   1.5925436  )
        35        O      tau(  35) = (   0.8002423   0.4782556   0.3033529  )
        36        O      tau(  36) = (  -0.0041068   0.8750247   0.7469263  )
        37        O      tau(  37) = (   0.6620255   0.8750247   1.1489701  )
        38        O      tau(  38) = (   0.4966158   1.7335917   0.7534577  )
        39        O      tau(  39) = (   0.1613029   1.7335917   1.1424387  )
        40        H      tau(  40) = (  -0.0032097   0.8603995   0.5673129  )
        41        H      tau(  41) = (   0.6611284   0.8603995   1.3285835  )
        42        H      tau(  42) = (   0.4926802   0.0219534   0.5746291  )
        43        H      tau(  43) = (   0.1652385   0.0219534   1.3212673  )
        44        Fe     tau(  44) = (  -0.1710407   0.0067712   0.9479482  )

     --------------------------------------------
     DFT-D3 Dispersion Correction (3-body terms):
     --------------------------------------------
       Reference C6 values for interpolation: 

         atom   Coordination number   C6
         H          0.912             6.05
         H          0.000            15.18
         O          0.000            31.01
         O          0.993            25.63
         O          1.989            20.74
         Mg         0.000          1366.75
         Mg         0.963           902.54
         Mg         1.950           351.12
         Al         0.000          1081.08
         Al         0.965           875.51
         Al         1.931           513.50
         Al         2.915           307.19
         Si         0.000           635.71
         Si         0.951           540.53
         Si         1.944           466.25
         Si         2.941           443.01
         Si         3.868           299.55
         K          0.000          9967.00
         K          0.977           676.04
         Fe         0.000           982.67
         Fe         1.648           409.99
         Fe         9.138           219.01

       Values used:

         atom   Coordination number  R0_AB[au]  C6      C8
         K         13.614            4.007    676.04 129074.98
         K         13.806            4.007    676.04 129074.98
         Mg        11.914            3.292    351.12  31436.69
         Mg        11.468            3.292    351.12  31436.69
         Mg        12.069            3.292    351.12  31436.69
         Mg        11.124            3.292    351.12  31436.69
         Mg        11.596            3.292    351.12  31436.69
         Si         6.805            3.583    299.55  21425.58
         Si         6.805            3.583    299.55  21425.58
         Si         6.360            3.583    299.55  21425.58
         Si         6.360            3.583    299.55  21425.58
         Si         6.593            3.583    299.55  21425.58
         Si         6.593            3.583    299.55  21425.58
         Al         7.862            3.789    307.19  29441.29
         Al         7.862            3.789    307.19  29441.29
         O          3.739            2.345     20.74    418.58
         O          3.739            2.345     20.74    418.58
         O          3.682            2.345     20.74    418.58
         O          3.682            2.345     20.74    418.58
         O          3.909            2.345     20.74    418.58
         O          3.909            2.345     20.74    418.58
         O          3.986            2.345     20.74    418.58
         O          3.986            2.345     20.74    418.58
         O          3.191            2.345     20.74    418.58
         O          3.191            2.345     20.74    418.58
         O          3.143            2.345     20.74    418.58
         O          3.143            2.345     20.74    418.58
         O          3.055            2.345     20.74    418.58
         O          3.055            2.345     20.74    418.58
         O          3.058            2.345     20.74    418.58
         O          3.058            2.345     20.74    418.58
         O          3.190            2.345     20.74    418.58
         O          3.190            2.345     20.74    418.58
         O          3.262            2.345     20.74    418.58
         O          3.262            2.345     20.74    418.58
         O          4.005            2.345     20.74    418.58
         O          4.005            2.345     20.74    418.58
         O          3.836            2.345     20.74    418.58
         O          3.836            2.345     20.74    418.58
         H          1.323            2.062      6.07     73.32
         H          1.323            2.062      6.07     73.32
         H          1.274            2.062      6.07     73.39
         H          1.274            2.062      6.07     73.39
         Fe         7.867            3.252    219.01  20487.87

         Molecular C6 ( Ry / a.u.^6 ) =    165305.34


   Crystallographic axes

     site n.     atom                  positions (cryst. coord.)
         1        K      tau(   1) = (  0.0000000  0.4932400  0.0000000  )
         2        K      tau(   2) = (  0.5000000  0.0053920  0.0000000  )
         3        Mg     tau(   3) = (  0.0000000  0.3331310  0.5000000  )
         4        Mg     tau(   4) = (  0.0000000  0.6652360  0.5000000  )
         5        Mg     tau(   5) = (  0.5000000  0.4934130  0.5000000  )
         6        Mg     tau(   6) = (  0.5000000  0.8344400  0.5000000  )
         7        Mg     tau(   7) = (  0.5000000  0.1720950  0.5000000  )
         8        Si     tau(   8) = (  0.0827990  0.1651150  0.2225540  )
         9        Si     tau(   9) = (  0.9172010  0.1651150  0.7774460  )
        10        Si     tau(  10) = (  0.9340850  0.8342440  0.7715940  )
        11        Si     tau(  11) = (  0.0659150  0.8342440  0.2284060  )
        12        Si     tau(  12) = (  0.5646590  0.6666520  0.2264180  )
        13        Si     tau(  13) = (  0.4353410  0.6666520  0.7735820  )
        14        Al     tau(  14) = (  0.4160850  0.3311670  0.7760860  )
        15        Al     tau(  15) = (  0.5839150  0.3311670  0.2239140  )
        16        O      tau(  16) = (  0.1273180  0.1632990  0.3849050  )
        17        O      tau(  17) = (  0.8726820  0.1632990  0.6150950  )
        18        O      tau(  18) = (  0.8746990  0.8327770  0.6106300  )
        19        O      tau(  19) = (  0.1253010  0.8327770  0.3893700  )
        20        O      tau(  20) = (  0.6253800  0.6695570  0.3880850  )
        21        O      tau(  21) = (  0.3746200  0.6695570  0.6119150  )
        22        O      tau(  22) = (  0.3615020  0.3330700  0.6041610  )
        23        O      tau(  23) = (  0.6384980  0.3330700  0.3958390  )
        24        O      tau(  24) = (  0.3414600  0.2045090  0.1658090  )
        25        O      tau(  25) = (  0.6585400  0.2045090  0.8341910  )
        26        O      tau(  26) = (  0.9978990  0.9971260  0.1678000  )
        27        O      tau(  27) = (  0.0021010  0.9971260  0.8322000  )
        28        O      tau(  28) = (  0.6831520  0.7744660  0.8309700  )
        29        O      tau(  29) = (  0.3168480  0.7744660  0.1690300  )
        30        O      tau(  30) = (  0.8157360  0.7324870  0.1680010  )
        31        O      tau(  31) = (  0.1842640  0.7324870  0.8319990  )
        32        O      tau(  32) = (  0.4989160  0.5077700  0.1627660  )
        33        O      tau(  33) = (  0.5010840  0.5077700  0.8372340  )
        34        O      tau(  34) = (  0.1450230  0.2756030  0.8399950  )
        35        O      tau(  35) = (  0.8549770  0.2756030  0.1600050  )
        36        O      tau(  36) = (  0.1306630  0.5042480  0.3939700  )
        37        O      tau(  37) = (  0.8693370  0.5042480  0.6060300  )
        38        O      tau(  38) = (  0.6325640  0.9990120  0.3974150  )
        39        O      tau(  39) = (  0.3674360  0.9990120  0.6025850  )
        40        H      tau(  40) = (  0.0991520  0.4958200  0.2992320  )
        41        H      tau(  41) = (  0.9008480  0.4958200  0.7007680  )
        42        H      tau(  42) = (  0.5963620  0.0126510  0.3030910  )
        43        H      tau(  43) = (  0.4036380  0.0126510  0.6969090  )
        44        Fe     tau(  44) = (  0.0000000  0.0039020  0.5000000  )

     number of k points=    20  Gaussian smearing, width (Ry)=  0.0010
                       cart. coord. in units 2pi/alat
        k(    1) = (   0.0000000   0.0000000   0.0000000), wk =   0.0185185
        k(    2) = (   0.0000000   0.0000000   0.1758183), wk =   0.0370370
        k(    3) = (   0.0000000   0.1920891   0.0000000), wk =   0.0370370
        k(    4) = (   0.0000000   0.1920891   0.1758183), wk =   0.0740741
        k(    5) = (   0.1666667   0.0000000   0.0300721), wk =   0.0370370
        k(    6) = (   0.1666667   0.0000000   0.2058904), wk =   0.0370370
        k(    7) = (   0.1666667   0.0000000  -0.1457462), wk =   0.0370370
        k(    8) = (   0.1666667   0.1920891   0.0300721), wk =   0.0740741
        k(    9) = (   0.1666667   0.1920891   0.2058904), wk =   0.0740741
        k(   10) = (   0.1666667   0.1920891  -0.1457462), wk =   0.0740741
        k(   11) = (   0.3333333   0.0000000   0.0601442), wk =   0.0370370
        k(   12) = (   0.3333333   0.0000000   0.2359625), wk =   0.0370370
        k(   13) = (   0.3333333   0.0000000  -0.1156742), wk =   0.0370370
        k(   14) = (   0.3333333   0.1920891   0.0601442), wk =   0.0740741
        k(   15) = (   0.3333333   0.1920891   0.2359625), wk =   0.0740741
        k(   16) = (   0.3333333   0.1920891  -0.1156742), wk =   0.0740741
        k(   17) = (  -0.5000000   0.0000000  -0.0902162), wk =   0.0185185
        k(   18) = (  -0.5000000   0.0000000   0.0856021), wk =   0.0370370
        k(   19) = (  -0.5000000   0.1920891  -0.0902162), wk =   0.0370370
        k(   20) = (  -0.5000000   0.1920891   0.0856021), wk =   0.0740741

                       cryst. coord.
        k(    1) = (   0.0000000   0.0000000   0.0000000), wk =   0.0185185
        k(    2) = (   0.0000000   0.0000000   0.3333333), wk =   0.0370370
        k(    3) = (   0.0000000   0.3333333   0.0000000), wk =   0.0370370
        k(    4) = (   0.0000000   0.3333333   0.3333333), wk =   0.0740741
        k(    5) = (   0.1666667   0.0000000  -0.0000000), wk =   0.0370370
        k(    6) = (   0.1666667   0.0000000   0.3333333), wk =   0.0370370
        k(    7) = (   0.1666667   0.0000000  -0.3333333), wk =   0.0370370
        k(    8) = (   0.1666667   0.3333333  -0.0000000), wk =   0.0740741
        k(    9) = (   0.1666667   0.3333333   0.3333333), wk =   0.0740741
        k(   10) = (   0.1666667   0.3333333  -0.3333333), wk =   0.0740741
        k(   11) = (   0.3333333   0.0000000  -0.0000000), wk =   0.0370370
        k(   12) = (   0.3333333   0.0000000   0.3333333), wk =   0.0370370
        k(   13) = (   0.3333333   0.0000000  -0.3333333), wk =   0.0370370
        k(   14) = (   0.3333333   0.3333333  -0.0000000), wk =   0.0740741
        k(   15) = (   0.3333333   0.3333333   0.3333333), wk =   0.0740741
        k(   16) = (   0.3333333   0.3333333  -0.3333333), wk =   0.0740741
        k(   17) = (  -0.5000000   0.0000000   0.0000000), wk =   0.0185185
        k(   18) = (  -0.5000000   0.0000000   0.3333333), wk =   0.0370370
        k(   19) = (  -0.5000000   0.3333333   0.0000000), wk =   0.0370370
        k(   20) = (  -0.5000000   0.3333333   0.3333333), wk =   0.0740741

     Dense  grid:   586467 G-vectors     FFT dimensions: (  72, 125, 135)

     Smooth grid:   207475 G-vectors     FFT dimensions: (  50,  90,  96)

     Dynamical RAM for                 wfc:      15.53 MB

     Dynamical RAM for     wfc (w. buffer):     636.57 MB

     Dynamical RAM for           str. fact:      15.66 MB

     Dynamical RAM for           local pot:       0.00 MB

     Dynamical RAM for          nlocal pot:      43.31 MB

     Dynamical RAM for                qrad:      12.30 MB

     Dynamical RAM for          rho,v,vnew:      27.43 MB

     Dynamical RAM for               rhoin:       9.14 MB

     Dynamical RAM for            rho*nmix:      71.59 MB

     Dynamical RAM for           G-vectors:       8.79 MB

     Dynamical RAM for          h,s,v(r/c):       1.13 MB

     Dynamical RAM for          <psi|beta>:       1.05 MB

     Dynamical RAM for                 psi:      31.05 MB

     Dynamical RAM for                hpsi:      31.05 MB

     Dynamical RAM for                spsi:      31.05 MB

     Dynamical RAM for      wfcinit/wfcrot:      31.62 MB

     Dynamical RAM for           addusdens:     472.05 MB

     Dynamical RAM for          addusforce:     575.15 MB

     Dynamical RAM for         addusstress:     453.03 MB

     Estimated static dynamical RAM per process >     785.11 MB

     Estimated max dynamical RAM per process >       1.40 GB

     Estimated total dynamical RAM >       5.59 GB

     Atomic positions and unit cell read from directory:
     ./temp/phl-fe1-fe1.save/
     Atomic positions from file used, from input discarded


     Check: negative core charge=   -0.000004
     Generating pointlists ...
     new r_m :   0.1346 (alat units)  1.3482 (a.u.) for type    1
     new r_m :   0.1616 (alat units)  1.6182 (a.u.) for type    2
     new r_m :   0.0751 (alat units)  0.7520 (a.u.) for type    3
     new r_m :   0.2097 (alat units)  2.0996 (a.u.) for type    4
     new r_m :   0.1571 (alat units)  1.5728 (a.u.) for type    5
     new r_m :   0.0751 (alat units)  0.7520 (a.u.) for type    6
     new r_m :   0.1257 (alat units)  1.2589 (a.u.) for type    7

     The initial density is read from file :
     ./temp/phl-fe1-fe1.save/charge-density


     negative rho (up, down):  0.000E+00 1.035E-04
     Cannot read wfcs: file not found
     Starting wfcs are  183 randomized atomic wfcs
     Checking if some PAW data can be deallocated... 
       PAW data deallocated on    3 nodes for type:  1
       PAW data deallocated on    3 nodes for type:  2
       PAW data deallocated on    3 nodes for type:  3
       PAW data deallocated on    3 nodes for type:  4
       PAW data deallocated on    3 nodes for type:  5
       PAW data deallocated on    1 nodes for type:  6
       PAW data deallocated on    2 nodes for type:  7

     total cpu time spent up to now is      227.3 secs

     Self-consistent Calculation

     iteration #  1     ecut=    60.00 Ry     beta= 0.70
     Davidson diagonalization with overlap

---- Real-time Memory Report at c_bands before calling an iterative solver
           844 MiB given to the printing process from OS
             0 MiB allocation reported by mallinfo(arena+hblkhd)
         10880 MiB available memory on the node where the printing process lives
------------------
     c_bands:  1 eigenvalues not converged
     c_bands:  2 eigenvalues not converged
     c_bands:  2 eigenvalues not converged
     c_bands:  2 eigenvalues not converged
     c_bands:  2 eigenvalues not converged
     c_bands:  1 eigenvalues not converged
     c_bands:  2 eigenvalues not converged
     c_bands:  1 eigenvalues not converged
     c_bands:  1 eigenvalues not converged
     c_bands:  2 eigenvalues not converged
     c_bands:  5 eigenvalues not converged
     c_bands:  1 eigenvalues not converged
     c_bands:  1 eigenvalues not converged
     c_bands:  3 eigenvalues not converged
     c_bands:  2 eigenvalues not converged
     c_bands:  2 eigenvalues not converged
     c_bands:  2 eigenvalues not converged
     c_bands:  1 eigenvalues not converged
     c_bands:  4 eigenvalues not converged
     c_bands:  2 eigenvalues not converged
     c_bands:  1 eigenvalues not converged
     c_bands:  2 eigenvalues not converged
     c_bands:  1 eigenvalues not converged
     c_bands:  2 eigenvalues not converged
     c_bands:  3 eigenvalues not converged
     c_bands:  3 eigenvalues not converged
     c_bands:  1 eigenvalues not converged
     c_bands:  2 eigenvalues not converged
     c_bands:  1 eigenvalues not converged
     c_bands:  2 eigenvalues not converged
     c_bands:  2 eigenvalues not converged
     c_bands:  4 eigenvalues not converged
     c_bands:  4 eigenvalues not converged
     c_bands:  2 eigenvalues not converged
     c_bands:  2 eigenvalues not converged
     c_bands:  1 eigenvalues not converged
     c_bands:  1 eigenvalues not converged
     ethr =  1.00E-05,  avg # of iterations = 39.9

     negative rho (up, down):  0.000E+00 1.066E-04

     total cpu time spent up to now is     6004.6 secs

     total energy              =   -2631.22837157 Ry
     estimated scf accuracy    <       0.03415740 Ry

     total magnetization       =     4.00 Bohr mag/cell
     absolute magnetization    =     4.04 Bohr mag/cell

     iteration #  2     ecut=    60.00 Ry     beta= 0.70
     Davidson diagonalization with overlap

---- Real-time Memory Report at c_bands before calling an iterative solver
          1290 MiB given to the printing process from OS
             0 MiB allocation reported by mallinfo(arena+hblkhd)
         10695 MiB available memory on the node where the printing process lives
------------------
     c_bands:  2 eigenvalues not converged
     c_bands:  1 eigenvalues not converged
     c_bands:  1 eigenvalues not converged
     c_bands:  1 eigenvalues not converged
     c_bands:  1 eigenvalues not converged
     c_bands:  1 eigenvalues not converged
     c_bands:  1 eigenvalues not converged
     c_bands:  1 eigenvalues not converged
     c_bands:  1 eigenvalues not converged
     ethr =  1.30E-05,  avg # of iterations = 17.3

     negative rho (up, down):  0.000E+00 1.158E-04

     total cpu time spent up to now is     6971.5 secs

     total energy              =   -2631.23506780 Ry
     estimated scf accuracy    <       0.01301119 Ry

     total magnetization       =     4.00 Bohr mag/cell
     absolute magnetization    =     4.04 Bohr mag/cell

     iteration #  3     ecut=    60.00 Ry     beta= 0.70
     Davidson diagonalization with overlap

---- Real-time Memory Report at c_bands before calling an iterative solver
          1294 MiB given to the printing process from OS
             0 MiB allocation reported by mallinfo(arena+hblkhd)
         10679 MiB available memory on the node where the printing process lives
------------------
     c_bands:  1 eigenvalues not converged
     c_bands:  2 eigenvalues not converged
     c_bands:  1 eigenvalues not converged
     c_bands:  1 eigenvalues not converged
     c_bands:  1 eigenvalues not converged
     ethr =  4.97E-06,  avg # of iterations = 14.3

     negative rho (up, down):  0.000E+00 1.229E-04

     total cpu time spent up to now is     7759.3 secs

     total energy              =   -2631.23900251 Ry
     estimated scf accuracy    <       0.00073398 Ry

     total magnetization       =     4.00 Bohr mag/cell
     absolute magnetization    =     4.04 Bohr mag/cell

     iteration #  4     ecut=    60.00 Ry     beta= 0.70
     Davidson diagonalization with overlap

---- Real-time Memory Report at c_bands before calling an iterative solver
          1297 MiB given to the printing process from OS
             0 MiB allocation reported by mallinfo(arena+hblkhd)
         10665 MiB available memory on the node where the printing process lives
------------------
     c_bands:  1 eigenvalues not converged
     ethr =  2.80E-07,  avg # of iterations =  6.5

     negative rho (up, down):  0.000E+00 1.237E-04

     total cpu time spent up to now is     8886.0 secs

     total energy              =   -2631.23965541 Ry
     estimated scf accuracy    <       0.00015924 Ry

     total magnetization       =     4.00 Bohr mag/cell
     absolute magnetization    =     4.04 Bohr mag/cell

     iteration #  5     ecut=    60.00 Ry     beta= 0.70
     Davidson diagonalization with overlap

---- Real-time Memory Report at c_bands before calling an iterative solver
          1300 MiB given to the printing process from OS
             0 MiB allocation reported by mallinfo(arena+hblkhd)
         10614 MiB available memory on the node where the printing process lives
------------------
     ethr =  6.08E-08,  avg # of iterations =  4.9

     negative rho (up, down):  0.000E+00 1.268E-04

     total cpu time spent up to now is     9727.8 secs

     total energy              =   -2631.23971075 Ry
     estimated scf accuracy    <       0.00002625 Ry

     total magnetization       =     4.00 Bohr mag/cell
     absolute magnetization    =     4.04 Bohr mag/cell

     iteration #  6     ecut=    60.00 Ry     beta= 0.70
     Davidson diagonalization with overlap

---- Real-time Memory Report at c_bands before calling an iterative solver
          1304 MiB given to the printing process from OS
             0 MiB allocation reported by mallinfo(arena+hblkhd)
         10599 MiB available memory on the node where the printing process lives
------------------
     ethr =  1.00E-08,  avg # of iterations =  6.8

     negative rho (up, down):  0.000E+00 1.269E-04

     total cpu time spent up to now is    10850.4 secs

     total energy              =   -2631.23972963 Ry
     estimated scf accuracy    <       0.00001247 Ry

     total magnetization       =     4.00 Bohr mag/cell
     absolute magnetization    =     4.04 Bohr mag/cell

     iteration #  7     ecut=    60.00 Ry     beta= 0.70
     Davidson diagonalization with overlap

---- Real-time Memory Report at c_bands before calling an iterative solver
          1307 MiB given to the printing process from OS
             0 MiB allocation reported by mallinfo(arena+hblkhd)
         10556 MiB available memory on the node where the printing process lives
------------------
     ethr =  4.76E-09,  avg # of iterations =  4.4

     negative rho (up, down):  0.000E+00 1.278E-04

     total cpu time spent up to now is    11575.5 secs

     total energy              =   -2631.23973150 Ry
     estimated scf accuracy    <       0.00000244 Ry

     total magnetization       =     4.00 Bohr mag/cell
     absolute magnetization    =     4.04 Bohr mag/cell

     iteration #  8     ecut=    60.00 Ry     beta= 0.70
     Davidson diagonalization with overlap

---- Real-time Memory Report at c_bands before calling an iterative solver
          1311 MiB given to the printing process from OS
             0 MiB allocation reported by mallinfo(arena+hblkhd)
          6202 MiB available memory on the node where the printing process lives
------------------
     ethr =  9.32E-10,  avg # of iterations =  8.3

     negative rho (up, down):  0.000E+00 1.279E-04

     total cpu time spent up to now is    13013.7 secs

     total energy              =   -2631.23973376 Ry
     estimated scf accuracy    <       0.00000155 Ry

     total magnetization       =     4.00 Bohr mag/cell
     absolute magnetization    =     4.04 Bohr mag/cell

     iteration #  9     ecut=    60.00 Ry     beta= 0.70
     Davidson diagonalization with overlap

---- Real-time Memory Report at c_bands before calling an iterative solver
          1314 MiB given to the printing process from OS
             0 MiB allocation reported by mallinfo(arena+hblkhd)
          1927 MiB available memory on the node where the printing process lives
------------------
     ethr =  5.92E-10,  avg # of iterations =  2.0

     negative rho (up, down):  0.000E+00 1.281E-04

     Magnetic moment per site  (integrated on atomic sphere of radius R)
     atom   1 (R=0.210)  charge=  7.4639  magn=  0.0000
     atom   2 (R=0.210)  charge=  7.4681  magn=  0.0001
     atom   3 (R=0.157)  charge=  8.1068  magn= -0.0001
     atom   4 (R=0.157)  charge=  8.1032  magn= -0.0000
     atom   5 (R=0.157)  charge=  8.1037  magn= -0.0000
     atom   6 (R=0.157)  charge=  8.1025  magn=  0.0003
     atom   7 (R=0.157)  charge=  8.1080  magn=  0.0003
     atom   8 (R=0.126)  charge=  0.5471  magn=  0.0010
     atom   9 (R=0.126)  charge=  0.5471  magn=  0.0010
     atom  10 (R=0.126)  charge=  0.5400  magn=  0.0008
     atom  11 (R=0.126)  charge=  0.5400  magn=  0.0008
     atom  12 (R=0.126)  charge=  0.5388  magn= -0.0000
     atom  13 (R=0.126)  charge=  0.5388  magn= -0.0000
     atom  14 (R=0.135)  charge=  0.3345  magn= -0.0000
     atom  15 (R=0.135)  charge=  0.3345  magn= -0.0000
     atom  16 (R=0.075)  charge=  1.9328  magn=  0.0202
     atom  17 (R=0.075)  charge=  1.9328  magn=  0.0202
     atom  18 (R=0.075)  charge=  1.9316  magn=  0.0169
     atom  19 (R=0.075)  charge=  1.9316  magn=  0.0169
     atom  20 (R=0.075)  charge=  1.9350  magn=  0.0002
     atom  21 (R=0.075)  charge=  1.9350  magn=  0.0002
     atom  22 (R=0.075)  charge=  1.9317  magn=  0.0002
     atom  23 (R=0.075)  charge=  1.9317  magn=  0.0002
     atom  24 (R=0.075)  charge=  1.9371  magn=  0.0012
     atom  25 (R=0.075)  charge=  1.9371  magn=  0.0012
     atom  26 (R=0.075)  charge=  1.9422  magn= -0.0001
     atom  27 (R=0.075)  charge=  1.9422  magn= -0.0001
     atom  28 (R=0.075)  charge=  1.9421  magn=  0.0009
     atom  29 (R=0.075)  charge=  1.9421  magn=  0.0009
     atom  30 (R=0.075)  charge=  1.9400  magn=  0.0004
     atom  31 (R=0.075)  charge=  1.9400  magn=  0.0004
     atom  32 (R=0.075)  charge=  1.9347  magn=  0.0000
     atom  33 (R=0.075)  charge=  1.9347  magn=  0.0000
     atom  34 (R=0.075)  charge=  1.9356  magn=  0.0007
     atom  35 (R=0.075)  charge=  1.9356  magn=  0.0007
     atom  36 (R=0.075)  charge=  1.9367  magn=  0.0005
     atom  37 (R=0.075)  charge=  1.9367  magn=  0.0005
     atom  38 (R=0.075)  charge=  1.9328  magn=  0.0236
     atom  39 (R=0.075)  charge=  1.9328  magn=  0.0236
     atom  40 (R=0.075)  charge=  0.4007  magn= -0.0000
     atom  41 (R=0.075)  charge=  0.4007  magn= -0.0000
     atom  42 (R=0.075)  charge=  0.3954  magn=  0.0015
     atom  43 (R=0.075)  charge=  0.3954  magn=  0.0015
     atom  44 (R=0.162)  charge= 13.3981  magn=  3.3351

     total cpu time spent up to now is    13645.6 secs

     End of self-consistent calculation

 ------ SPIN UP ------------


          k = 0.0000 0.0000 0.0000 ( 25927 PWs)   bands (ev):

   -81.5934 -67.5433 -67.4525 -67.0391 -66.9503 -66.8802 -48.5877 -47.5573
   -46.8053 -34.3107 -34.2947 -34.2848 -34.2175 -34.2081 -34.1886 -33.7954
   -33.7945 -33.7862 -33.7217 -33.6964 -33.6927 -33.6556 -33.6395 -33.6009
   -22.9337 -22.9238 -15.0255 -14.9694 -14.0957 -14.0473 -13.5633 -13.5383
   -13.4024 -13.2877 -13.2374 -13.0440 -13.0043 -12.7882 -12.7771 -12.7518
   -12.7398 -12.6106 -12.4203 -12.3572 -12.2506 -12.2305 -12.1907 -12.1166
   -11.0319 -10.7988  -6.5156  -6.4918  -6.4342  -6.4220  -6.4001  -6.3988
    -4.2191  -4.1649  -2.3755  -2.2765  -1.8959  -1.4207  -1.0940  -1.0853
    -1.0106  -0.9367  -0.6319  -0.6046  -0.4198  -0.4057  -0.3072  -0.1798
     0.0481   0.1476   0.3030   0.3252   0.6263   0.6430   0.6866   0.8722
     0.8752   1.1502   1.3326   1.3448   1.4180   1.5418   1.5801   1.7041
     1.7157   1.8663   1.9533   2.0680   2.1367   2.1692   2.1741   2.3433
     2.4236   2.4423   2.4884   2.5691   2.6794   2.7087   2.7417   2.8189
     2.8334   2.9177   3.0087   3.0288   3.1650   3.2180   3.3427   3.3749
     3.4651   3.4954   3.5765   3.5914   3.6221   3.6871   3.7803   3.8482
     3.9031   3.9324   3.9646   4.0558   4.1683   4.2453   4.4956   4.6316
     4.7860   5.0448   6.0940   6.5678   6.5718   9.1165  10.6429  11.2149
    11.6171  11.8767  12.1628  12.2702  12.5192  12.6914  13.0636  13.0687
    13.1024  13.3290  13.3541  13.5206  13.6145  13.6709  13.7357  13.8007
    13.8420  13.9990  14.2912  14.2972  14.3487

     occupation numbers 
     1.0000   1.0000   1.0000   1.0000   1.0000   1.0000   1.0000   1.0000
     1.0000   1.0000   1.0000   1.0000   1.0000   1.0000   1.0000   1.0000
     1.0000   1.0000   1.0000   1.0000   1.0000   1.0000   1.0000   1.0000
     1.0000   1.0000   1.0000   1.0000   1.0000   1.0000   1.0000   1.0000
     1.0000   1.0000   1.0000   1.0000   1.0000   1.0000   1.0000   1.0000
     1.0000   1.0000   1.0000   1.0000   1.0000   1.0000   1.0000   1.0000
     1.0000   1.0000   1.0000   1.0000   1.0000   1.0000   1.0000   1.0000
     1.0000   1.0000   1.0000   1.0000   1.0000   1.0000   1.0000   1.0000
     1.0000   1.0000   1.0000   1.0000   1.0000   1.0000   1.0000   1.0000
     1.0000   1.0000   1.0000   1.0000   1.0000   1.0000   1.0000   1.0000
     1.0000   1.0000   1.0000   1.0000   1.0000   1.0000   1.0000   1.0000
     1.0000   1.0000   1.0000   1.0000   1.0000   1.0000   1.0000   1.0000
     1.0000   1.0000   1.0000   1.0000   1.0000   1.0000   1.0000   1.0000
     1.0000   1.0000   1.0000   1.0000   1.0000   1.0000   1.0000   1.0000
     1.0000   1.0000   1.0000   1.0000   1.0000   1.0000   1.0000   1.0000
     1.0000   1.0000   1.0000   1.0000   1.0000   1.0000   1.0000   1.0000
     1.0000   1.0000   1.0000   1.0000   1.0000   0.0000   0.0000   0.0000
     0.0000   0.0000   0.0000   0.0000   0.0000   0.0000   0.0000   0.0000
     0.0000   0.0000   0.0000   0.0000   0.0000   0.0000   0.0000   0.0000
     0.0000   0.0000   0.0000   0.0000   0.0000

          k = 0.0000 0.0000 0.1758 ( 25971 PWs)   bands (ev):

   -81.5935 -67.5433 -67.4525 -67.0391 -66.9503 -66.8802 -48.5877 -47.5573
   -46.8054 -34.3107 -34.2947 -34.2848 -34.2175 -34.2081 -34.1886 -33.7954
   -33.7946 -33.7862 -33.7217 -33.6965 -33.6927 -33.6556 -33.6395 -33.6009
   -22.9337 -22.9238 -15.0120 -14.9839 -14.0841 -14.0596 -13.5644 -13.5371
   -13.3976 -13.2781 -13.2532 -13.0398 -13.0051 -12.7944 -12.7712 -12.7556
   -12.7333 -12.6148 -12.4127 -12.3645 -12.2495 -12.2198 -12.1930 -12.1252
   -11.0315 -10.7996  -6.5157  -6.4918  -6.4343  -6.4220  -6.4000  -6.3988
    -4.2202  -4.1640  -2.3527  -2.3034  -1.8721  -1.3942  -1.1175  -1.0647
    -1.0079  -0.9558  -0.6249  -0.5952  -0.4529  -0.3723  -0.3161  -0.2748
     0.0734   0.1651   0.2477   0.2605   0.6182   0.6319   0.7244   0.8639
     0.9375   1.2465   1.2656   1.3496   1.4639   1.5169   1.6314   1.6835
     1.7805   1.8484   2.0054   2.1250   2.1320   2.1869   2.2245   2.2965
     2.3833   2.4286   2.4528   2.5186   2.6319   2.6810   2.7830   2.7887
     2.8316   2.8670   3.0618   3.0884   3.1138   3.2029   3.3109   3.4164
     3.4494   3.4968   3.5663   3.6090   3.6589   3.7101   3.7548   3.7898
     3.8887   3.9284   3.9732   4.1091   4.1657   4.2232   4.4944   4.6384
     4.7811   5.0438   6.0943   6.5623   6.5710   9.4319  10.1572  11.3090
    11.6657  11.7290  12.1526  12.2501  12.7278  12.8412  13.0092  13.1117
    13.1932  13.2885  13.3650  13.4412  13.5094  13.6807  13.7813  13.8059
    13.9077  14.0218  14.0816  14.3435  14.3529

     occupation numbers 
     1.0000   1.0000   1.0000   1.0000   1.0000   1.0000   1.0000   1.0000
     1.0000   1.0000   1.0000   1.0000   1.0000   1.0000   1.0000   1.0000
     1.0000   1.0000   1.0000   1.0000   1.0000   1.0000   1.0000   1.0000
     1.0000   1.0000   1.0000   1.0000   1.0000   1.0000   1.0000   1.0000
     1.0000   1.0000   1.0000   1.0000   1.0000   1.0000   1.0000   1.0000
     1.0000   1.0000   1.0000   1.0000   1.0000   1.0000   1.0000   1.0000
     1.0000   1.0000   1.0000   1.0000   1.0000   1.0000   1.0000   1.0000
     1.0000   1.0000   1.0000   1.0000   1.0000   1.0000   1.0000   1.0000
     1.0000   1.0000   1.0000   1.0000   1.0000   1.0000   1.0000   1.0000
     1.0000   1.0000   1.0000   1.0000   1.0000   1.0000   1.0000   1.0000
     1.0000   1.0000   1.0000   1.0000   1.0000   1.0000   1.0000   1.0000
     1.0000   1.0000   1.0000   1.0000   1.0000   1.0000   1.0000   1.0000
     1.0000   1.0000   1.0000   1.0000   1.0000   1.0000   1.0000   1.0000
     1.0000   1.0000   1.0000   1.0000   1.0000   1.0000   1.0000   1.0000
     1.0000   1.0000   1.0000   1.0000   1.0000   1.0000   1.0000   1.0000
     1.0000   1.0000   1.0000   1.0000   1.0000   1.0000   1.0000   1.0000
     1.0000   1.0000   1.0000   1.0000   1.0000   0.0000   0.0000   0.0000
     0.0000   0.0000   0.0000   0.0000   0.0000   0.0000   0.0000   0.0000
     0.0000   0.0000   0.0000   0.0000   0.0000   0.0000   0.0000   0.0000
     0.0000   0.0000   0.0000   0.0000   0.0000

          k = 0.0000 0.1921 0.0000 ( 25933 PWs)   bands (ev):

   -81.5934 -67.5433 -67.4525 -67.0391 -66.9503 -66.8802 -48.5877 -47.5573
   -46.8054 -34.3107 -34.2947 -34.2848 -34.2175 -34.2081 -34.1886 -33.7954
   -33.7945 -33.7862 -33.7217 -33.6965 -33.6927 -33.6556 -33.6395 -33.6009
   -22.9337 -22.9238 -15.0205 -14.9644 -14.1286 -14.0770 -13.5634 -13.5385
   -13.3812 -13.2099 -13.1396 -13.0502 -13.0013 -12.8814 -12.8692 -12.7390
   -12.7304 -12.6126 -12.4165 -12.3526 -12.2424 -12.2303 -12.1896 -12.1139
   -11.0306 -10.7982  -6.5107  -6.4970  -6.4336  -6.4181  -6.4035  -6.3999
    -4.1799  -4.1247  -2.5179  -2.4133  -1.8667  -1.4115  -1.0263  -1.0022
    -0.9485  -0.8814  -0.7395  -0.6586  -0.4160  -0.3026  -0.2569  -0.1528
    -0.0435   0.1874   0.2066   0.4126   0.5704   0.5735   0.6956   0.8670
     0.9163   1.1202   1.2450   1.3075   1.4319   1.5651   1.6242   1.7173
     1.7829   1.9530   1.9558   2.0901   2.1417   2.2088   2.2107   2.3983
     2.4084   2.4513   2.5004   2.5063   2.5995   2.7056   2.7702   2.8471
     2.8778   2.9200   3.0300   3.0784   3.1674   3.1755   3.3109   3.4209
     3.4559   3.4742   3.4796   3.5650   3.6367   3.6559   3.7851   3.8704
     3.9266   3.9267   3.9479   4.0505   4.1782   4.2317   4.3120   4.6233
     4.7912   5.0295   6.1035   6.5435   6.5754   9.5180  10.4506  10.8720
    11.4496  11.8532  12.3298  12.5742  12.6006  12.8065  12.9441  13.0725
    13.1632  13.2961  13.3565  13.4678  13.4977  13.6377  13.6662  13.7733
    13.7824  13.8259  14.3506  14.3575  14.5214

     occupation numbers 
     1.0000   1.0000   1.0000   1.0000   1.0000   1.0000   1.0000   1.0000
     1.0000   1.0000   1.0000   1.0000   1.0000   1.0000   1.0000   1.0000
     1.0000   1.0000   1.0000   1.0000   1.0000   1.0000   1.0000   1.0000
     1.0000   1.0000   1.0000   1.0000   1.0000   1.0000   1.0000   1.0000
     1.0000   1.0000   1.0000   1.0000   1.0000   1.0000   1.0000   1.0000
     1.0000   1.0000   1.0000   1.0000   1.0000   1.0000   1.0000   1.0000
     1.0000   1.0000   1.0000   1.0000   1.0000   1.0000   1.0000   1.0000
     1.0000   1.0000   1.0000   1.0000   1.0000   1.0000   1.0000   1.0000
     1.0000   1.0000   1.0000   1.0000   1.0000   1.0000   1.0000   1.0000
     1.0000   1.0000   1.0000   1.0000   1.0000   1.0000   1.0000   1.0000
     1.0000   1.0000   1.0000   1.0000   1.0000   1.0000   1.0000   1.0000
     1.0000   1.0000   1.0000   1.0000   1.0000   1.0000   1.0000   1.0000
     1.0000   1.0000   1.0000   1.0000   1.0000   1.0000   1.0000   1.0000
     1.0000   1.0000   1.0000   1.0000   1.0000   1.0000   1.0000   1.0000
     1.0000   1.0000   1.0000   1.0000   1.0000   1.0000   1.0000   1.0000
     1.0000   1.0000   1.0000   1.0000   1.0000   1.0000   1.0000   1.0000
     1.0000   1.0000   1.0000   1.0000   1.0000   0.0000   0.0000   0.0000
     0.0000   0.0000   0.0000   0.0000   0.0000   0.0000   0.0000   0.0000
     0.0000   0.0000   0.0000   0.0000   0.0000   0.0000   0.0000   0.0000
     0.0000   0.0000   0.0000   0.0000   0.0000

          k = 0.0000 0.1921 0.1758 ( 25924 PWs)   bands (ev):

   -81.5934 -67.5433 -67.4525 -67.0391 -66.9503 -66.8802 -48.5877 -47.5573
   -46.8054 -34.3107 -34.2947 -34.2848 -34.2175 -34.2081 -34.1886 -33.7954
   -33.7945 -33.7862 -33.7217 -33.6964 -33.6927 -33.6556 -33.6395 -33.6009
   -22.9337 -22.9238 -15.0070 -14.9789 -14.1162 -14.0904 -13.5646 -13.5371
   -13.3786 -13.1975 -13.1579 -13.0409 -13.0031 -12.8977 -12.8537 -12.7351
   -12.7324 -12.6167 -12.4100 -12.3598 -12.2443 -12.2156 -12.1923 -12.1225
   -11.0303 -10.7990  -6.5108  -6.4970  -6.4336  -6.4180  -6.4034  -6.3999
    -4.1779  -4.1270  -2.4950  -2.4387  -1.8474  -1.3896  -1.0160  -1.0027
    -0.9388  -0.9046  -0.7164  -0.6758  -0.4471  -0.3257  -0.2565  -0.2029
    -0.0024   0.1313   0.1957   0.3670   0.5663   0.5733   0.7449   0.8445
     0.9725   1.1471   1.1837   1.3554   1.5057   1.5633   1.6771   1.7677
     1.8288   1.8954   1.9910   2.0543   2.1468   2.1979   2.2579   2.3376
     2.3908   2.4652   2.4940   2.5240   2.5624   2.6776   2.7536   2.7952
     2.8624   2.9166   3.0463   3.0858   3.1602   3.1877   3.3371   3.3674
     3.4482   3.4767   3.5162   3.5683   3.6138   3.6813   3.7644   3.8498
     3.9045   3.9308   3.9588   4.0754   4.1822   4.2259   4.3325   4.6310
     4.7857   5.0256   6.1042   6.5334   6.5782   9.7923  10.4386  10.6489
    11.1431  11.8409  12.3151  12.6037  12.7738  12.9137  13.0486  13.1538
    13.1888  13.2984  13.3841  13.4441  13.5674  13.5812  13.6562  13.7412
    13.7907  13.9434  14.2210  14.3418  14.4231

     occupation numbers 
     1.0000   1.0000   1.0000   1.0000   1.0000   1.0000   1.0000   1.0000
     1.0000   1.0000   1.0000   1.0000   1.0000   1.0000   1.0000   1.0000
     1.0000   1.0000   1.0000   1.0000   1.0000   1.0000   1.0000   1.0000
     1.0000   1.0000   1.0000   1.0000   1.0000   1.0000   1.0000   1.0000
     1.0000   1.0000   1.0000   1.0000   1.0000   1.0000   1.0000   1.0000
     1.0000   1.0000   1.0000   1.0000   1.0000   1.0000   1.0000   1.0000
     1.0000   1.0000   1.0000   1.0000   1.0000   1.0000   1.0000   1.0000
     1.0000   1.0000   1.0000   1.0000   1.0000   1.0000   1.0000   1.0000
     1.0000   1.0000   1.0000   1.0000   1.0000   1.0000   1.0000   1.0000
     1.0000   1.0000   1.0000   1.0000   1.0000   1.0000   1.0000   1.0000
     1.0000   1.0000   1.0000   1.0000   1.0000   1.0000   1.0000   1.0000
     1.0000   1.0000   1.0000   1.0000   1.0000   1.0000   1.0000   1.0000
     1.0000   1.0000   1.0000   1.0000   1.0000   1.0000   1.0000   1.0000
     1.0000   1.0000   1.0000   1.0000   1.0000   1.0000   1.0000   1.0000
     1.0000   1.0000   1.0000   1.0000   1.0000   1.0000   1.0000   1.0000
     1.0000   1.0000   1.0000   1.0000   1.0000   1.0000   1.0000   1.0000
     1.0000   1.0000   1.0000   1.0000   1.0000   0.0000   0.0000   0.0000
     0.0000   0.0000   0.0000   0.0000   0.0000   0.0000   0.0000   0.0000
     0.0000   0.0000   0.0000   0.0000   0.0000   0.0000   0.0000   0.0000
     0.0000   0.0000   0.0000   0.0000   0.0000

          k = 0.1667 0.0000 0.0301 ( 25941 PWs)   bands (ev):

   -81.5934 -67.5433 -67.4525 -67.0391 -66.9503 -66.8802 -48.5877 -47.5573
   -46.8054 -34.3105 -34.2949 -34.2847 -34.2177 -34.2080 -34.1887 -33.7954
   -33.7945 -33.7862 -33.7216 -33.6964 -33.6928 -33.6551 -33.6397 -33.6012
   -22.9335 -22.9237 -14.9673 -14.9124 -14.1112 -14.0665 -13.6824 -13.6487
   -13.3696 -13.2211 -13.1549 -13.0389 -13.0002 -12.8099 -12.7708 -12.7447
   -12.7320 -12.6217 -12.4393 -12.3733 -12.3065 -12.2463 -12.2028 -12.0979
   -11.0293 -10.8038  -6.5152  -6.4960  -6.4329  -6.4201  -6.4006  -6.3954
    -4.0633  -4.0056  -2.3441  -2.2462  -1.8671  -1.4645  -1.3604  -1.2478
    -0.8422  -0.7456  -0.6876  -0.6267  -0.4183  -0.3813  -0.2889  -0.1809
     0.0603   0.1674   0.2633   0.3382   0.5447   0.6489   0.6893   0.7449
     1.0810   1.1682   1.2796   1.3486   1.3899   1.4953   1.5218   1.6791
     1.7372   1.8962   1.9502   1.9934   2.1266   2.1847   2.3022   2.3276
     2.3522   2.4813   2.5041   2.5695   2.6281   2.7130   2.7452   2.8072
     2.9117   2.9475   2.9664   3.0801   3.1798   3.2254   3.2789   3.3711
     3.4026   3.4316   3.5463   3.5941   3.6334   3.7014   3.7242   3.8449
     3.8676   3.8843   3.9310   4.0218   4.1189   4.2660   4.4790   4.5444
     4.8012   5.0076   6.0983   6.5675   6.5785   9.4427  10.8159  11.2902
    11.7397  11.9097  12.1849  12.4219  12.5766  12.7432  12.9520  13.0324
    13.1536  13.2674  13.2929  13.5360  13.5905  13.6274  13.6988  13.8029
    13.8937  14.0779  14.1928  14.2679  14.4215

     occupation numbers 
     1.0000   1.0000   1.0000   1.0000   1.0000   1.0000   1.0000   1.0000
     1.0000   1.0000   1.0000   1.0000   1.0000   1.0000   1.0000   1.0000
     1.0000   1.0000   1.0000   1.0000   1.0000   1.0000   1.0000   1.0000
     1.0000   1.0000   1.0000   1.0000   1.0000   1.0000   1.0000   1.0000
     1.0000   1.0000   1.0000   1.0000   1.0000   1.0000   1.0000   1.0000
     1.0000   1.0000   1.0000   1.0000   1.0000   1.0000   1.0000   1.0000
     1.0000   1.0000   1.0000   1.0000   1.0000   1.0000   1.0000   1.0000
     1.0000   1.0000   1.0000   1.0000   1.0000   1.0000   1.0000   1.0000
     1.0000   1.0000   1.0000   1.0000   1.0000   1.0000   1.0000   1.0000
     1.0000   1.0000   1.0000   1.0000   1.0000   1.0000   1.0000   1.0000
     1.0000   1.0000   1.0000   1.0000   1.0000   1.0000   1.0000   1.0000
     1.0000   1.0000   1.0000   1.0000   1.0000   1.0000   1.0000   1.0000
     1.0000   1.0000   1.0000   1.0000   1.0000   1.0000   1.0000   1.0000
     1.0000   1.0000   1.0000   1.0000   1.0000   1.0000   1.0000   1.0000
     1.0000   1.0000   1.0000   1.0000   1.0000   1.0000   1.0000   1.0000
     1.0000   1.0000   1.0000   1.0000   1.0000   1.0000   1.0000   1.0000
     1.0000   1.0000   1.0000   1.0000   1.0000   0.0000   0.0000   0.0000
     0.0000   0.0000   0.0000   0.0000   0.0000   0.0000   0.0000   0.0000
     0.0000   0.0000   0.0000   0.0000   0.0000   0.0000   0.0000   0.0000
     0.0000   0.0000   0.0000   0.0000   0.0000

          k = 0.1667 0.0000 0.2059 ( 25961 PWs)   bands (ev):

   -81.5935 -67.5433 -67.4525 -67.0391 -66.9503 -66.8802 -48.5877 -47.5573
   -46.8054 -34.3105 -34.2949 -34.2848 -34.2177 -34.2080 -34.1887 -33.7954
   -33.7945 -33.7862 -33.7216 -33.6964 -33.6928 -33.6551 -33.6397 -33.6012
   -22.9335 -22.9237 -14.9502 -14.9305 -14.1009 -14.0774 -13.6789 -13.6524
   -13.3658 -13.2117 -13.1702 -13.0364 -12.9981 -12.8118 -12.7739 -12.7382
   -12.7315 -12.6253 -12.4335 -12.3811 -12.2979 -12.2555 -12.1876 -12.1097
   -11.0288 -10.8047  -6.5154  -6.4960  -6.4328  -6.4201  -6.4005  -6.3954
    -4.0694  -3.9995  -2.3241  -2.2708  -1.8408  -1.4350  -1.3978  -1.2257
    -0.8400  -0.7474  -0.7065  -0.5942  -0.4267  -0.3665  -0.3144  -0.2684
     0.1009   0.1728   0.2178   0.2771   0.5230   0.6472   0.6859   0.7888
     1.1438   1.2238   1.2354   1.3590   1.3927   1.5161   1.5772   1.6642
     1.8041   1.8712   1.9449   2.0251   2.1303   2.2367   2.2832   2.3399
     2.3626   2.4275   2.4619   2.5479   2.6015   2.6973   2.7429   2.7965
     2.8904   2.9091   3.0187   3.1145   3.1599   3.1894   3.2780   3.3611
     3.4057   3.4326   3.5361   3.5724   3.6456   3.6752   3.7642   3.8216
     3.8806   3.8926   3.9401   4.0700   4.1188   4.2221   4.4818   4.5659
     4.7954   5.0075   6.0984   6.5660   6.5718   9.8134  10.2663  11.3714
    11.7744  11.7900  12.2380  12.3227  12.5503  12.8627  13.0485  13.1384
    13.2411  13.3563  13.3694  13.3921  13.5423  13.6430  13.7035  13.7988
    13.8915  13.9633  14.1309  14.3097  14.4113

     occupation numbers 
     1.0000   1.0000   1.0000   1.0000   1.0000   1.0000   1.0000   1.0000
     1.0000   1.0000   1.0000   1.0000   1.0000   1.0000   1.0000   1.0000
     1.0000   1.0000   1.0000   1.0000   1.0000   1.0000   1.0000   1.0000
     1.0000   1.0000   1.0000   1.0000   1.0000   1.0000   1.0000   1.0000
     1.0000   1.0000   1.0000   1.0000   1.0000   1.0000   1.0000   1.0000
     1.0000   1.0000   1.0000   1.0000   1.0000   1.0000   1.0000   1.0000
     1.0000   1.0000   1.0000   1.0000   1.0000   1.0000   1.0000   1.0000
     1.0000   1.0000   1.0000   1.0000   1.0000   1.0000   1.0000   1.0000
     1.0000   1.0000   1.0000   1.0000   1.0000   1.0000   1.0000   1.0000
     1.0000   1.0000   1.0000   1.0000   1.0000   1.0000   1.0000   1.0000
     1.0000   1.0000   1.0000   1.0000   1.0000   1.0000   1.0000   1.0000
     1.0000   1.0000   1.0000   1.0000   1.0000   1.0000   1.0000   1.0000
     1.0000   1.0000   1.0000   1.0000   1.0000   1.0000   1.0000   1.0000
     1.0000   1.0000   1.0000   1.0000   1.0000   1.0000   1.0000   1.0000
     1.0000   1.0000   1.0000   1.0000   1.0000   1.0000   1.0000   1.0000
     1.0000   1.0000   1.0000   1.0000   1.0000   1.0000   1.0000   1.0000
     1.0000   1.0000   1.0000   1.0000   1.0000   0.0000   0.0000   0.0000
     0.0000   0.0000   0.0000   0.0000   0.0000   0.0000   0.0000   0.0000
     0.0000   0.0000   0.0000   0.0000   0.0000   0.0000   0.0000   0.0000
     0.0000   0.0000   0.0000   0.0000   0.0000

          k = 0.1667 0.0000-0.1457 ( 25956 PWs)   bands (ev):

   -81.5934 -67.5433 -67.4525 -67.0391 -66.9503 -66.8802 -48.5877 -47.5573
   -46.8054 -34.3105 -34.2949 -34.2848 -34.2177 -34.2080 -34.1887 -33.7954
   -33.7945 -33.7862 -33.7216 -33.6964 -33.6928 -33.6551 -33.6397 -33.6012
   -22.9335 -22.9237 -14.9578 -14.9226 -14.1027 -14.0756 -13.6766 -13.6548
   -13.3674 -13.2057 -13.1749 -13.0389 -12.9967 -12.7993 -12.7867 -12.7414
   -12.7272 -12.6268 -12.4283 -12.3852 -12.2861 -12.2695 -12.1872 -12.1075
   -11.0286 -10.8046  -6.5154  -6.4961  -6.4328  -6.4200  -6.4005  -6.3954
    -4.0528  -4.0165  -2.3203  -2.2729  -1.8512  -1.4484  -1.3843  -1.2288
    -0.8274  -0.7667  -0.6992  -0.5819  -0.4303  -0.3684  -0.3011  -0.2673
     0.0622   0.1968   0.2166   0.2853   0.5705   0.6616   0.6981   0.7806
     1.0926   1.1931   1.2259   1.3513   1.4020   1.5305   1.5962   1.6518
     1.7941   1.8681   1.9183   2.0603   2.0995   2.2126   2.2760   2.3289
     2.3580   2.4476   2.5141   2.5469   2.5898   2.6818   2.7394   2.7782
     2.8788   2.9428   3.0374   3.1391   3.1584   3.2166   3.2730   3.3785
     3.4503   3.4814   3.5423   3.5588   3.6153   3.6664   3.7164   3.7834
     3.8592   3.8801   3.9351   4.0552   4.1483   4.2442   4.4859   4.5608
     4.7910   5.0087   6.0984   6.5651   6.5765   9.6316  10.5002  11.4100
    11.7533  11.8484  12.2684  12.3117  12.5969  12.8562  12.9705  13.0704
    13.2071  13.2745  13.2897  13.4165  13.5287  13.6300  13.6920  13.8093
    13.8861  14.1329  14.1998  14.2810  14.3762

     occupation numbers 
     1.0000   1.0000   1.0000   1.0000   1.0000   1.0000   1.0000   1.0000
     1.0000   1.0000   1.0000   1.0000   1.0000   1.0000   1.0000   1.0000
     1.0000   1.0000   1.0000   1.0000   1.0000   1.0000   1.0000   1.0000
     1.0000   1.0000   1.0000   1.0000   1.0000   1.0000   1.0000   1.0000
     1.0000   1.0000   1.0000   1.0000   1.0000   1.0000   1.0000   1.0000
     1.0000   1.0000   1.0000   1.0000   1.0000   1.0000   1.0000   1.0000
     1.0000   1.0000   1.0000   1.0000   1.0000   1.0000   1.0000   1.0000
     1.0000   1.0000   1.0000   1.0000   1.0000   1.0000   1.0000   1.0000
     1.0000   1.0000   1.0000   1.0000   1.0000   1.0000   1.0000   1.0000
     1.0000   1.0000   1.0000   1.0000   1.0000   1.0000   1.0000   1.0000
     1.0000   1.0000   1.0000   1.0000   1.0000   1.0000   1.0000   1.0000
     1.0000   1.0000   1.0000   1.0000   1.0000   1.0000   1.0000   1.0000
     1.0000   1.0000   1.0000   1.0000   1.0000   1.0000   1.0000   1.0000
     1.0000   1.0000   1.0000   1.0000   1.0000   1.0000   1.0000   1.0000
     1.0000   1.0000   1.0000   1.0000   1.0000   1.0000   1.0000   1.0000
     1.0000   1.0000   1.0000   1.0000   1.0000   1.0000   1.0000   1.0000
     1.0000   1.0000   1.0000   1.0000   1.0000   0.0000   0.0000   0.0000
     0.0000   0.0000   0.0000   0.0000   0.0000   0.0000   0.0000   0.0000
     0.0000   0.0000   0.0000   0.0000   0.0000   0.0000   0.0000   0.0000
     0.0000   0.0000   0.0000   0.0000   0.0000

          k = 0.1667 0.1921 0.0301 ( 25937 PWs)   bands (ev):

   -81.5934 -67.5433 -67.4525 -67.0391 -66.9503 -66.8802 -48.5877 -47.5573
   -46.8054 -34.3105 -34.2949 -34.2847 -34.2177 -34.2080 -34.1887 -33.7954
   -33.7944 -33.7862 -33.7216 -33.6964 -33.6928 -33.6551 -33.6397 -33.6012
   -22.9335 -22.9237 -14.9625 -14.9077 -14.1403 -14.0923 -13.6696 -13.6392
   -13.3592 -13.1687 -13.0905 -13.0251 -12.9964 -12.8741 -12.8498 -12.7510
   -12.7265 -12.6236 -12.4371 -12.3630 -12.2984 -12.2488 -12.2004 -12.0968
   -11.0283 -10.8034  -6.5113  -6.5005  -6.4327  -6.4168  -6.4033  -6.3959
    -4.0271  -3.9687  -2.4981  -2.3955  -1.8252  -1.4006  -1.2278  -1.1996
    -0.8496  -0.7613  -0.7337  -0.6526  -0.4180  -0.2879  -0.2432  -0.1327
     0.0207   0.1588   0.1937   0.3860   0.5006   0.6297   0.6614   0.7416
     1.0690   1.1247   1.2686   1.3415   1.3818   1.4803   1.5868   1.6490
     1.7727   1.9113   1.9528   2.0549   2.1419   2.1852   2.2708   2.3811
     2.4109   2.4673   2.5078   2.5841   2.6108   2.7006   2.7361   2.8299
     2.9173   2.9771   3.0382   3.1072   3.1634   3.2035   3.2736   3.3531
     3.4189   3.4570   3.4896   3.5417   3.6313   3.6487   3.7574   3.8018
     3.8262   3.8939   3.9539   4.0192   4.1171   4.2560   4.3473   4.5736
     4.8081   4.9910   6.1062   6.5476   6.5813   9.7948  10.6322  11.0234
    11.5409  11.8996  12.2999  12.6249  12.6606  12.7997  12.9814  13.0359
    13.1454  13.2968  13.3290  13.4407  13.4840  13.5962  13.6925  13.7525
    13.9152  13.9844  14.2868  14.3861  14.5583

     occupation numbers 
     1.0000   1.0000   1.0000   1.0000   1.0000   1.0000   1.0000   1.0000
     1.0000   1.0000   1.0000   1.0000   1.0000   1.0000   1.0000   1.0000
     1.0000   1.0000   1.0000   1.0000   1.0000   1.0000   1.0000   1.0000
     1.0000   1.0000   1.0000   1.0000   1.0000   1.0000   1.0000   1.0000
     1.0000   1.0000   1.0000   1.0000   1.0000   1.0000   1.0000   1.0000
     1.0000   1.0000   1.0000   1.0000   1.0000   1.0000   1.0000   1.0000
     1.0000   1.0000   1.0000   1.0000   1.0000   1.0000   1.0000   1.0000
     1.0000   1.0000   1.0000   1.0000   1.0000   1.0000   1.0000   1.0000
     1.0000   1.0000   1.0000   1.0000   1.0000   1.0000   1.0000   1.0000
     1.0000   1.0000   1.0000   1.0000   1.0000   1.0000   1.0000   1.0000
     1.0000   1.0000   1.0000   1.0000   1.0000   1.0000   1.0000   1.0000
     1.0000   1.0000   1.0000   1.0000   1.0000   1.0000   1.0000   1.0000
     1.0000   1.0000   1.0000   1.0000   1.0000   1.0000   1.0000   1.0000
     1.0000   1.0000   1.0000   1.0000   1.0000   1.0000   1.0000   1.0000
     1.0000   1.0000   1.0000   1.0000   1.0000   1.0000   1.0000   1.0000
     1.0000   1.0000   1.0000   1.0000   1.0000   1.0000   1.0000   1.0000
     1.0000   1.0000   1.0000   1.0000   1.0000   0.0000   0.0000   0.0000
     0.0000   0.0000   0.0000   0.0000   0.0000   0.0000   0.0000   0.0000
     0.0000   0.0000   0.0000   0.0000   0.0000   0.0000   0.0000   0.0000
     0.0000   0.0000   0.0000   0.0000   0.0000

          k = 0.1667 0.1921 0.2059 ( 25944 PWs)   bands (ev):

   -81.5934 -67.5433 -67.4525 -67.0391 -66.9503 -66.8802 -48.5877 -47.5573
   -46.8054 -34.3105 -34.2949 -34.2848 -34.2177 -34.2080 -34.1887 -33.7954
   -33.7944 -33.7862 -33.7216 -33.6964 -33.6928 -33.6551 -33.6397 -33.6012
   -22.9335 -22.9237 -14.9454 -14.9258 -14.1275 -14.1060 -13.6680 -13.6408
   -13.3564 -13.1565 -13.1089 -13.0230 -12.9899 -12.8890 -12.8359 -12.7481
   -12.7284 -12.6272 -12.4323 -12.3706 -12.2931 -12.2538 -12.1860 -12.1084
   -11.0278 -10.8042  -6.5114  -6.5006  -6.4326  -6.4167  -6.4032  -6.3958
    -4.0298  -3.9660  -2.4742  -2.4223  -1.8058  -1.3755  -1.2519  -1.1827
    -0.8469  -0.7752  -0.7231  -0.6321  -0.4306  -0.3606  -0.2240  -0.1715
     0.0508   0.1071   0.2144   0.3289   0.4908   0.6260   0.6621   0.7673
     1.0958   1.1352   1.2390   1.3814   1.4211   1.5347   1.6281   1.7175
     1.8033   1.8558   1.9308   2.0624   2.0810   2.2324   2.2816   2.3877
     2.4165   2.4598   2.5085   2.5651   2.5829   2.6656   2.7531   2.7936
     2.8841   2.9432   3.0475   3.0951   3.1693   3.2182   3.3046   3.3332
     3.3901   3.4478   3.4935   3.5584   3.6157   3.6600   3.7290   3.7858
     3.8424   3.9335   3.9432   4.0546   4.1278   4.2233   4.3667   4.5878
     4.8013   4.9888   6.1067   6.5392   6.5812  10.1133  10.5403  10.8453
    11.2225  11.8765  12.2773  12.6364  12.7321  12.8643  13.0726  13.2033
    13.2554  13.3398  13.3804  13.4086  13.5290  13.6194  13.6915  13.7285
    13.8419  13.9600  14.1876  14.2632  14.4951

     occupation numbers 
     1.0000   1.0000   1.0000   1.0000   1.0000   1.0000   1.0000   1.0000
     1.0000   1.0000   1.0000   1.0000   1.0000   1.0000   1.0000   1.0000
     1.0000   1.0000   1.0000   1.0000   1.0000   1.0000   1.0000   1.0000
     1.0000   1.0000   1.0000   1.0000   1.0000   1.0000   1.0000   1.0000
     1.0000   1.0000   1.0000   1.0000   1.0000   1.0000   1.0000   1.0000
     1.0000   1.0000   1.0000   1.0000   1.0000   1.0000   1.0000   1.0000
     1.0000   1.0000   1.0000   1.0000   1.0000   1.0000   1.0000   1.0000
     1.0000   1.0000   1.0000   1.0000   1.0000   1.0000   1.0000   1.0000
     1.0000   1.0000   1.0000   1.0000   1.0000   1.0000   1.0000   1.0000
     1.0000   1.0000   1.0000   1.0000   1.0000   1.0000   1.0000   1.0000
     1.0000   1.0000   1.0000   1.0000   1.0000   1.0000   1.0000   1.0000
     1.0000   1.0000   1.0000   1.0000   1.0000   1.0000   1.0000   1.0000
     1.0000   1.0000   1.0000   1.0000   1.0000   1.0000   1.0000   1.0000
     1.0000   1.0000   1.0000   1.0000   1.0000   1.0000   1.0000   1.0000
     1.0000   1.0000   1.0000   1.0000   1.0000   1.0000   1.0000   1.0000
     1.0000   1.0000   1.0000   1.0000   1.0000   1.0000   1.0000   1.0000
     1.0000   1.0000   1.0000   1.0000   1.0000   0.0000   0.0000   0.0000
     0.0000   0.0000   0.0000   0.0000   0.0000   0.0000   0.0000   0.0000
     0.0000   0.0000   0.0000   0.0000   0.0000   0.0000   0.0000   0.0000
     0.0000   0.0000   0.0000   0.0000   0.0000

          k = 0.1667 0.1921-0.1457 ( 25923 PWs)   bands (ev):

   -81.5934 -67.5433 -67.4525 -67.0391 -66.9503 -66.8802 -48.5877 -47.5573
   -46.8054 -34.3105 -34.2949 -34.2847 -34.2177 -34.2080 -34.1887 -33.7954
   -33.7944 -33.7862 -33.7216 -33.6964 -33.6928 -33.6551 -33.6397 -33.6012
   -22.9335 -22.9237 -14.9530 -14.9179 -14.1309 -14.1024 -13.6644 -13.6448
   -13.3573 -13.1577 -13.1045 -13.0271 -12.9900 -12.8807 -12.8454 -12.7494
   -12.7249 -12.6282 -12.4271 -12.3740 -12.2798 -12.2699 -12.1855 -12.1063
   -11.0276 -10.8042  -6.5115  -6.5006  -6.4326  -6.4167  -6.4032  -6.3959
    -4.0143  -3.9820  -2.4746  -2.4212  -1.8133  -1.3850  -1.2488  -1.1809
    -0.8309  -0.7837  -0.7130  -0.6468  -0.4325  -0.3288  -0.2445  -0.1600
     0.0311   0.1240   0.1763   0.3649   0.5252   0.6247   0.7028   0.7529
     1.0675   1.1074   1.2329   1.3680   1.4166   1.5176   1.6180   1.7181
     1.7932   1.8975   1.9332   2.0397   2.1141   2.1890   2.2927   2.3687
     2.4117   2.4475   2.4896   2.5770   2.6083   2.6878   2.7492   2.7840
     2.8757   2.9573   3.0671   3.1286   3.1687   3.2000   3.3150   3.3602
     3.4242   3.4478   3.5058   3.5583   3.5994   3.6671   3.7286   3.7761
     3.8360   3.8729   3.9228   4.0703   4.1250   4.2309   4.3667   4.5831
     4.7986   4.9921   6.1067   6.5376   6.5852   9.9712  10.7230  10.7962
    11.3272  11.9508  12.3218  12.5811  12.7141  12.8598  13.0093  13.0790
    13.1967  13.2884  13.3744  13.4089  13.5149  13.6137  13.6769  13.8358
    13.8967  13.9277  14.1527  14.3338  14.5091

     occupation numbers 
     1.0000   1.0000   1.0000   1.0000   1.0000   1.0000   1.0000   1.0000
     1.0000   1.0000   1.0000   1.0000   1.0000   1.0000   1.0000   1.0000
     1.0000   1.0000   1.0000   1.0000   1.0000   1.0000   1.0000   1.0000
     1.0000   1.0000   1.0000   1.0000   1.0000   1.0000   1.0000   1.0000
     1.0000   1.0000   1.0000   1.0000   1.0000   1.0000   1.0000   1.0000
     1.0000   1.0000   1.0000   1.0000   1.0000   1.0000   1.0000   1.0000
     1.0000   1.0000   1.0000   1.0000   1.0000   1.0000   1.0000   1.0000
     1.0000   1.0000   1.0000   1.0000   1.0000   1.0000   1.0000   1.0000
     1.0000   1.0000   1.0000   1.0000   1.0000   1.0000   1.0000   1.0000
     1.0000   1.0000   1.0000   1.0000   1.0000   1.0000   1.0000   1.0000
     1.0000   1.0000   1.0000   1.0000   1.0000   1.0000   1.0000   1.0000
     1.0000   1.0000   1.0000   1.0000   1.0000   1.0000   1.0000   1.0000
     1.0000   1.0000   1.0000   1.0000   1.0000   1.0000   1.0000   1.0000
     1.0000   1.0000   1.0000   1.0000   1.0000   1.0000   1.0000   1.0000
     1.0000   1.0000   1.0000   1.0000   1.0000   1.0000   1.0000   1.0000
     1.0000   1.0000   1.0000   1.0000   1.0000   1.0000   1.0000   1.0000
     1.0000   1.0000   1.0000   1.0000   1.0000   0.0000   0.0000   0.0000
     0.0000   0.0000   0.0000   0.0000   0.0000   0.0000   0.0000   0.0000
     0.0000   0.0000   0.0000   0.0000   0.0000   0.0000   0.0000   0.0000
     0.0000   0.0000   0.0000   0.0000   0.0000

          k = 0.3333 0.0000 0.0601 ( 25907 PWs)   bands (ev):

   -81.5934 -67.5433 -67.4525 -67.0391 -66.9502 -66.8802 -48.5877 -47.5573
   -46.8054 -34.3101 -34.2953 -34.2846 -34.2179 -34.2077 -34.1887 -33.7953
   -33.7945 -33.7862 -33.7214 -33.6962 -33.6931 -33.6542 -33.6402 -33.6017
   -22.9332 -22.9234 -14.8073 -14.7568 -14.2263 -14.1869 -13.8075 -13.7705
   -13.3144 -13.1080 -13.0761 -13.0135 -12.9481 -12.8628 -12.7896 -12.7479
   -12.7343 -12.6321 -12.4976 -12.4375 -12.3707 -12.2902 -12.1873 -12.0896
   -11.0249 -10.8142  -6.5146  -6.5051  -6.4300  -6.4155  -6.4023  -6.3881
    -3.6580  -3.5905  -2.4711  -2.3620  -1.8013  -1.6064  -1.4549  -1.2072
    -0.9332  -0.7006  -0.6579  -0.6189  -0.4176  -0.3306  -0.1892  -0.1718
    -0.0241   0.1315   0.3049   0.3963   0.5415   0.6370   0.6786   0.6888
     0.9962   1.1590   1.2624   1.3251   1.3933   1.4697   1.5874   1.5983
     1.6676   1.7167   1.8654   1.9800   2.0987   2.2150   2.3153   2.3648
     2.4318   2.4709   2.5753   2.6096   2.6940   2.7412   2.8027   2.8686
     2.8925   2.9564   3.0095   3.0827   3.1552   3.2261   3.2460   3.2770
     3.2920   3.3924   3.4527   3.5283   3.6016   3.6501   3.6738   3.7374
     3.7912   3.8252   3.9638   4.0169   4.0513   4.3123   4.4055   4.4671
     4.8196   4.9290   6.1046   6.5772   6.5878  10.2197  11.2280  11.4154
    11.9338  11.9807  12.2439  12.3101  12.6641  12.7468  12.7763  13.0311
    13.1506  13.2102  13.3253  13.5139  13.5600  13.6213  13.7228  13.9393
    14.0291  14.1360  14.2416  14.3193  14.4442

     occupation numbers 
     1.0000   1.0000   1.0000   1.0000   1.0000   1.0000   1.0000   1.0000
     1.0000   1.0000   1.0000   1.0000   1.0000   1.0000   1.0000   1.0000
     1.0000   1.0000   1.0000   1.0000   1.0000   1.0000   1.0000   1.0000
     1.0000   1.0000   1.0000   1.0000   1.0000   1.0000   1.0000   1.0000
     1.0000   1.0000   1.0000   1.0000   1.0000   1.0000   1.0000   1.0000
     1.0000   1.0000   1.0000   1.0000   1.0000   1.0000   1.0000   1.0000
     1.0000   1.0000   1.0000   1.0000   1.0000   1.0000   1.0000   1.0000
     1.0000   1.0000   1.0000   1.0000   1.0000   1.0000   1.0000   1.0000
     1.0000   1.0000   1.0000   1.0000   1.0000   1.0000   1.0000   1.0000
     1.0000   1.0000   1.0000   1.0000   1.0000   1.0000   1.0000   1.0000
     1.0000   1.0000   1.0000   1.0000   1.0000   1.0000   1.0000   1.0000
     1.0000   1.0000   1.0000   1.0000   1.0000   1.0000   1.0000   1.0000
     1.0000   1.0000   1.0000   1.0000   1.0000   1.0000   1.0000   1.0000
     1.0000   1.0000   1.0000   1.0000   1.0000   1.0000   1.0000   1.0000
     1.0000   1.0000   1.0000   1.0000   1.0000   1.0000   1.0000   1.0000
     1.0000   1.0000   1.0000   1.0000   1.0000   1.0000   1.0000   1.0000
     1.0000   1.0000   1.0000   1.0000   1.0000   0.0000   0.0000   0.0000
     0.0000   0.0000   0.0000   0.0000   0.0000   0.0000   0.0000   0.0000
     0.0000   0.0000   0.0000   0.0000   0.0000   0.0000   0.0000   0.0000
     0.0000   0.0000   0.0000   0.0000   0.0000

          k = 0.3333 0.0000 0.2360 ( 25948 PWs)   bands (ev):

   -81.5934 -67.5433 -67.4525 -67.0391 -66.9502 -66.8802 -48.5877 -47.5573
   -46.8054 -34.3101 -34.2954 -34.2846 -34.2179 -34.2077 -34.1887 -33.7953
   -33.7946 -33.7862 -33.7214 -33.6962 -33.6932 -33.6543 -33.6402 -33.6017
   -22.9332 -22.9234 -14.7886 -14.7765 -14.2243 -14.1890 -13.8011 -13.7774
   -13.3123 -13.1010 -13.0714 -13.0335 -12.9409 -12.8564 -12.8022 -12.7473
   -12.7270 -12.6351 -12.4913 -12.4479 -12.3547 -12.3021 -12.1735 -12.1019
   -11.0240 -10.8152  -6.5148  -6.5050  -6.4299  -6.4155  -6.4022  -6.3881
    -3.6637  -3.5846  -2.4439  -2.3927  -1.7769  -1.6402  -1.4342  -1.1884
    -0.9464  -0.6793  -0.6676  -0.5941  -0.4145  -0.3169  -0.2533  -0.2121
     0.0323   0.0631   0.2911   0.3763   0.5329   0.6362   0.6724   0.7248
     1.0693   1.1723   1.2428   1.3233   1.3408   1.4871   1.5799   1.6634
     1.7168   1.7555   1.8116   2.0202   2.1195   2.2189   2.2888   2.3023
     2.4241   2.4690   2.5398   2.6072   2.7033   2.7435   2.7836   2.8426
     2.9187   2.9496   3.0147   3.1046   3.1193   3.1843   3.2449   3.3100
     3.3424   3.3766   3.4537   3.5135   3.6098   3.6541   3.6635   3.7296
     3.7860   3.8689   3.9078   4.0242   4.0857   4.2821   4.4351   4.4868
     4.8071   4.9305   6.1046   6.5755   6.5836  10.5504  10.7570  11.4784
    11.9019  12.0111  12.2019  12.3739  12.6175  12.6865  12.7908  12.9100
    13.3142  13.3327  13.4118  13.4700  13.5033  13.6189  13.7580  13.9506
    14.0086  14.0136  14.0823  14.4557  14.6343

     occupation numbers 
     1.0000   1.0000   1.0000   1.0000   1.0000   1.0000   1.0000   1.0000
     1.0000   1.0000   1.0000   1.0000   1.0000   1.0000   1.0000   1.0000
     1.0000   1.0000   1.0000   1.0000   1.0000   1.0000   1.0000   1.0000
     1.0000   1.0000   1.0000   1.0000   1.0000   1.0000   1.0000   1.0000
     1.0000   1.0000   1.0000   1.0000   1.0000   1.0000   1.0000   1.0000
     1.0000   1.0000   1.0000   1.0000   1.0000   1.0000   1.0000   1.0000
     1.0000   1.0000   1.0000   1.0000   1.0000   1.0000   1.0000   1.0000
     1.0000   1.0000   1.0000   1.0000   1.0000   1.0000   1.0000   1.0000
     1.0000   1.0000   1.0000   1.0000   1.0000   1.0000   1.0000   1.0000
     1.0000   1.0000   1.0000   1.0000   1.0000   1.0000   1.0000   1.0000
     1.0000   1.0000   1.0000   1.0000   1.0000   1.0000   1.0000   1.0000
     1.0000   1.0000   1.0000   1.0000   1.0000   1.0000   1.0000   1.0000
     1.0000   1.0000   1.0000   1.0000   1.0000   1.0000   1.0000   1.0000
     1.0000   1.0000   1.0000   1.0000   1.0000   1.0000   1.0000   1.0000
     1.0000   1.0000   1.0000   1.0000   1.0000   1.0000   1.0000   1.0000
     1.0000   1.0000   1.0000   1.0000   1.0000   1.0000   1.0000   1.0000
     1.0000   1.0000   1.0000   1.0000   1.0000   0.0000   0.0000   0.0000
     0.0000   0.0000   0.0000   0.0000   0.0000   0.0000   0.0000   0.0000
     0.0000   0.0000   0.0000   0.0000   0.0000   0.0000   0.0000   0.0000
     0.0000   0.0000   0.0000   0.0000   0.0000

          k = 0.3333 0.0000-0.1157 ( 25913 PWs)   bands (ev):

   -81.5934 -67.5433 -67.4525 -67.0391 -66.9502 -66.8802 -48.5876 -47.5573
   -46.8054 -34.3101 -34.2953 -34.2846 -34.2179 -34.2077 -34.1887 -33.7953
   -33.7945 -33.7862 -33.7214 -33.6962 -33.6931 -33.6542 -33.6402 -33.6017
   -22.9332 -22.9234 -14.8020 -14.7625 -14.2186 -14.1950 -13.8024 -13.7760
   -13.3142 -13.0949 -13.0779 -13.0325 -12.9414 -12.8508 -12.8082 -12.7375
   -12.7337 -12.6380 -12.4840 -12.4549 -12.3488 -12.3068 -12.1762 -12.0987
   -11.0239 -10.8152  -6.5148  -6.5052  -6.4299  -6.4155  -6.4022  -6.3881
    -3.6318  -3.6175  -2.4601  -2.3753  -1.7919  -1.6096  -1.4616  -1.1961
    -0.9361  -0.6809  -0.6536  -0.6072  -0.3944  -0.3393  -0.2432  -0.1887
    -0.0319   0.1041   0.3288   0.3545   0.5780   0.6248   0.6866   0.7115
     1.0475   1.1379   1.2480   1.3261   1.4016   1.4708   1.5662   1.6517
     1.6613   1.7084   1.8804   1.9901   2.1088   2.1978   2.2833   2.3409
     2.4271   2.4696   2.5284   2.6394   2.7091   2.7542   2.7710   2.8432
     2.9113   2.9421   2.9976   3.0687   3.1496   3.2027   3.2719   3.3350
     3.3940   3.4451   3.4758   3.5169   3.5645   3.6138   3.6895   3.7096
     3.7567   3.8127   3.8714   4.0121   4.1215   4.3090   4.4174   4.4918
     4.8039   4.9299   6.1046   6.5739   6.5900  10.2782  11.0993  11.5534
    11.8186  12.0799  12.2411  12.3945  12.6240  12.6861  12.8499  12.9393
    13.1051  13.2299  13.3118  13.4361  13.5797  13.5940  13.6572  13.9298
    14.0560  14.1495  14.2053  14.4088  14.4874

     occupation numbers 
     1.0000   1.0000   1.0000   1.0000   1.0000   1.0000   1.0000   1.0000
     1.0000   1.0000   1.0000   1.0000   1.0000   1.0000   1.0000   1.0000
     1.0000   1.0000   1.0000   1.0000   1.0000   1.0000   1.0000   1.0000
     1.0000   1.0000   1.0000   1.0000   1.0000   1.0000   1.0000   1.0000
     1.0000   1.0000   1.0000   1.0000   1.0000   1.0000   1.0000   1.0000
     1.0000   1.0000   1.0000   1.0000   1.0000   1.0000   1.0000   1.0000
     1.0000   1.0000   1.0000   1.0000   1.0000   1.0000   1.0000   1.0000
     1.0000   1.0000   1.0000   1.0000   1.0000   1.0000   1.0000   1.0000
     1.0000   1.0000   1.0000   1.0000   1.0000   1.0000   1.0000   1.0000
     1.0000   1.0000   1.0000   1.0000   1.0000   1.0000   1.0000   1.0000
     1.0000   1.0000   1.0000   1.0000   1.0000   1.0000   1.0000   1.0000
     1.0000   1.0000   1.0000   1.0000   1.0000   1.0000   1.0000   1.0000
     1.0000   1.0000   1.0000   1.0000   1.0000   1.0000   1.0000   1.0000
     1.0000   1.0000   1.0000   1.0000   1.0000   1.0000   1.0000   1.0000
     1.0000   1.0000   1.0000   1.0000   1.0000   1.0000   1.0000   1.0000
     1.0000   1.0000   1.0000   1.0000   1.0000   1.0000   1.0000   1.0000
     1.0000   1.0000   1.0000   1.0000   1.0000   0.0000   0.0000   0.0000
     0.0000   0.0000   0.0000   0.0000   0.0000   0.0000   0.0000   0.0000
     0.0000   0.0000   0.0000   0.0000   0.0000   0.0000   0.0000   0.0000
     0.0000   0.0000   0.0000   0.0000   0.0000

          k = 0.3333 0.1921 0.0601 ( 25923 PWs)   bands (ev):

   -81.5934 -67.5433 -67.4525 -67.0391 -66.9502 -66.8802 -48.5877 -47.5573
   -46.8054 -34.3101 -34.2953 -34.2846 -34.2179 -34.2077 -34.1887 -33.7953
   -33.7945 -33.7862 -33.7214 -33.6962 -33.6932 -33.6542 -33.6402 -33.6017
   -22.9332 -22.9234 -14.8037 -14.7531 -14.2379 -14.1969 -13.8037 -13.7692
   -13.3105 -13.1041 -13.0610 -12.9765 -12.9267 -12.8876 -12.8303 -12.7643
   -12.7304 -12.6438 -12.4912 -12.4241 -12.3695 -12.2957 -12.1856 -12.0895
   -11.0244 -10.8142  -6.5130  -6.5079  -6.4303  -6.4138  -6.4028  -6.3881
    -3.6357  -3.5687  -2.5710  -2.4712  -1.7443  -1.5110  -1.3967  -1.2081
    -0.9331  -0.7289  -0.6600  -0.5813  -0.4685  -0.2536  -0.1955  -0.0947
    -0.0285   0.0860   0.2824   0.4160   0.5358   0.5978   0.6350   0.6885
     0.9850   1.0581   1.2991   1.3607   1.4136   1.4857   1.5509   1.6334
     1.6476   1.7383   1.8575   1.9505   2.1059   2.2492   2.3289   2.4004
     2.4117   2.4757   2.5065   2.5891   2.6469   2.7639   2.7822   2.8532
     2.9436   3.0107   3.0463   3.1176   3.1570   3.2103   3.2598   3.2898
     3.3327   3.4224   3.4472   3.5034   3.5844   3.6209   3.6688   3.7024
     3.7378   3.8665   3.9506   4.0259   4.0563   4.3041   4.3698   4.4670
     4.8246   4.9141   6.1103   6.5576   6.5948  10.4704  11.0596  11.3927
    11.7822  11.8991  12.1264  12.4947  12.6022  12.7339  12.8535  13.0951
    13.1432  13.2420  13.3827  13.4437  13.5021  13.6334  13.7586  13.9175
    14.1253  14.2537  14.2826  14.3514  14.4558

     occupation numbers 
     1.0000   1.0000   1.0000   1.0000   1.0000   1.0000   1.0000   1.0000
     1.0000   1.0000   1.0000   1.0000   1.0000   1.0000   1.0000   1.0000
     1.0000   1.0000   1.0000   1.0000   1.0000   1.0000   1.0000   1.0000
     1.0000   1.0000   1.0000   1.0000   1.0000   1.0000   1.0000   1.0000
     1.0000   1.0000   1.0000   1.0000   1.0000   1.0000   1.0000   1.0000
     1.0000   1.0000   1.0000   1.0000   1.0000   1.0000   1.0000   1.0000
     1.0000   1.0000   1.0000   1.0000   1.0000   1.0000   1.0000   1.0000
     1.0000   1.0000   1.0000   1.0000   1.0000   1.0000   1.0000   1.0000
[...]
     atom   13 type  7   force =     0.00000000    0.00000000    0.00000000
     atom   14 type  1   force =     0.00000000    0.00000000    0.00000000
     atom   15 type  1   force =     0.00000000    0.00000000    0.00000000
     atom   16 type  6   force =     0.00000000    0.00000000    0.00000000
     atom   17 type  6   force =     0.00000000    0.00000000    0.00000000
     atom   18 type  6   force =     0.00000000    0.00000000    0.00000000
     atom   19 type  6   force =     0.00000000    0.00000000    0.00000000
     atom   20 type  6   force =     0.00000000    0.00000000    0.00000000
     atom   21 type  6   force =     0.00000000    0.00000000    0.00000000
     atom   22 type  6   force =     0.00000000    0.00000000    0.00000000
     atom   23 type  6   force =     0.00000000    0.00000000    0.00000000
     atom   24 type  6   force =     0.00000000    0.00000000    0.00000000
     atom   25 type  6   force =     0.00000000    0.00000000    0.00000000
     atom   26 type  6   force =     0.00000000    0.00000000    0.00000000
     atom   27 type  6   force =     0.00000000    0.00000000    0.00000000
     atom   28 type  6   force =     0.00000000    0.00000000    0.00000000
     atom   29 type  6   force =     0.00000000    0.00000000    0.00000000
     atom   30 type  6   force =     0.00000000    0.00000000    0.00000000
     atom   31 type  6   force =     0.00000000    0.00000000    0.00000000
     atom   32 type  6   force =     0.00000000    0.00000000    0.00000000
     atom   33 type  6   force =     0.00000000    0.00000000    0.00000000
     atom   34 type  6   force =     0.00000000    0.00000000    0.00000000
     atom   35 type  6   force =     0.00000000    0.00000000    0.00000000
     atom   36 type  6   force =     0.00000000    0.00000000    0.00000000
     atom   37 type  6   force =     0.00000000    0.00000000    0.00000000
     atom   38 type  6   force =     0.00000000    0.00000000    0.00000000
     atom   39 type  6   force =     0.00000000    0.00000000    0.00000000
     atom   40 type  3   force =     0.00000000    0.00000000    0.00000000
     atom   41 type  3   force =     0.00000000    0.00000000    0.00000000
     atom   42 type  3   force =     0.00000000    0.00000000    0.00000000
     atom   43 type  3   force =     0.00000000    0.00000000    0.00000000
     atom   44 type  2   force =     0.00000000    0.00000000    0.00000000
     The SCF correction term to forces
     atom    1 type  4   force =     0.00000000    0.00000126    0.00000000
     atom    2 type  4   force =     0.00000000   -0.00000289    0.00000000
     atom    3 type  5   force =     0.00000000   -0.00000459   -0.00000000
     atom    4 type  5   force =     0.00000000   -0.00002293   -0.00000000
     atom    5 type  5   force =    -0.00000000    0.00000717   -0.00000000
     atom    6 type  5   force =    -0.00000000    0.00003470   -0.00000000
     atom    7 type  5   force =    -0.00000000   -0.00001456   -0.00000000
     atom    8 type  7   force =    -0.00000283    0.00000461    0.00001526
     atom    9 type  7   force =     0.00000283    0.00000461   -0.00001526
     atom   10 type  7   force =    -0.00000205   -0.00000403   -0.00000767
     atom   11 type  7   force =     0.00000205   -0.00000403    0.00000767
     atom   12 type  7   force =    -0.00000015    0.00000073    0.00000307
     atom   13 type  7   force =     0.00000015    0.00000073   -0.00000307
     atom   14 type  1   force =    -0.00000242    0.00000045   -0.00000447
     atom   15 type  1   force =     0.00000242    0.00000045    0.00000447
     atom   16 type  6   force =     0.00000285    0.00000540    0.00001522
     atom   17 type  6   force =    -0.00000285    0.00000540   -0.00001522
     atom   18 type  6   force =    -0.00000666    0.00000062   -0.00000210
     atom   19 type  6   force =     0.00000666    0.00000062    0.00000210
     atom   20 type  6   force =    -0.00000041    0.00000074    0.00000406
     atom   21 type  6   force =     0.00000041    0.00000074   -0.00000406
     atom   22 type  6   force =    -0.00000351   -0.00000906   -0.00000696
     atom   23 type  6   force =     0.00000351   -0.00000906    0.00000696
     atom   24 type  6   force =     0.00000629    0.00000214    0.00001598
     atom   25 type  6   force =    -0.00000629    0.00000214   -0.00001598
     atom   26 type  6   force =    -0.00000015   -0.00000139    0.00001635
     atom   27 type  6   force =     0.00000015   -0.00000139   -0.00001635
     atom   28 type  6   force =    -0.00000292   -0.00000128   -0.00000848
     atom   29 type  6   force =     0.00000292   -0.00000128    0.00000848
     atom   30 type  6   force =    -0.00000365   -0.00000479    0.00000754
     atom   31 type  6   force =     0.00000365   -0.00000479   -0.00000754
     atom   32 type  6   force =     0.00000407   -0.00000054    0.00000406
     atom   33 type  6   force =    -0.00000407   -0.00000054   -0.00000406
     atom   34 type  6   force =     0.00000456    0.00000625   -0.00001318
     atom   35 type  6   force =    -0.00000456    0.00000625    0.00001318
     atom   36 type  6   force =    -0.00000226   -0.00000486    0.00001197
     atom   37 type  6   force =     0.00000226   -0.00000486   -0.00001197
     atom   38 type  6   force =    -0.00000142    0.00000833    0.00002138
     atom   39 type  6   force =     0.00000142    0.00000833   -0.00002138
     atom   40 type  3   force =    -0.00000027   -0.00000060    0.00000098
     atom   41 type  3   force =     0.00000027   -0.00000060   -0.00000098
     atom   42 type  3   force =     0.00000018    0.00000035    0.00000509
     atom   43 type  3   force =    -0.00000018    0.00000035   -0.00000509
     atom   44 type  2   force =     0.00000000    0.00003854   -0.00000000

     DFT-D3 dispersion contribution to forces:
     atom    1 type  4   force =    -0.00000000    0.00051435    0.00000000
     atom    2 type  4   force =     0.00000000   -0.00029095    0.00000000
     atom    3 type  5   force =     0.00000000    0.00064261   -0.00000000
     atom    4 type  5   force =    -0.00000000   -0.00105940   -0.00000000
     atom    5 type  5   force =     0.00000000   -0.00057080    0.00000000
     atom    6 type  5   force =    -0.00000000    0.00108189    0.00000000
     atom    7 type  5   force =     0.00000000   -0.00014056   -0.00000000
     atom    8 type  7   force =    -0.00000705   -0.00013511   -0.00019786
     atom    9 type  7   force =     0.00000705   -0.00013511    0.00019786
     atom   10 type  7   force =     0.00010988    0.00015934    0.00013419
     atom   11 type  7   force =    -0.00010988    0.00015934   -0.00013419
     atom   12 type  7   force =    -0.00002151    0.00004159   -0.00035246
     atom   13 type  7   force =     0.00002151    0.00004159    0.00035246
     atom   14 type  1   force =     0.00002093    0.00016540   -0.00097539
     atom   15 type  1   force =    -0.00002093    0.00016540    0.00097539
     atom   16 type  6   force =    -0.00003933   -0.00002583    0.00046094
     atom   17 type  6   force =     0.00003933   -0.00002583   -0.00046094
     atom   18 type  6   force =     0.00005768    0.00006497   -0.00040210
     atom   19 type  6   force =    -0.00005768    0.00006497    0.00040210
     atom   20 type  6   force =    -0.00002212   -0.00009544    0.00036997
     atom   21 type  6   force =     0.00002212   -0.00009544   -0.00036997
     atom   22 type  6   force =    -0.00000191    0.00002015    0.00011431
     atom   23 type  6   force =     0.00000191    0.00002015   -0.00011431
     atom   24 type  6   force =    -0.00014501    0.00096617    0.00013324
     atom   25 type  6   force =     0.00014501    0.00096617   -0.00013324
     atom   26 type  6   force =     0.00081186    0.00007291    0.00018278
     atom   27 type  6   force =    -0.00081186    0.00007291   -0.00018278
     atom   28 type  6   force =     0.00043398   -0.00066087   -0.00013777
     atom   29 type  6   force =    -0.00043398   -0.00066087    0.00013777
     atom   30 type  6   force =    -0.00027515    0.00042591    0.00018234
     atom   31 type  6   force =     0.00027515    0.00042591   -0.00018234
     atom   32 type  6   force =     0.00085517   -0.00042444    0.00039417
     atom   33 type  6   force =    -0.00085517   -0.00042444   -0.00039417
     atom   34 type  6   force =     0.00061871   -0.00047074   -0.00032765
     atom   35 type  6   force =    -0.00061871   -0.00047074    0.00032765
     atom   36 type  6   force =    -0.00001593   -0.00005406   -0.00051484
     atom   37 type  6   force =     0.00001593   -0.00005406    0.00051484
     atom   38 type  6   force =     0.00012927    0.00003586   -0.00053139
     atom   39 type  6   force =    -0.00012927    0.00003586    0.00053139
     atom   40 type  3   force =     0.00001994    0.00011166   -0.00032548
     atom   41 type  3   force =    -0.00001994    0.00011166    0.00032548
     atom   42 type  3   force =     0.00005694   -0.00042859   -0.00019702
     atom   43 type  3   force =    -0.00005694   -0.00042859    0.00019702
     atom   44 type  2   force =     0.00000000    0.00028508   -0.00000000

     Total force =     0.003733     Total SCF correction =     0.000093

     DFT-D3 dispersion Force =     0.004195


     Computing stress (Cartesian axis) and pressure


     negative rho (up, down):  0.000E+00 1.465E-04
          total   stress  (Ry/bohr**3)                   (kbar)     P=       18.97
   0.00013104   0.00000000  -0.00001490           19.28        0.00       -2.19
   0.00000000   0.00013727   0.00000000            0.00       20.19        0.00
  -0.00001490   0.00000000   0.00011851           -2.19        0.00       17.43

     kinetic stress (kbar)  20766.75      0.00    -23.59
                                0.00  20855.01      0.00
                              -23.59      0.00  20586.91

     local   stress (kbar) -38295.32      0.00    143.49
                                0.00 -37576.27      0.00
                              143.49      0.00  16402.82

     nonloc. stress (kbar)   3930.94      0.00      4.74
                                0.00   3923.10      0.00
                                4.74      0.00   3909.98

     hartree stress (kbar)  21887.66     -0.00    -69.27
                               -0.00  21562.08     -0.00
                              -69.27     -0.00  -4869.01

     exc-cor stress (kbar)  -2921.13     -0.00     -0.20
                               -0.00  -2920.95      0.00
                               -0.20      0.00  -2917.27

     corecor stress (kbar)  -1921.68      0.00      0.10
                                0.00  -1922.34     -0.00
                                0.10     -0.00  -1924.19

     ewald   stress (kbar)  -3412.41     -0.00    -57.56
                               -0.00  -3884.75     -0.00
                              -57.56     -0.00 -31159.89

     hubbard stress (kbar)      0.00      0.00      0.00
                                0.00      0.00      0.00
                                0.00      0.00      0.00

     DFT-D   stress (kbar)    -15.53     -0.00      0.10
                               -0.00    -15.67     -0.00
                                0.10     -0.00    -11.91

     XDM     stress (kbar)      0.00      0.00      0.00
                                0.00      0.00      0.00
                                0.00      0.00      0.00

     dft-nl  stress (kbar)      0.00      0.00      0.00
                                0.00      0.00      0.00
                                0.00      0.00      0.00

     TS-vdW  stress (kbar)      0.00      0.00      0.00
                                0.00      0.00      0.00
                                0.00      0.00      0.00

     MDB     stress (kbar)      0.00      0.00      0.00
                                0.00      0.00      0.00
                                0.00      0.00      0.00

     3D-RISM stress (kbar)      0.00      0.00      0.00
                                0.00      0.00      0.00
                                0.00      0.00      0.00

     Energy error            =      2.9E-05 Ry
     Gradient error          =      7.4E-04 Ry/Bohr

     bfgs converged in  14 scf cycles and  13 bfgs steps
     (criteria: energy <  1.0E-04 Ry, force <  1.0E-03 Ry/Bohr)

     End of BFGS Geometry Optimization

     Final energy             =   -2631.2400049325 Ry

     File ./temp/phl-fe1-fe1.bfgs deleted, as requested
Begin final coordinates

ATOMIC_POSITIONS (crystal)
K                0.0000000000        0.4937551473        0.0000000000
K                0.5000000000        0.0029642045        0.0000000000
Mg              -0.0000000000        0.3332085716        0.5000000000
Mg              -0.0000000000        0.6646785517        0.5000000000
Mg               0.5000000000        0.4929155607        0.5000000000
Mg               0.5000000000        0.8321100484        0.5000000000
Mg               0.5000000000        0.1748554639        0.5000000000
Si               0.0851275278        0.1660044442        0.2206798477
Si               0.9148724582        0.1660044442        0.7793201823
Si               0.9334475644        0.8334925509        0.7724660637
Si               0.0665524356        0.8334925509        0.2275339363
Si               0.5639160912        0.6664082313        0.2249287991
Si               0.4360839088        0.6664082313        0.7750711859
Al               0.4148550825        0.3312024466        0.7775600791
Al               0.5851449175        0.3312024466        0.2224399209
O                0.1329707804        0.1695668950        0.3831827411
O                0.8670291896        0.1695668950        0.6168172879
O                0.8697739339        0.8275152264        0.6116608049
O                0.1302260661        0.8275152264        0.3883391951
O                0.6251824165        0.6689401580        0.3867395115
O                0.3748175835        0.6689401580        0.6132604885
O                0.3610545563        0.3331654916        0.6052872902
O                0.6389454437        0.3331654916        0.3947127098
O                0.3442670157        0.2024344611        0.1623292645
O                0.6557329843        0.2024344611        0.8376707055
O                0.9958753033        0.9973632982        0.1686203029
O                0.0041246967        0.9973632982        0.8313796821
O                0.6825559502        0.7754561870        0.8336200551
O                0.3174440498        0.7754561870        0.1663799449
O                0.8156592593        0.7319996332        0.1662541879
O                0.1843407407        0.7319996332        0.8337458121
O                0.4955426580        0.5077924261        0.1600186838
O                0.5044573120        0.5077924261        0.8399813312
O                0.1424138916        0.2769704724        0.8430322288
O                0.8575861234        0.2769704724        0.1569677712
O                0.1313710782        0.5037167179        0.3943293677
O                0.8686289368        0.5037167179        0.6056706323
O                0.6273582467        0.9994328974        0.3977676912
O                0.3726417533        0.9994328974        0.6022322788
H                0.0999163305        0.4946147641        0.2986280259
H                0.9000836995        0.4946147641        0.7013719741
H                0.6030656360        0.0141223393        0.3024885972
H                0.3969343640        0.0141223393        0.6975114028
Fe              -0.0000000000        0.0051102235        0.5000000000
End final coordinates



     Writing all to output data dir ./temp/phl-fe1-fe1.save/ :
     XML data file, charge density, pseudopotentials, collected wavefunctions

     init_run     :    224.36s CPU    226.52s WALL (       1 calls)
     electrons    :  56225.00s CPU  56484.58s WALL (       6 calls)
     update_pot   :     10.31s CPU     10.53s WALL (       5 calls)
     forces       :   1110.50s CPU   1115.11s WALL (       6 calls)
     force_dftd3  :     23.00s CPU     23.02s WALL (       6 calls)
     stress       :   3080.87s CPU   3111.31s WALL (       6 calls)
     stres_dftd3  :     23.04s CPU     23.06s WALL (       6 calls)

     Called by init_run:
     wfcinit      :    215.97s CPU    216.89s WALL (       1 calls)
     wfcinit:atom :      0.39s CPU      0.40s WALL (      40 calls)
     wfcinit:wfcr :    212.41s CPU    213.31s WALL (      40 calls)
     potinit      :      2.15s CPU      2.49s WALL (       1 calls)
     hinit0       :      1.05s CPU      1.31s WALL (       1 calls)

     Called by electrons:
     c_bands      :  51776.33s CPU  51950.06s WALL (      61 calls)
     sum_band     :   4036.80s CPU   4089.46s WALL (      61 calls)
     v_of_rho     :     26.92s CPU     28.10s WALL (      62 calls)
     v_h          :      1.17s CPU      1.24s WALL (      62 calls)
     v_xc         :     30.88s CPU     32.30s WALL (      74 calls)
     newd         :    307.46s CPU    342.93s WALL (      62 calls)
     PAW_pot      :     99.69s CPU     99.72s WALL (      67 calls)
     mix_rho      :      4.69s CPU      4.84s WALL (      61 calls)
     energy_dftd3 :     18.24s CPU     18.24s WALL (       6 calls)

     Called by c_bands:
     init_us_2    :    126.06s CPU    126.18s WALL (    5600 calls)
     cegterg      :  51577.76s CPU  51749.78s WALL (    2480 calls)

     Called by sum_band:
     sum_band:wei :      0.02s CPU      0.02s WALL (      61 calls)
     sum_band:loo :   3400.54s CPU   3417.95s WALL (      61 calls)
     sum_band:buf :     16.99s CPU     17.02s WALL (    2440 calls)
     sum_band:ini :     55.97s CPU     56.00s WALL (    2440 calls)
     sum_band:cal :   2694.98s CPU   2696.25s WALL (    2640 calls)
     sum_band:bec :      4.79s CPU      4.80s WALL (    2640 calls)
     addusdens    :    632.21s CPU    667.17s WALL (      61 calls)
                                        0.00s GPU  (      61 calls)
     addusd:skk   :      1.95s CPU      2.83s WALL (     427 calls)
                                        0.00s GPU  (     427 calls)

     Called by *egterg:
     cdiaghg      :    951.01s CPU    960.93s WALL (   18233 calls)
     cegterg:over :   6924.95s CPU   6927.08s WALL (   16193 calls)
     cegterg:upda :   3931.41s CPU   3933.53s WALL (   16193 calls)
     cegterg:last :  10497.90s CPU  10500.21s WALL (    6920 calls)
     cdiaghg:chol :     21.22s CPU     21.30s WALL (   18233 calls)
     cdiaghg:inve :     18.07s CPU     18.10s WALL (   18233 calls)
     cdiaghg:para :    362.12s CPU    366.52s WALL (   36466 calls)
     h_psi        :  20050.50s CPU  20172.59s WALL (   18713 calls)
     s_psi        :   8022.54s CPU   8023.70s WALL (   18713 calls)
     g_psi        :     24.12s CPU     24.17s WALL (   16193 calls)

     Called by h_psi:
     h_psi:calbec :   8042.97s CPU   8046.21s WALL (   18713 calls)
     vloc_psi     :   3930.41s CPU   4027.79s WALL (   18713 calls)
     add_vuspsi   :   8039.17s CPU   8040.23s WALL (   18713 calls)

     General routines
     calbec       :  12007.81s CPU  12013.21s WALL (   22553 calls)
     fft          :     19.22s CPU     20.63s WALL (    1793 calls)
     ffts         :      0.76s CPU      0.79s WALL (     246 calls)
     fftw         :   3000.53s CPU   3065.70s WALL ( 2861740 calls)
     interpolate  :      2.19s CPU      2.27s WALL (     124 calls)

     Parallel routines

     PAW routines
     PAW_pot      :     99.69s CPU     99.72s WALL (      67 calls)
     PAW_symme    :      0.03s CPU      0.03s WALL (     127 calls)

     PWSCF        :     16h54m CPU     16h59m WALL


   This run was terminated on:   8:49:56   8Jan2025            

=------------------------------------------------------------------------------=
   JOB DONE.
=------------------------------------------------------------------------------=
