
     Program PWSCF v.7.3.1 starts on 30Mar2025 at 11: 7:46 

     This program is part of the open-source Quantum ESPRESSO suite
     for quantum simulation of materials; please cite
         "P. Giannozzi et al., J. Phys.:Condens. Matter 21 395502 (2009);
         "P. Giannozzi et al., J. Phys.:Condens. Matter 29 465901 (2017);
         "P. Giannozzi et al., J. Chem. Phys. 152 154105 (2020);
          URL http://www.quantum-espresso.org", 
     in publications or presentations arising from this work. More details at
     http://www.quantum-espresso.org/quote

     Parallel version (MPI), running on     6 processors

     MPI processes distributed on     1 nodes
     11525 MiB available memory on the printing compute node when the environment starts

     Reading input from relax.in

     Current dimensions of program PWSCF are:
     Max number of different atomic species (ntypx) = 10
     Max number of k-points (npk) =  40000
     Max angular momentum in pseudopotentials (lmaxx) =  4
     file Al.pbe-n-kjpaw_psl.1.0.0.UPF: wavefunction(s)  3S 3P renormalized
     file Ti.pbe-spn-kjpaw_psl.1.0.0.UPF: wavefunction(s)  3S 3P 3D renormalized
     file H.pbe-kjpaw_psl.1.0.0.UPF: wavefunction(s)  1S renormalized
     file K.pbe-spn-kjpaw_psl.1.0.0.UPF: wavefunction(s)  3S renormalized
     file Mg.pbe-spnl-kjpaw_psl.1.0.0.UPF: wavefunction(s)  2P renormalized
     file O.pbe-n-kjpaw_psl.1.0.0.UPF: wavefunction(s)  2S 2P renormalized
     file Si.pbe-n-kjpaw_psl.1.0.0.UPF: wavefunction(s)  3S 3P renormalized

     R & G space division:  proc/nbgrp/npool/nimage =       6
     Subspace diagonalization in iterative solution of the eigenvalue problem:
     one sub-group per band group will be used
     custom distributed-memory algorithm (size of sub-group:  2*  2 procs)


     Parallelization info
     --------------------
     sticks:   dense  smooth     PW     G-vecs:    dense   smooth      PW
     Min        2237    1118    295               201780    71334    9640
     Max        2238    1119    296               201781    71336    9642
     Sum       13425    6713   1771              1210685   428009   57847

     Using Slab Decomposition



     bravais-lattice index     =          -12
     lattice parameter (alat)  =      20.1279  a.u.
     unit-cell volume          =    6817.5070 (a.u.)^3
     number of atoms/cell      =           87
     number of atomic types    =            7
     number of electrons       =       504.00
     number of Kohn-Sham states=          302
     kinetic-energy cutoff     =      60.0000  Ry
     charge density cutoff     =     480.0000  Ry
     scf convergence threshold =      1.0E-06
     mixing beta               =       0.7000
     number of iterations used =            8  plain     mixing
     energy convergence thresh.=      1.0E-04
     force convergence thresh. =      1.0E-03
     Exchange-correlation= SLA  PW   PBX  PBC
                           (   1   4   3   4   0   0   0)
     nstep                     =           50


     celldm(1)=  20.127877  celldm(2)=   0.868001  celldm(3)=   0.978461
     celldm(4)=   0.000000  celldm(5)=  -0.175986  celldm(6)=   0.000000

     crystal axes: (cart. coord. in units of alat)
               a(1) = (   1.000000   0.000000   0.000000 )  
               a(2) = (   0.000000   0.868001   0.000000 )  
               a(3) = (  -0.172195   0.000000   0.963189 )  

     reciprocal axes: (cart. coord. in units 2 pi/alat)
               b(1) = (  1.000000 -0.000000  0.178776 )  
               b(2) = (  0.000000  1.152073 -0.000000 )  
               b(3) = (  0.000000  0.000000  1.038217 )  


     PseudoPot. # 1 for Al read from file:
     ./../../../pseudos/Al.pbe-n-kjpaw_psl.1.0.0.UPF
     MD5 check sum: 502b6b27b9c6270cab5dd1084b96fa6d
     Pseudo is Projector augmented-wave + core cor, Zval =  3.0
     Generated using &quot;atomic&quot; code by A. Dal Corso  v.6.3
     Shape of augmentation charge: PSQ
     Using radial grid of 1135 points,  6 beta functions with: 
                l(1) =   0
                l(2) =   0
                l(3) =   1
                l(4) =   1
                l(5) =   2
                l(6) =   2
     Q(r) pseudized with 0 coefficients 


     PseudoPot. # 2 for Ti read from file:
     ./../../../pseudos/Ti.pbe-spn-kjpaw_psl.1.0.0.UPF
     MD5 check sum: 01f69b0d8ba4438b2e03ac6ea4af1c0b
     Pseudo is Projector augmented-wave + core cor, Zval = 12.0
     Generated using &quot;atomic&quot; code by A. Dal Corso  v.6.2.2
     Shape of augmentation charge: PSQ
     Using radial grid of 1177 points,  6 beta functions with: 
                l(1) =   0
                l(2) =   0
                l(3) =   1
                l(4) =   1
                l(5) =   2
                l(6) =   2
     Q(r) pseudized with 0 coefficients 


     PseudoPot. # 3 for H  read from file:
     ./../../../pseudos/H.pbe-kjpaw_psl.1.0.0.UPF
     MD5 check sum: d81a744832360e4a8af0b0b5b123bc2a
     Pseudo is Projector augmented-wave, Zval =  1.0
     Generated using &quot;atomic&quot; code by A. Dal Corso  v.6.3MaX
     Shape of augmentation charge: PSQ
     Using radial grid of  929 points,  2 beta functions with: 
                l(1) =   0
                l(2) =   0
     Q(r) pseudized with 0 coefficients 


     PseudoPot. # 4 for K  read from file:
     ./../../../pseudos/K.pbe-spn-kjpaw_psl.1.0.0.UPF
     MD5 check sum: 34cc42130a09071ebe376fd42eb21491
     Pseudo is Projector augmented-wave + core cor, Zval =  9.0
     Generated using &quot;atomic&quot; code by A. Dal Corso  v.6.2.2
     Shape of augmentation charge: PSQ
     Using radial grid of 1165 points,  6 beta functions with: 
                l(1) =   0
                l(2) =   0
                l(3) =   1
                l(4) =   1
                l(5) =   2
                l(6) =   2
     Q(r) pseudized with 0 coefficients 


     PseudoPot. # 5 for Mg read from file:
     ./../../../pseudos/Mg.pbe-spnl-kjpaw_psl.1.0.0.UPF
     MD5 check sum: fda14e0d92a6a9a5ebed782e5a4b3067
     Pseudo is Projector augmented-wave + core cor, Zval = 10.0
     Generated using &quot;atomic&quot; code by A. Dal Corso  v.6.3
     Shape of augmentation charge: PSQ
     Using radial grid of 1129 points,  4 beta functions with: 
                l(1) =   0
                l(2) =   0
                l(3) =   1
                l(4) =   1
     Q(r) pseudized with 0 coefficients 


     PseudoPot. # 6 for O  read from file:
     ./../../../pseudos/O.pbe-n-kjpaw_psl.1.0.0.UPF
     MD5 check sum: e99d9cef9b487d1ca56f5b95ecd0fd7a
     Pseudo is Projector augmented-wave + core cor, Zval =  6.0
     Generated using &quot;atomic&quot; code by A. Dal Corso  v.6.3
     Shape of augmentation charge: PSQ
     Using radial grid of 1095 points,  4 beta functions with: 
                l(1) =   0
                l(2) =   0
                l(3) =   1
                l(4) =   1
     Q(r) pseudized with 0 coefficients 


     PseudoPot. # 7 for Si read from file:
     ./../../../pseudos/Si.pbe-n-kjpaw_psl.1.0.0.UPF
     MD5 check sum: c39c59da582df4a0d9f10159256ea34e
     Pseudo is Projector augmented-wave + core cor, Zval =  4.0
     Generated using &quot;atomic&quot; code by A. Dal Corso  v.6.3
     Shape of augmentation charge: PSQ
     Using radial grid of 1141 points,  6 beta functions with: 
                l(1) =   0
                l(2) =   0
                l(3) =   1
                l(4) =   1
                l(5) =   2
                l(6) =   2
     Q(r) pseudized with 0 coefficients 


     atomic species   valence    mass     pseudopotential
     Al                3.00    26.98154     Al( 1.00)
     Ti               12.00    47.86700     Ti( 1.00)
     H                 1.00     1.00794     H ( 1.00)
     K                 9.00    39.09830     K ( 1.00)
     Mg               10.00    24.30500     Mg( 1.00)
     O                 6.00    15.99940     O ( 1.00)
     Si                4.00    28.08550     Si( 1.00)

     Starting magnetic structure 
     atomic species   magnetization
     Al              0.000
     Ti              0.300
     H               0.000
     K               0.000
     Mg              0.000
     O               0.000
     Si              0.000

     No symmetry found


                                    s                        frac. trans.

      isym =  1     identity                                     

 cryst.   s( 1) = (     1          0          0      )
                  (     0          1          0      )
                  (     0          0          1      )

 cart.    s( 1) = (  1.0000000  0.0000000  0.0000000 )
                  (  0.0000000  1.0000000  0.0000000 )
                  (  0.0000000  0.0000000  1.0000000 )


     point group C_1 (1)    
     there are  1 classes
     the character table:

       E    
A      1.00

     the symmetry operations in each class and the name of the first element:

     E        1
          identity                                               

   Cartesian axes

     site n.     atom                  positions (alat units)
         1        K      tau(   1) = (   0.0000000   0.4250125   0.0000000  )
         2        K      tau(   2) = (   0.5000000   0.4250125   0.0000000  )
         3        K      tau(   3) = (   0.2500001   0.0064937   0.0000000  )
         4        K      tau(   4) = (   0.7500001   0.0064937   0.0000000  )
         5        Mg     tau(   5) = (  -0.0860975   0.0038607   0.4815946  )
         6        Mg     tau(   6) = (   0.4139025   0.0038607   0.4815946  )
         7        Mg     tau(   7) = (   0.4139025   0.2892059   0.4815946  )
         8        Mg     tau(   8) = (  -0.0860975   0.5774713   0.4815946  )
         9        Mg     tau(   9) = (   0.4139025   0.5774713   0.4815946  )
        10        Mg     tau(  10) = (   0.6639026   0.4278974   0.4815946  )
        11        Mg     tau(  11) = (   0.1639026   0.7243993   0.4815946  )
        12        Mg     tau(  12) = (   0.6639026   0.7243993   0.4815946  )
        13        Mg     tau(  13) = (   0.1639026   0.1497890   0.4815946  )
        14        Mg     tau(  14) = (   0.6639026   0.1497890   0.4815946  )
        15        Si     tau(  15) = (   0.0032732   0.1431616   0.2183223  )
        16        Si     tau(  16) = (   0.5032732   0.1431616   0.2183223  )
        17        Si     tau(  17) = (   0.3245321   0.1431616   0.7448669  )
        18        Si     tau(  18) = (   0.8245321   0.1431616   0.7448669  )
        19        Si     tau(  19) = (   0.3350226   0.7240684   0.7384798  )
        20        Si     tau(  20) = (   0.8350226   0.7240684   0.7384798  )
        21        Si     tau(  21) = (  -0.0072173   0.7240684   0.2247093  )
        22        Si     tau(  22) = (   0.4927827   0.7240684   0.2247093  )
        23        Si     tau(  23) = (   0.2425345   0.5785601   0.2225897  )
        24        Si     tau(  24) = (   0.7425345   0.5785601   0.2225897  )
        25        Si     tau(  25) = (   0.0852708   0.5785601   0.7405995  )
        26        Si     tau(  26) = (   0.5852708   0.5785601   0.7405995  )
        27        Al     tau(  27) = (   0.0740689   0.2872816   0.7429227  )
        28        Al     tau(  28) = (   0.5740689   0.2872816   0.7429227  )
        29        Al     tau(  29) = (   0.2537364   0.2872816   0.2202665  )
        30        Al     tau(  30) = (   0.7537364   0.2872816   0.2202665  )
        31        O      tau(  31) = (  -0.0026909   0.1422633   0.3717654  )
        32        O      tau(  32) = (   0.4973091   0.1422633   0.3717654  )
        33        O      tau(  33) = (   0.3304962   0.1422633   0.5914238  )
        34        O      tau(  34) = (   0.8304962   0.1422633   0.5914238  )
        35        O      tau(  35) = (   0.3324311   0.7231896   0.5863039  )
        36        O      tau(  36) = (   0.8324311   0.7231896   0.5863039  )
        37        O      tau(  37) = (  -0.0046258   0.7231896   0.3768853  )
        38        O      tau(  38) = (   0.4953742   0.7231896   0.3768853  )
        39        O      tau(  39) = (   0.2454867   0.5807947   0.3754345  )
        40        O      tau(  40) = (   0.7454867   0.5807947   0.3754345  )
        41        O      tau(  41) = (   0.0823186   0.5807947   0.5877546  )
        42        O      tau(  42) = (   0.5823186   0.5807947   0.5877546  )
        43        O      tau(  43) = (   0.0766826   0.2887587   0.5801409  )
        44        O      tau(  44) = (   0.5766827   0.2887587   0.5801409  )
        45        O      tau(  45) = (   0.2511227   0.2887587   0.3830482  )
        46        O      tau(  46) = (   0.7511227   0.2887587   0.3830482  )
        47        O      tau(  47) = (   0.1418077   0.1779913   0.1635633  )
        48        O      tau(  48) = (   0.6418077   0.1779913   0.1635633  )
        49        O      tau(  49) = (   0.1859975   0.1779913   0.7996258  )
        50        O      tau(  50) = (   0.6859975   0.1779913   0.7996258  )
        51        O      tau(  51) = (  -0.0286826   0.8653779   0.1665824  )
        52        O      tau(  52) = (   0.4713174   0.8653779   0.1665824  )
        53        O      tau(  53) = (   0.3564879   0.8653779   0.7966068  )
        54        O      tau(  54) = (   0.8564879   0.8653779   0.7966068  )
        55        O      tau(  55) = (   0.2007110   0.6699216   0.7951033  )
        56        O      tau(  56) = (   0.7007110   0.6699216   0.7951033  )
        57        O      tau(  57) = (   0.1270943   0.6699216   0.1680858  )
        58        O      tau(  58) = (   0.6270943   0.6699216   0.1680858  )
        59        O      tau(  59) = (   0.3766868   0.6381391   0.1673153  )
        60        O      tau(  60) = (   0.8766869   0.6381391   0.1673153  )
        61        O      tau(  61) = (  -0.0488815   0.6381391   0.7958739  )
        62        O      tau(  62) = (   0.4511185   0.6381391   0.7958739  )
        63        O      tau(  63) = (   0.2228847   0.4408075   0.1613367  )
        64        O      tau(  64) = (   0.7228847   0.4408075   0.1613367  )
        65        O      tau(  65) = (   0.1049206   0.4408075   0.8018525  )
        66        O      tau(  66) = (   0.6049206   0.4408075   0.8018525  )
        67        O      tau(  67) = (  -0.0719221   0.2379761   0.8052988  )
        68        O      tau(  68) = (   0.4280780   0.2379761   0.8052988  )
        69        O      tau(  69) = (   0.3997274   0.2379761   0.1578903  )
        70        O      tau(  70) = (   0.8997273   0.2379761   0.1578903  )
        71        O      tau(  71) = (  -0.0026464   0.4375897   0.3820998  )
        72        O      tau(  72) = (   0.4973536   0.4375897   0.3820998  )
        73        O      tau(  73) = (   0.3304517   0.4375897   0.5810893  )
        74        O      tau(  74) = (   0.8304517   0.4375897   0.5810893  )
        75        O      tau(  75) = (   0.2478212   0.8676299   0.3852151  )
        76        O      tau(  76) = (   0.7478212   0.8676299   0.3852151  )
        77        O      tau(  77) = (   0.0799841   0.8676299   0.5779741  )
        78        O      tau(  78) = (   0.5799841   0.8676299   0.5779741  )
        79        H      tau(  79) = (  -0.0016781   0.4298747   0.2917532  )
        80        H      tau(  80) = (   0.4983219   0.4298747   0.2917532  )
        81        H      tau(  81) = (   0.3294834   0.4298747   0.6714359  )
        82        H      tau(  82) = (   0.8294834   0.4298747   0.6714359  )
        83        H      tau(  83) = (   0.2458147   0.0125535   0.2954037  )
        84        H      tau(  84) = (   0.7458148   0.0125535   0.2954037  )
        85        H      tau(  85) = (   0.0819906   0.0125535   0.6677855  )
        86        H      tau(  86) = (   0.5819906   0.0125535   0.6677855  )
        87        Ti     tau(  87) = (  -0.0860975   0.2892059   0.4815946  )

     --------------------------------------------
     DFT-D3 Dispersion Correction (3-body terms):
     --------------------------------------------
       Reference C6 values for interpolation: 

         atom   Coordination number   C6
         H          0.912             6.05
         H          0.000            15.18
         O          0.000            31.01
         O          0.993            25.63
         O          1.989            20.74
         Mg         0.000          1366.75
         Mg         0.963           902.54
         Mg         1.950           351.12
         Al         0.000          1081.08
         Al         0.965           875.51
         Al         1.931           513.50
         Al         2.915           307.19
         Si         0.000           635.71
         Si         0.951           540.53
         Si         1.944           466.25
         Si         2.941           443.01
         Si         3.868           299.55
         K          0.000          9967.00
         K          0.977           676.04
         Ti         0.000          2723.84
         Ti         1.830           604.00
         Ti         3.868           643.18

       Values used:

         atom   Coordination number  R0_AB[au]  C6      C8
         K         11.892            4.007    676.04 129074.98
         K         11.895            4.007    676.04 129074.98
         K         12.164            4.007    676.04 129074.98
         K         12.167            4.007    676.04 129074.98
         Mg        11.637            3.292    351.12  31436.69
         Mg        11.670            3.292    351.12  31436.69
         Mg        11.234            3.292    351.12  31436.69
         Mg        10.810            3.292    351.12  31436.69
         Mg        10.845            3.292    351.12  31436.69
         Mg        11.858            3.292    351.12  31436.69
         Mg        10.855            3.292    351.12  31436.69
         Mg        11.563            3.292    351.12  31436.69
         Mg        11.148            3.292    351.12  31436.69
         Mg        12.028            3.292    351.12  31436.69
         Si         6.679            3.583    299.55  21425.58
         Si         6.713            3.583    299.55  21425.58
         Si         6.707            3.583    299.55  21425.58
         Si         6.684            3.583    299.55  21425.58
         Si         6.245            3.583    299.55  21425.58
         Si         6.249            3.583    299.55  21425.58
         Si         6.244            3.583    299.55  21425.58
         Si         6.249            3.583    299.55  21425.58
         Si         6.057            3.583    299.55  21425.58
         Si         6.288            3.583    299.55  21425.58
         Si         6.057            3.583    299.55  21425.58
         Si         6.289            3.583    299.55  21425.58
         Al         7.196            3.789    307.19  29441.29
         Al         7.588            3.789    307.19  29441.29
         Al         7.241            3.789    307.19  29441.29
         Al         7.543            3.789    307.19  29441.29
         O          3.883            2.345     20.74    418.58
         O          3.908            2.345     20.74    418.58
         O          3.903            2.345     20.74    418.58
         O          3.888            2.345     20.74    418.58
         O          3.908            2.345     20.74    418.58
         O          3.912            2.345     20.74    418.58
         O          3.908            2.345     20.74    418.58
         O          3.912            2.345     20.74    418.58
         O          2.966            2.345     20.74    418.58
         O          3.891            2.345     20.74    418.58
         O          2.966            2.345     20.74    418.58
         O          3.892            2.345     20.74    418.58
         O          3.000            2.345     20.74    418.58
         O          3.981            2.345     20.74    418.58
         O          3.007            2.345     20.74    418.58
         O          3.974            2.345     20.74    418.58
         O          3.150            2.345     20.74    418.58
         O          3.151            2.345     20.74    418.58
         O          3.150            2.345     20.74    418.58
         O          3.151            2.345     20.74    418.58
         O          3.047            2.345     20.74    418.58
         O          3.047            2.345     20.74    418.58
         O          3.047            2.345     20.74    418.58
         O          3.047            2.345     20.74    418.58
         O          2.875            2.345     20.74    418.58
         O          2.877            2.345     20.74    418.58
         O          2.875            2.345     20.74    418.58
         O          2.877            2.345     20.74    418.58
         O          2.861            2.345     20.74    418.58
         O          2.861            2.345     20.74    418.58
         O          2.861            2.345     20.74    418.58
         O          2.862            2.345     20.74    418.58
         O          3.075            2.345     20.74    418.58
         O          3.086            2.345     20.74    418.58
         O          3.075            2.345     20.74    418.58
         O          3.086            2.345     20.74    418.58
         O          3.210            2.345     20.74    418.58
         O          3.212            2.345     20.74    418.58
         O          3.212            2.345     20.74    418.58
         O          3.210            2.345     20.74    418.58
         O          3.002            2.345     20.74    418.58
         O          3.978            2.345     20.74    418.58
         O          3.017            2.345     20.74    418.58
         O          3.964            2.345     20.74    418.58
         O          3.982            2.345     20.74    418.58
         O          3.982            2.345     20.74    418.58
         O          3.981            2.345     20.74    418.58
         O          3.983            2.345     20.74    418.58
         H          1.209            2.062      6.08     73.52
         H          1.243            2.062      6.08     73.44
         H          1.215            2.062      6.08     73.50
         H          1.237            2.062      6.08     73.45
         H          1.231            2.062      6.08     73.46
         H          1.231            2.062      6.08     73.46
         H          1.231            2.062      6.08     73.46
         H          1.231            2.062      6.08     73.46
         Ti        10.797            3.557    643.18  76289.64

         Molecular C6 ( Ry / a.u.^6 ) =    654178.07


   Crystallographic axes

     site n.     atom                  positions (cryst. coord.)
         1        K      tau(   1) = (  0.0000000  0.4896454  0.0000000  )
         2        K      tau(   2) = (  0.5000000  0.4896454  0.0000000  )
         3        K      tau(   3) = (  0.2500001  0.0074812  0.0000000  )
         4        K      tau(   4) = (  0.7500001  0.0074812  0.0000000  )
         5        Mg     tau(   5) = (  0.0000000  0.0044478  0.4999999  )
         6        Mg     tau(   6) = (  0.5000000  0.0044478  0.4999999  )
         7        Mg     tau(   7) = (  0.5000000  0.3331863  0.4999999  )
         8        Mg     tau(   8) = (  0.0000000  0.6652891  0.4999999  )
         9        Mg     tau(   9) = (  0.5000000  0.6652891  0.4999999  )
        10        Mg     tau(  10) = (  0.7500001  0.4929690  0.4999999  )
        11        Mg     tau(  11) = (  0.2500001  0.8345609  0.4999999  )
        12        Mg     tau(  12) = (  0.7500001  0.8345609  0.4999999  )
        13        Mg     tau(  13) = (  0.2500001  0.1725679  0.4999999  )
        14        Mg     tau(  14) = (  0.7500001  0.1725679  0.4999999  )
        15        Si     tau(  15) = (  0.0423040  0.1649326  0.2266660  )
        16        Si     tau(  16) = (  0.5423040  0.1649326  0.2266660  )
        17        Si     tau(  17) = (  0.4576963  0.1649326  0.7733338  )
        18        Si     tau(  18) = (  0.9576963  0.1649326  0.7733338  )
        19        Si     tau(  19) = (  0.4670450  0.8341796  0.7667026  )
        20        Si     tau(  20) = (  0.9670450  0.8341796  0.7667026  )
        21        Si     tau(  21) = (  0.0329553  0.8341796  0.2332971  )
        22        Si     tau(  22) = (  0.5329553  0.8341796  0.2332971  )
        23        Si     tau(  23) = (  0.2823282  0.6665434  0.2310965  )
        24        Si     tau(  24) = (  0.7823282  0.6665434  0.2310965  )
        25        Si     tau(  25) = (  0.2176721  0.6665434  0.7689033  )
        26        Si     tau(  26) = (  0.7176721  0.6665434  0.7689033  )
        27        Al     tau(  27) = (  0.2068856  0.3309693  0.7713152  )
        28        Al     tau(  28) = (  0.7068856  0.3309693  0.7713152  )
        29        Al     tau(  29) = (  0.2931147  0.3309693  0.2286845  )
        30        Al     tau(  30) = (  0.7931147  0.3309693  0.2286845  )
        31        O      tau(  31) = (  0.0637718  0.1638977  0.3859733  )
        32        O      tau(  32) = (  0.5637718  0.1638977  0.3859733  )
        33        O      tau(  33) = (  0.4362285  0.1638977  0.6140264  )
        34        O      tau(  34) = (  0.9362285  0.1638977  0.6140264  )
        35        O      tau(  35) = (  0.4372481  0.8331672  0.6087109  )
        36        O      tau(  36) = (  0.9372481  0.8331672  0.6087109  )
        37        O      tau(  37) = (  0.0627522  0.8331672  0.3912888  )
        38        O      tau(  38) = (  0.5627522  0.8331672  0.3912888  )
        39        O      tau(  39) = (  0.3126054  0.6691179  0.3897827  )
        40        O      tau(  40) = (  0.8126054  0.6691179  0.3897827  )
        41        O      tau(  41) = (  0.1873949  0.6691179  0.6102171  )
        42        O      tau(  42) = (  0.6873950  0.6691179  0.6102171  )
        43        O      tau(  43) = (  0.1803979  0.3326710  0.6023124  )
        44        O      tau(  44) = (  0.6803979  0.3326710  0.6023124  )
        45        O      tau(  45) = (  0.3196025  0.3326710  0.3976873  )
        46        O      tau(  46) = (  0.8196025  0.3326710  0.3976873  )
        47        O      tau(  47) = (  0.1710489  0.2050590  0.1698143  )
        48        O      tau(  48) = (  0.6710489  0.2050590  0.1698143  )
        49        O      tau(  49) = (  0.3289514  0.2050590  0.8301854  )
        50        O      tau(  50) = (  0.8289514  0.2050590  0.8301854  )
        51        O      tau(  51) = (  0.0010983  0.9969785  0.1729487  )
        52        O      tau(  52) = (  0.5010983  0.9969785  0.1729487  )
        53        O      tau(  53) = (  0.4989020  0.9969785  0.8270510  )
        54        O      tau(  54) = (  0.9989020  0.9969785  0.8270510  )
        55        O      tau(  55) = (  0.3428563  0.7717986  0.8254901  )
        56        O      tau(  56) = (  0.8428563  0.7717986  0.8254901  )
        57        O      tau(  57) = (  0.1571440  0.7717986  0.1745096  )
        58        O      tau(  58) = (  0.6571440  0.7717986  0.1745096  )
        59        O      tau(  59) = (  0.4065988  0.7351828  0.1737097  )
        60        O      tau(  60) = (  0.9065988  0.7351828  0.1737097  )
        61        O      tau(  61) = (  0.0934015  0.7351828  0.8262901  )
        62        O      tau(  62) = (  0.5934016  0.7351828  0.8262901  )
        63        O      tau(  63) = (  0.2517278  0.5078424  0.1675025  )
        64        O      tau(  64) = (  0.7517278  0.5078424  0.1675025  )
        65        O      tau(  65) = (  0.2482725  0.5078424  0.8324972  )
        66        O      tau(  66) = (  0.7482725  0.5078424  0.8324972  )
        67        O      tau(  67) = (  0.0720460  0.2741658  0.8360752  )
        68        O      tau(  68) = (  0.5720460  0.2741658  0.8360752  )
        69        O      tau(  69) = (  0.4279543  0.2741658  0.1639245  )
        70        O      tau(  70) = (  0.9279543  0.2741658  0.1639245  )
        71        O      tau(  71) = (  0.0656639  0.5041353  0.3967027  )
        72        O      tau(  72) = (  0.5656639  0.5041353  0.3967027  )
        73        O      tau(  73) = (  0.4343364  0.5041353  0.6032971  )
        74        O      tau(  74) = (  0.9343364  0.5041353  0.6032971  )
        75        O      tau(  75) = (  0.3166884  0.9995729  0.3999370  )
        76        O      tau(  76) = (  0.8166884  0.9995729  0.3999370  )
        77        O      tau(  77) = (  0.1833119  0.9995729  0.6000628  )
        78        O      tau(  78) = (  0.6833119  0.9995729  0.6000628  )
        79        H      tau(  79) = (  0.0504803  0.4952470  0.3029032  )
        80        H      tau(  80) = (  0.5504804  0.4952470  0.3029032  )
        81        H      tau(  81) = (  0.4495200  0.4952470  0.6970965  )
        82        H      tau(  82) = (  0.9495200  0.4952470  0.6970965  )
        83        H      tau(  83) = (  0.2986258  0.0144625  0.3066933  )
        84        H      tau(  84) = (  0.7986258  0.0144625  0.3066933  )
        85        H      tau(  85) = (  0.2013745  0.0144625  0.6933065  )
        86        H      tau(  86) = (  0.7013745  0.0144625  0.6933065  )
        87        Ti     tau(  87) = (  0.0000000  0.3331863  0.4999999  )

     number of k points=    14  Gaussian smearing, width (Ry)=  0.0010
                       cart. coord. in units 2pi/alat
        k(    1) = (   0.0000000   0.0000000   0.0000000), wk =   0.0370370
        k(    2) = (   0.0000000   0.0000000   0.3460725), wk =   0.0740741
        k(    3) = (   0.0000000   0.3840243   0.0000000), wk =   0.0740741
        k(    4) = (   0.0000000   0.3840243   0.3460725), wk =   0.0740741
        k(    5) = (   0.3333333   0.0000000   0.0595920), wk =   0.0740741
        k(    6) = (   0.3333333   0.0000000   0.4056644), wk =   0.0740741
        k(    7) = (   0.3333333   0.0000000  -0.2864805), wk =   0.0740741
        k(    8) = (   0.3333333   0.3840243   0.0595920), wk =   0.0740741
        k(    9) = (   0.3333333   0.3840243   0.4056644), wk =   0.0740741
        k(   10) = (   0.3333333   0.3840243  -0.2864805), wk =   0.0740741
        k(   11) = (   0.0000000   0.3840243  -0.3460725), wk =   0.0740741
        k(   12) = (  -0.3333333   0.3840243  -0.0595920), wk =   0.0740741
        k(   13) = (  -0.3333333   0.3840243  -0.4056644), wk =   0.0740741
        k(   14) = (  -0.3333333   0.3840243   0.2864805), wk =   0.0740741

                       cryst. coord.
        k(    1) = (   0.0000000   0.0000000   0.0000000), wk =   0.0370370
        k(    2) = (   0.0000000   0.0000000   0.3333333), wk =   0.0740741
        k(    3) = (   0.0000000   0.3333333   0.0000000), wk =   0.0740741
        k(    4) = (   0.0000000   0.3333333   0.3333333), wk =   0.0740741
        k(    5) = (   0.3333333   0.0000000   0.0000000), wk =   0.0740741
        k(    6) = (   0.3333333   0.0000000   0.3333333), wk =   0.0740741
        k(    7) = (   0.3333333   0.0000000  -0.3333333), wk =   0.0740741
        k(    8) = (   0.3333333   0.3333333   0.0000000), wk =   0.0740741
        k(    9) = (   0.3333333   0.3333333   0.3333333), wk =   0.0740741
        k(   10) = (   0.3333333   0.3333333  -0.3333333), wk =   0.0740741
        k(   11) = (   0.0000000   0.3333333  -0.3333333), wk =   0.0740741
        k(   12) = (  -0.3333333   0.3333333  -0.0000000), wk =   0.0740741
        k(   13) = (  -0.3333333   0.3333333  -0.3333333), wk =   0.0740741
        k(   14) = (  -0.3333333   0.3333333   0.3333333), wk =   0.0740741

     Dense  grid:  1210685 G-vectors     FFT dimensions: ( 144, 125, 144)

     Smooth grid:   428009 G-vectors     FFT dimensions: ( 100,  90, 100)

     Dynamical RAM for                 wfc:      41.09 MB

     Dynamical RAM for     wfc (w. buffer):    1191.64 MB

     Dynamical RAM for           str. fact:      21.55 MB

     Dynamical RAM for           local pot:       0.00 MB

     Dynamical RAM for          nlocal pot:     116.74 MB

     Dynamical RAM for                qrad:      12.30 MB

     Dynamical RAM for          rho,v,vnew:      38.25 MB

     Dynamical RAM for               rhoin:      12.75 MB

     Dynamical RAM for            rho*nmix:      98.53 MB

     Dynamical RAM for           G-vectors:      12.09 MB

     Dynamical RAM for          h,s,v(r/c):       4.17 MB

     Dynamical RAM for          <psi|beta>:       3.95 MB

     Dynamical RAM for                 psi:      82.18 MB

     Dynamical RAM for                hpsi:      82.18 MB

     Dynamical RAM for                spsi:      82.18 MB

     Dynamical RAM for      wfcinit/wfcrot:      99.78 MB

     Dynamical RAM for           addusdens:     723.55 MB

     Dynamical RAM for          addusforce:    1013.34 MB

     Estimated static dynamical RAM per process >       1.42 GB

     Estimated max dynamical RAM per process >       2.50 GB

     Estimated total dynamical RAM >      15.01 GB

     Check: negative core charge=   -0.000004
     Generating pointlists ...
     new r_m :   0.0672 (alat units)  1.3518 (a.u.) for type    1
     new r_m :   0.0785 (alat units)  1.5799 (a.u.) for type    2
     new r_m :   0.0374 (alat units)  0.7529 (a.u.) for type    3
     new r_m :   0.1075 (alat units)  2.1630 (a.u.) for type    4
     new r_m :   0.0785 (alat units)  1.5799 (a.u.) for type    5
     new r_m :   0.0374 (alat units)  0.7529 (a.u.) for type    6
     new r_m :   0.0627 (alat units)  1.2623 (a.u.) for type    7

     Initial potential from superposition of free atoms

     starting charge     503.8979, renormalised to     504.0000
     Starting wfcs are  356 randomized atomic wfcs
     Checking if some PAW data can be deallocated... 
       PAW data deallocated on    5 nodes for type:  1
       PAW data deallocated on    5 nodes for type:  2
       PAW data deallocated on    5 nodes for type:  3
       PAW data deallocated on    5 nodes for type:  4
       PAW data deallocated on    5 nodes for type:  5
       PAW data deallocated on    2 nodes for type:  6
       PAW data deallocated on    4 nodes for type:  7

     total cpu time spent up to now is      793.4 secs

     Self-consistent Calculation

     iteration #  1     ecut=    60.00 Ry     beta= 0.70
     Davidson diagonalization with overlap

---- Real-time Memory Report at c_bands before calling an iterative solver
          1570 MiB given to the printing process from OS
             0 MiB allocation reported by mallinfo(arena+hblkhd)
          2570 MiB available memory on the node where the printing process lives
------------------
     ethr =  1.00E-02,  avg # of iterations =  5.8

     total cpu time spent up to now is     3386.6 secs

     total energy              =   -4771.54377248 Ry
     estimated scf accuracy    <      26.62931479 Ry

     total magnetization       =    -0.00 Bohr mag/cell
     absolute magnetization    =     0.46 Bohr mag/cell

     iteration #  2     ecut=    60.00 Ry     beta= 0.70
     Davidson diagonalization with overlap

---- Real-time Memory Report at c_bands before calling an iterative solver
          2158 MiB given to the printing process from OS
             0 MiB allocation reported by mallinfo(arena+hblkhd)
          3572 MiB available memory on the node where the printing process lives
------------------
     ethr =  5.28E-03,  avg # of iterations =  5.9

     total cpu time spent up to now is     7577.4 secs

     total energy              =   -4764.69020587 Ry
     estimated scf accuracy    <     114.32179527 Ry

     total magnetization       =     0.00 Bohr mag/cell
     absolute magnetization    =     0.39 Bohr mag/cell

     iteration #  3     ecut=    60.00 Ry     beta= 0.70
     Davidson diagonalization with overlap

---- Real-time Memory Report at c_bands before calling an iterative solver
          2164 MiB given to the printing process from OS
             0 MiB allocation reported by mallinfo(arena+hblkhd)
          3404 MiB available memory on the node where the printing process lives
------------------
     ethr =  5.28E-03,  avg # of iterations =  5.1

     total cpu time spent up to now is     9920.6 secs

     total energy              =   -4781.71696525 Ry
     estimated scf accuracy    <      34.07811132 Ry

     total magnetization       =     0.00 Bohr mag/cell
     absolute magnetization    =     0.43 Bohr mag/cell

     iteration #  4     ecut=    60.00 Ry     beta= 0.70
     Davidson diagonalization with overlap

---- Real-time Memory Report at c_bands before calling an iterative solver
          2168 MiB given to the printing process from OS
             0 MiB allocation reported by mallinfo(arena+hblkhd)
          3633 MiB available memory on the node where the printing process lives
------------------
     ethr =  5.28E-03,  avg # of iterations =  2.0

     total cpu time spent up to now is    12179.0 secs

     total energy              =   -4786.64030011 Ry
     estimated scf accuracy    <       5.07222139 Ry

     total magnetization       =    -0.00 Bohr mag/cell
     absolute magnetization    =     0.37 Bohr mag/cell

     iteration #  5     ecut=    60.00 Ry     beta= 0.70
     Davidson diagonalization with overlap

---- Real-time Memory Report at c_bands before calling an iterative solver
          2173 MiB given to the printing process from OS
             0 MiB allocation reported by mallinfo(arena+hblkhd)
          3552 MiB available memory on the node where the printing process lives
------------------
     ethr =  1.01E-03,  avg # of iterations = 11.7

     total cpu time spent up to now is    15074.2 secs

     total energy              =   -4787.38048509 Ry
     estimated scf accuracy    <       2.11324678 Ry

     total magnetization       =    -0.00 Bohr mag/cell
     absolute magnetization    =     0.39 Bohr mag/cell

     iteration #  6     ecut=    60.00 Ry     beta= 0.70
     Davidson diagonalization with overlap

---- Real-time Memory Report at c_bands before calling an iterative solver
          2178 MiB given to the printing process from OS
             0 MiB allocation reported by mallinfo(arena+hblkhd)
          3598 MiB available memory on the node where the printing process lives
------------------
     ethr =  4.19E-04,  avg # of iterations = 11.9

     total cpu time spent up to now is    18192.9 secs

     total energy              =   -4787.68505775 Ry
     estimated scf accuracy    <       0.79580960 Ry

     total magnetization       =    -0.00 Bohr mag/cell
     absolute magnetization    =     0.24 Bohr mag/cell

     iteration #  7     ecut=    60.00 Ry     beta= 0.70
     Davidson diagonalization with overlap

---- Real-time Memory Report at c_bands before calling an iterative solver
          2183 MiB given to the printing process from OS
             0 MiB allocation reported by mallinfo(arena+hblkhd)
          3518 MiB available memory on the node where the printing process lives
------------------
     c_bands:  1 eigenvalues not converged
     c_bands:  1 eigenvalues not converged
     ethr =  1.58E-04,  avg # of iterations = 11.0

     total cpu time spent up to now is    21110.3 secs

     total energy              =   -4787.74772894 Ry
     estimated scf accuracy    <       0.31450589 Ry

     total magnetization       =     0.00 Bohr mag/cell
     absolute magnetization    =     0.15 Bohr mag/cell

     iteration #  8     ecut=    60.00 Ry     beta= 0.70
     Davidson diagonalization with overlap

---- Real-time Memory Report at c_bands before calling an iterative solver
          2188 MiB given to the printing process from OS
             0 MiB allocation reported by mallinfo(arena+hblkhd)
          3475 MiB available memory on the node where the printing process lives
------------------
     c_bands:  1 eigenvalues not converged
     ethr =  6.24E-05,  avg # of iterations = 10.0

     total cpu time spent up to now is    23948.3 secs

     total energy              =   -4787.75806303 Ry
     estimated scf accuracy    <       0.13597051 Ry

     total magnetization       =    -0.00 Bohr mag/cell
     absolute magnetization    =     0.12 Bohr mag/cell

     iteration #  9     ecut=    60.00 Ry     beta= 0.70
     Davidson diagonalization with overlap

---- Real-time Memory Report at c_bands before calling an iterative solver
          2192 MiB given to the printing process from OS
             0 MiB allocation reported by mallinfo(arena+hblkhd)
          3481 MiB available memory on the node where the printing process lives
------------------
     c_bands:  1 eigenvalues not converged
     c_bands:  1 eigenvalues not converged
     c_bands:  1 eigenvalues not converged
     c_bands:  2 eigenvalues not converged
     ethr =  2.70E-05,  avg # of iterations = 13.3

     total cpu time spent up to now is    27177.8 secs

     total energy              =   -4787.79484261 Ry
     estimated scf accuracy    <       2.86357382 Ry

     total magnetization       =     0.00 Bohr mag/cell
     absolute magnetization    =     0.06 Bohr mag/cell

     iteration # 10     ecut=    60.00 Ry     beta= 0.70
     Davidson diagonalization with overlap

---- Real-time Memory Report at c_bands before calling an iterative solver
          2197 MiB given to the printing process from OS
             0 MiB allocation reported by mallinfo(arena+hblkhd)
          3630 MiB available memory on the node where the printing process lives
------------------
     ethr =  2.70E-05,  avg # of iterations =  1.9

     total cpu time spent up to now is    29170.0 secs

     total energy              =   -4787.79954638 Ry
     estimated scf accuracy    <       0.04458209 Ry

     total magnetization       =     0.08 Bohr mag/cell
     absolute magnetization    =     0.17 Bohr mag/cell

     iteration # 11     ecut=    60.00 Ry     beta= 0.70
     Davidson diagonalization with overlap

---- Real-time Memory Report at c_bands before calling an iterative solver
          2201 MiB given to the printing process from OS
             0 MiB allocation reported by mallinfo(arena+hblkhd)
          3694 MiB available memory on the node where the printing process lives
------------------
     c_bands:  2 eigenvalues not converged
     c_bands:  1 eigenvalues not converged
     c_bands:  2 eigenvalues not converged
     c_bands:  1 eigenvalues not converged
     c_bands:  1 eigenvalues not converged
     c_bands:  2 eigenvalues not converged
     c_bands:  2 eigenvalues not converged
     c_bands:  3 eigenvalues not converged
     c_bands:  1 eigenvalues not converged
     c_bands:  2 eigenvalues not converged
     c_bands:  2 eigenvalues not converged
     ethr =  8.85E-06,  avg # of iterations = 15.5

     total cpu time spent up to now is    31821.7 secs

     total energy              =   -4787.80105292 Ry
     estimated scf accuracy    <       0.04643882 Ry

     total magnetization       =     0.00 Bohr mag/cell
     absolute magnetization    =     0.05 Bohr mag/cell

     iteration # 12     ecut=    60.00 Ry     beta= 0.70
     Davidson diagonalization with overlap

---- Real-time Memory Report at c_bands before calling an iterative solver
          2201 MiB given to the printing process from OS
             0 MiB allocation reported by mallinfo(arena+hblkhd)
          3510 MiB available memory on the node where the printing process lives
------------------
     ethr =  8.85E-06,  avg # of iterations =  2.0

     total cpu time spent up to now is    33873.8 secs

     total energy              =   -4787.79954625 Ry
     estimated scf accuracy    <       0.02851614 Ry

     total magnetization       =     0.00 Bohr mag/cell
     absolute magnetization    =     0.05 Bohr mag/cell

     iteration # 13     ecut=    60.00 Ry     beta= 0.70
     Davidson diagonalization with overlap

---- Real-time Memory Report at c_bands before calling an iterative solver
          2201 MiB given to the printing process from OS
             0 MiB allocation reported by mallinfo(arena+hblkhd)
          3623 MiB available memory on the node where the printing process lives
------------------
     c_bands:  1 eigenvalues not converged
     ethr =  5.66E-06,  avg # of iterations =  3.0

     total cpu time spent up to now is    36092.2 secs

     total energy              =   -4787.80086255 Ry
     estimated scf accuracy    <       0.02649985 Ry

     total magnetization       =    -0.00 Bohr mag/cell
     absolute magnetization    =     0.02 Bohr mag/cell

     iteration # 14     ecut=    60.00 Ry     beta= 0.70
     Davidson diagonalization with overlap

---- Real-time Memory Report at c_bands before calling an iterative solver
          2201 MiB given to the printing process from OS
             0 MiB allocation reported by mallinfo(arena+hblkhd)
          3573 MiB available memory on the node where the printing process lives
------------------
     ethr =  5.26E-06,  avg # of iterations =  2.0

     total cpu time spent up to now is    38125.8 secs

     total energy              =   -4787.80208412 Ry
     estimated scf accuracy    <       0.01633992 Ry

     total magnetization       =     0.00 Bohr mag/cell
     absolute magnetization    =     0.01 Bohr mag/cell

     iteration # 15     ecut=    60.00 Ry     beta= 0.70
     Davidson diagonalization with overlap

---- Real-time Memory Report at c_bands before calling an iterative solver
          2201 MiB given to the printing process from OS
             0 MiB allocation reported by mallinfo(arena+hblkhd)
          3673 MiB available memory on the node where the printing process lives
------------------
     c_bands:  5 eigenvalues not converged
     c_bands:  1 eigenvalues not converged
     c_bands:  1 eigenvalues not converged
     ethr =  3.24E-06,  avg # of iterations =  6.8

     total cpu time spent up to now is    40291.9 secs

     total energy              =   -4787.80246914 Ry
     estimated scf accuracy    <       0.01764873 Ry

     total magnetization       =     0.00 Bohr mag/cell
     absolute magnetization    =     0.01 Bohr mag/cell

     iteration # 16     ecut=    60.00 Ry     beta= 0.70
     Davidson diagonalization with overlap

---- Real-time Memory Report at c_bands before calling an iterative solver
          2201 MiB given to the printing process from OS
             0 MiB allocation reported by mallinfo(arena+hblkhd)
          3700 MiB available memory on the node where the printing process lives
------------------
     ethr =  3.24E-06,  avg # of iterations =  2.5

     total cpu time spent up to now is    42300.0 secs

     total energy              =   -4787.80251102 Ry
     estimated scf accuracy    <       0.01659695 Ry

     total magnetization       =     0.00 Bohr mag/cell
     absolute magnetization    =     0.01 Bohr mag/cell

     iteration # 17     ecut=    60.00 Ry     beta= 0.70
     Davidson diagonalization with overlap

---- Real-time Memory Report at c_bands before calling an iterative solver
          2201 MiB given to the printing process from OS
             0 MiB allocation reported by mallinfo(arena+hblkhd)
          3589 MiB available memory on the node where the printing process lives
------------------
     ethr =  3.24E-06,  avg # of iterations =  2.0

     total cpu time spent up to now is    44322.7 secs

     total energy              =   -4787.80246433 Ry
     estimated scf accuracy    <       0.01590271 Ry

     total magnetization       =     0.00 Bohr mag/cell
     absolute magnetization    =     0.01 Bohr mag/cell

     iteration # 18     ecut=    60.00 Ry     beta= 0.70
     Davidson diagonalization with overlap

---- Real-time Memory Report at c_bands before calling an iterative solver
          2201 MiB given to the printing process from OS
             0 MiB allocation reported by mallinfo(arena+hblkhd)
          3735 MiB available memory on the node where the printing process lives
------------------
     ethr =  3.16E-06,  avg # of iterations =  1.8

     total cpu time spent up to now is    46272.4 secs

     total energy              =   -4787.79818490 Ry
     estimated scf accuracy    <       0.01500391 Ry

     total magnetization       =     0.00 Bohr mag/cell
     absolute magnetization    =     0.01 Bohr mag/cell

     iteration # 19     ecut=    60.00 Ry     beta= 0.70
     Davidson diagonalization with overlap

---- Real-time Memory Report at c_bands before calling an iterative solver
          2201 MiB given to the printing process from OS
             0 MiB allocation reported by mallinfo(arena+hblkhd)
          3568 MiB available memory on the node where the printing process lives
------------------
     c_bands:  3 eigenvalues not converged
     c_bands:  1 eigenvalues not converged
     c_bands:  3 eigenvalues not converged
     c_bands:  1 eigenvalues not converged
     c_bands:  5 eigenvalues not converged
     c_bands:  1 eigenvalues not converged
     ethr =  2.98E-06,  avg # of iterations = 12.3

     total cpu time spent up to now is    49593.5 secs

     total energy              =   -4787.76130723 Ry
     estimated scf accuracy    <       3.27482610 Ry

     total magnetization       =     0.00 Bohr mag/cell
     absolute magnetization    =     0.05 Bohr mag/cell

     iteration # 20     ecut=    60.00 Ry     beta= 0.70
     Davidson diagonalization with overlap

---- Real-time Memory Report at c_bands before calling an iterative solver
          2201 MiB given to the printing process from OS
             0 MiB allocation reported by mallinfo(arena+hblkhd)
          3657 MiB available memory on the node where the printing process lives
------------------
     c_bands:  1 eigenvalues not converged
     ethr =  2.98E-06,  avg # of iterations =  7.6

     total cpu time spent up to now is    52084.5 secs

     total energy              =   -4787.80174218 Ry
     estimated scf accuracy    <       0.01274611 Ry

     total magnetization       =    -0.00 Bohr mag/cell
     absolute magnetization    =     0.02 Bohr mag/cell

     iteration # 21     ecut=    60.00 Ry     beta= 0.70
     Davidson diagonalization with overlap

---- Real-time Memory Report at c_bands before calling an iterative solver
          2201 MiB given to the printing process from OS
             0 MiB allocation reported by mallinfo(arena+hblkhd)
          3754 MiB available memory on the node where the printing process lives
------------------
     ethr =  2.53E-06,  avg # of iterations =  2.0

     total cpu time spent up to now is    54101.4 secs

     total energy              =   -4787.80210871 Ry
     estimated scf accuracy    <       0.01236023 Ry

     total magnetization       =     0.00 Bohr mag/cell
     absolute magnetization    =     0.01 Bohr mag/cell

     iteration # 22     ecut=    60.00 Ry     beta= 0.70
     Davidson diagonalization with overlap

---- Real-time Memory Report at c_bands before calling an iterative solver
          2201 MiB given to the printing process from OS
             0 MiB allocation reported by mallinfo(arena+hblkhd)
          3651 MiB available memory on the node where the printing process lives
------------------
     ethr =  2.45E-06,  avg # of iterations =  1.6

     total cpu time spent up to now is    56001.2 secs

     total energy              =   -4787.80217738 Ry
     estimated scf accuracy    <       0.01272217 Ry

     total magnetization       =     0.00 Bohr mag/cell
     absolute magnetization    =     0.01 Bohr mag/cell

     iteration # 23     ecut=    60.00 Ry     beta= 0.70
     Davidson diagonalization with overlap

---- Real-time Memory Report at c_bands before calling an iterative solver
          2201 MiB given to the printing process from OS
             0 MiB allocation reported by mallinfo(arena+hblkhd)
          3487 MiB available memory on the node where the printing process lives
------------------
     ethr =  2.45E-06,  avg # of iterations =  1.2

     total cpu time spent up to now is    57812.4 secs

     total energy              =   -4787.80219605 Ry
     estimated scf accuracy    <       0.01206154 Ry

     total magnetization       =     0.00 Bohr mag/cell
     absolute magnetization    =     0.00 Bohr mag/cell

     iteration # 24     ecut=    60.00 Ry     beta= 0.70
     Davidson diagonalization with overlap

---- Real-time Memory Report at c_bands before calling an iterative solver
          2201 MiB given to the printing process from OS
             0 MiB allocation reported by mallinfo(arena+hblkhd)
          3618 MiB available memory on the node where the printing process lives
------------------
     ethr =  2.39E-06,  avg # of iterations =  1.4

     total cpu time spent up to now is    59663.7 secs

     total energy              =   -4787.80194823 Ry
     estimated scf accuracy    <       0.01193211 Ry

     total magnetization       =    -0.00 Bohr mag/cell
     absolute magnetization    =     0.00 Bohr mag/cell

     iteration # 25     ecut=    60.00 Ry     beta= 0.70
     Davidson diagonalization with overlap

---- Real-time Memory Report at c_bands before calling an iterative solver
          2201 MiB given to the printing process from OS
             0 MiB allocation reported by mallinfo(arena+hblkhd)
          3747 MiB available memory on the node where the printing process lives
------------------
     ethr =  2.37E-06,  avg # of iterations =  1.1

     total cpu time spent up to now is    61427.9 secs

     total energy              =   -4787.80183064 Ry
     estimated scf accuracy    <       0.01056569 Ry

     total magnetization       =     0.00 Bohr mag/cell
     absolute magnetization    =     0.00 Bohr mag/cell

     iteration # 26     ecut=    60.00 Ry     beta= 0.70
     Davidson diagonalization with overlap

---- Real-time Memory Report at c_bands before calling an iterative solver
          2201 MiB given to the printing process from OS
             0 MiB allocation reported by mallinfo(arena+hblkhd)
          3690 MiB available memory on the node where the printing process lives
------------------
     ethr =  2.10E-06,  avg # of iterations =  1.2

     total cpu time spent up to now is    63240.8 secs

     total energy              =   -4787.80174803 Ry
     estimated scf accuracy    <       0.00985647 Ry

     total magnetization       =     0.00 Bohr mag/cell
     absolute magnetization    =     0.00 Bohr mag/cell

     iteration # 27     ecut=    60.00 Ry     beta= 0.70
     Davidson diagonalization with overlap

---- Real-time Memory Report at c_bands before calling an iterative solver
          2201 MiB given to the printing process from OS
             0 MiB allocation reported by mallinfo(arena+hblkhd)
          3721 MiB available memory on the node where the printing process lives
------------------
     ethr =  1.96E-06,  avg # of iterations =  1.1

     total cpu time spent up to now is    65014.2 secs

     total energy              =   -4787.80185278 Ry
     estimated scf accuracy    <       0.00930091 Ry

     total magnetization       =     0.00 Bohr mag/cell
     absolute magnetization    =     0.00 Bohr mag/cell

     iteration # 28     ecut=    60.00 Ry     beta= 0.70
     Davidson diagonalization with overlap

---- Real-time Memory Report at c_bands before calling an iterative solver
          2201 MiB given to the printing process from OS
             0 MiB allocation reported by mallinfo(arena+hblkhd)
          3675 MiB available memory on the node where the printing process lives
------------------
     ethr =  1.85E-06,  avg # of iterations =  1.3

     total cpu time spent up to now is    66836.3 secs

     total energy              =   -4787.79842775 Ry
     estimated scf accuracy    <       0.00973482 Ry

     total magnetization       =     0.00 Bohr mag/cell
     absolute magnetization    =     0.00 Bohr mag/cell

     iteration # 29     ecut=    60.00 Ry     beta= 0.70
     Davidson diagonalization with overlap

---- Real-time Memory Report at c_bands before calling an iterative solver
          2201 MiB given to the printing process from OS
             0 MiB allocation reported by mallinfo(arena+hblkhd)
          3638 MiB available memory on the node where the printing process lives
------------------
     ethr =  1.85E-06,  avg # of iterations =  4.9

     total cpu time spent up to now is    68982.3 secs

     total energy              =   -4787.78154977 Ry
     estimated scf accuracy    <       3.14741280 Ry

     total magnetization       =    -0.00 Bohr mag/cell
     absolute magnetization    =     0.01 Bohr mag/cell

     iteration # 30     ecut=    60.00 Ry     beta= 0.70
     Davidson diagonalization with overlap

---- Real-time Memory Report at c_bands before calling an iterative solver
          2201 MiB given to the printing process from OS
             0 MiB allocation reported by mallinfo(arena+hblkhd)
          3612 MiB available memory on the node where the printing process lives
------------------
     ethr =  1.85E-06,  avg # of iterations =  4.3

     total cpu time spent up to now is    71069.8 secs

     total energy              =   -4787.80152272 Ry
     estimated scf accuracy    <       0.00827220 Ry

     total magnetization       =     0.00 Bohr mag/cell
     absolute magnetization    =     0.00 Bohr mag/cell

     iteration # 31     ecut=    60.00 Ry     beta= 0.70
     Davidson diagonalization with overlap

---- Real-time Memory Report at c_bands before calling an iterative solver
          2201 MiB given to the printing process from OS
             0 MiB allocation reported by mallinfo(arena+hblkhd)
          3539 MiB available memory on the node where the printing process lives
------------------
     ethr =  1.64E-06,  avg # of iterations =  1.1

     total cpu time spent up to now is    72834.4 secs

     total energy              =   -4787.80164520 Ry
     estimated scf accuracy    <       0.00782133 Ry

     total magnetization       =     0.00 Bohr mag/cell
     absolute magnetization    =     0.00 Bohr mag/cell

     iteration # 32     ecut=    60.00 Ry     beta= 0.70
     Davidson diagonalization with overlap

---- Real-time Memory Report at c_bands before calling an iterative solver
          2201 MiB given to the printing process from OS
             0 MiB allocation reported by mallinfo(arena+hblkhd)
          3727 MiB available memory on the node where the printing process lives
------------------
     ethr =  1.55E-06,  avg # of iterations =  1.2

     total cpu time spent up to now is    74628.3 secs

     total energy              =   -4787.80158548 Ry
     estimated scf accuracy    <       0.00838660 Ry

     total magnetization       =     0.00 Bohr mag/cell
     absolute magnetization    =     0.00 Bohr mag/cell

     iteration # 33     ecut=    60.00 Ry     beta= 0.70
     Davidson diagonalization with overlap

---- Real-time Memory Report at c_bands before calling an iterative solver
          2201 MiB given to the printing process from OS
             0 MiB allocation reported by mallinfo(arena+hblkhd)
          3619 MiB available memory on the node where the printing process lives
------------------
     ethr =  1.55E-06,  avg # of iterations =  1.1

     total cpu time spent up to now is    76401.2 secs

     total energy              =   -4787.80156151 Ry
     estimated scf accuracy    <       0.00778317 Ry

     total magnetization       =     0.00 Bohr mag/cell
     absolute magnetization    =     0.00 Bohr mag/cell

     iteration # 34     ecut=    60.00 Ry     beta= 0.70
     Davidson diagonalization with overlap

---- Real-time Memory Report at c_bands before calling an iterative solver
          2201 MiB given to the printing process from OS
             0 MiB allocation reported by mallinfo(arena+hblkhd)
          3563 MiB available memory on the node where the printing process lives
------------------
     ethr =  1.54E-06,  avg # of iterations =  1.1

     total cpu time spent up to now is    78184.6 secs

     total energy              =   -4787.80147593 Ry
     estimated scf accuracy    <       0.00745939 Ry

     total magnetization       =    -0.00 Bohr mag/cell
     absolute magnetization    =     0.00 Bohr mag/cell

     iteration # 35     ecut=    60.00 Ry     beta= 0.70
     Davidson diagonalization with overlap

---- Real-time Memory Report at c_bands before calling an iterative solver
          2201 MiB given to the printing process from OS
             0 MiB allocation reported by mallinfo(arena+hblkhd)
          3689 MiB available memory on the node where the printing process lives
------------------
     ethr =  1.48E-06,  avg # of iterations =  1.0

     total cpu time spent up to now is    79939.9 secs

     total energy              =   -4787.80147846 Ry
     estimated scf accuracy    <       0.00551629 Ry

     total magnetization       =    -0.00 Bohr mag/cell
     absolute magnetization    =     0.00 Bohr mag/cell

     iteration # 36     ecut=    60.00 Ry     beta= 0.70
     Davidson diagonalization with overlap

---- Real-time Memory Report at c_bands before calling an iterative solver
          2201 MiB given to the printing process from OS
             0 MiB allocation reported by mallinfo(arena+hblkhd)
          3683 MiB available memory on the node where the printing process lives
------------------
     ethr =  1.09E-06,  avg # of iterations =  1.2

     total cpu time spent up to now is    81742.2 secs

     total energy              =   -4787.80148004 Ry
     estimated scf accuracy    <       0.00521751 Ry

     total magnetization       =     0.00 Bohr mag/cell
     absolute magnetization    =     0.00 Bohr mag/cell

     iteration # 37     ecut=    60.00 Ry     beta= 0.70
     Davidson diagonalization with overlap

---- Real-time Memory Report at c_bands before calling an iterative solver
          2201 MiB given to the printing process from OS
             0 MiB allocation reported by mallinfo(arena+hblkhd)
          3676 MiB available memory on the node where the printing process lives
------------------
     ethr =  1.04E-06,  avg # of iterations =  1.0

     total cpu time spent up to now is    83497.1 secs

     total energy              =   -4787.80150666 Ry
     estimated scf accuracy    <       0.00520638 Ry

     total magnetization       =     0.00 Bohr mag/cell
     absolute magnetization    =     0.00 Bohr mag/cell

     iteration # 38     ecut=    60.00 Ry     beta= 0.70
     Davidson diagonalization with overlap

---- Real-time Memory Report at c_bands before calling an iterative solver
          2201 MiB given to the printing process from OS
             0 MiB allocation reported by mallinfo(arena+hblkhd)
          3671 MiB available memory on the node where the printing process lives
------------------
     ethr =  1.03E-06,  avg # of iterations =  1.1

     total cpu time spent up to now is    85279.9 secs

     total energy              =   -4787.80089740 Ry
     estimated scf accuracy    <       0.00590158 Ry

     total magnetization       =     0.00 Bohr mag/cell
     absolute magnetization    =     0.00 Bohr mag/cell

     iteration # 39     ecut=    60.00 Ry     beta= 0.70
     Davidson diagonalization with overlap

---- Real-time Memory Report at c_bands before calling an iterative solver
          2201 MiB given to the printing process from OS
             0 MiB allocation reported by mallinfo(arena+hblkhd)
          3696 MiB available memory on the node where the printing process lives
------------------
     ethr =  1.03E-06,  avg # of iterations =  3.9

     total cpu time spent up to now is    87321.4 secs

     total energy              =   -4787.80276555 Ry
     estimated scf accuracy    <       0.63586027 Ry

     total magnetization       =    -0.88 Bohr mag/cell
     absolute magnetization    =     1.06 Bohr mag/cell

     iteration # 40     ecut=    60.00 Ry     beta= 0.70
     Davidson diagonalization with overlap

---- Real-time Memory Report at c_bands before calling an iterative solver
          2201 MiB given to the printing process from OS
             0 MiB allocation reported by mallinfo(arena+hblkhd)
          3812 MiB available memory on the node where the printing process lives
------------------
     ethr =  1.03E-06,  avg # of iterations =  1.6

     total cpu time spent up to now is    89244.1 secs

     total energy              =   -4787.80296183 Ry
     estimated scf accuracy    <       0.40700526 Ry

     total magnetization       =    -0.75 Bohr mag/cell
     absolute magnetization    =     0.85 Bohr mag/cell

     iteration # 41     ecut=    60.00 Ry     beta= 0.70
     Davidson diagonalization with overlap

---- Real-time Memory Report at c_bands before calling an iterative solver
          2201 MiB given to the printing process from OS
             0 MiB allocation reported by mallinfo(arena+hblkhd)
          3708 MiB available memory on the node where the printing process lives
------------------
     ethr =  1.03E-06,  avg # of iterations =  1.0

     total cpu time spent up to now is    91003.5 secs

     total energy              =   -4787.80271050 Ry
     estimated scf accuracy    <       0.47922196 Ry

     total magnetization       =    -0.85 Bohr mag/cell
     absolute magnetization    =     0.88 Bohr mag/cell

     iteration # 42     ecut=    60.00 Ry     beta= 0.70
     Davidson diagonalization with overlap

---- Real-time Memory Report at c_bands before calling an iterative solver
          2201 MiB given to the printing process from OS
             0 MiB allocation reported by mallinfo(arena+hblkhd)
          3725 MiB available memory on the node where the printing process lives
------------------
     ethr =  1.03E-06,  avg # of iterations =  1.2

     total cpu time spent up to now is    92795.9 secs

     total energy              =   -4787.80142409 Ry
     estimated scf accuracy    <       0.58581240 Ry

     total magnetization       =    -0.55 Bohr mag/cell
     absolute magnetization    =     1.24 Bohr mag/cell

     iteration # 43     ecut=    60.00 Ry     beta= 0.70
     Davidson diagonalization with overlap

---- Real-time Memory Report at c_bands before calling an iterative solver
          2201 MiB given to the printing process from OS
             0 MiB allocation reported by mallinfo(arena+hblkhd)
          3576 MiB available memory on the node where the printing process lives
------------------
     ethr =  1.03E-06,  avg # of iterations =  1.0

     total cpu time spent up to now is    94549.5 secs

     total energy              =   -4787.79972415 Ry
     estimated scf accuracy    <       0.37003429 Ry

     total magnetization       =    -0.56 Bohr mag/cell
     absolute magnetization    =     0.56 Bohr mag/cell

     iteration # 44     ecut=    60.00 Ry     beta= 0.70
     Davidson diagonalization with overlap

---- Real-time Memory Report at c_bands before calling an iterative solver
          2201 MiB given to the printing process from OS
             0 MiB allocation reported by mallinfo(arena+hblkhd)
          3453 MiB available memory on the node where the printing process lives
------------------
     ethr =  1.03E-06,  avg # of iterations =  1.6

     total cpu time spent up to now is    96456.3 secs

     total energy              =   -4787.80136093 Ry
     estimated scf accuracy    <       0.00200720 Ry

     total magnetization       =    -0.19 Bohr mag/cell
     absolute magnetization    =     0.19 Bohr mag/cell

     iteration # 45     ecut=    60.00 Ry     beta= 0.70
     Davidson diagonalization with overlap

---- Real-time Memory Report at c_bands before calling an iterative solver
          2201 MiB given to the printing process from OS
             0 MiB allocation reported by mallinfo(arena+hblkhd)
          3444 MiB available memory on the node where the printing process lives
------------------
     ethr =  3.98E-07,  avg # of iterations =  1.0

     total cpu time spent up to now is    98211.4 secs

     total energy              =   -4787.80140213 Ry
     estimated scf accuracy    <       0.00098531 Ry

     total magnetization       =    -0.18 Bohr mag/cell
     absolute magnetization    =     0.18 Bohr mag/cell

     iteration # 46     ecut=    60.00 Ry     beta= 0.70
     Davidson diagonalization with overlap

---- Real-time Memory Report at c_bands before calling an iterative solver
          2201 MiB given to the printing process from OS
             0 MiB allocation reported by mallinfo(arena+hblkhd)
          3653 MiB available memory on the node where the printing process lives
------------------
     ethr =  1.95E-07,  avg # of iterations =  1.8

     total cpu time spent up to now is   100172.9 secs

     total energy              =   -4787.80140266 Ry
     estimated scf accuracy    <       0.00025172 Ry

     total magnetization       =    -0.12 Bohr mag/cell
     absolute magnetization    =     0.12 Bohr mag/cell

     iteration # 47     ecut=    60.00 Ry     beta= 0.70
     Davidson diagonalization with overlap

---- Real-time Memory Report at c_bands before calling an iterative solver
          2201 MiB given to the printing process from OS
             0 MiB allocation reported by mallinfo(arena+hblkhd)
          3563 MiB available memory on the node where the printing process lives
------------------
     ethr =  4.99E-08,  avg # of iterations =  2.9

     total cpu time spent up to now is   102203.0 secs

     total energy              =   -4787.80140484 Ry
     estimated scf accuracy    <       0.00023039 Ry

     total magnetization       =    -0.11 Bohr mag/cell
     absolute magnetization    =     0.11 Bohr mag/cell

     iteration # 48     ecut=    60.00 Ry     beta= 0.70
     Davidson diagonalization with overlap

---- Real-time Memory Report at c_bands before calling an iterative solver
          2201 MiB given to the printing process from OS
             0 MiB allocation reported by mallinfo(arena+hblkhd)
          3648 MiB available memory on the node where the printing process lives
------------------
     ethr =  4.57E-08,  avg # of iterations =  2.0

     total cpu time spent up to now is   104218.7 secs

     total energy              =   -4787.80147827 Ry
     estimated scf accuracy    <       0.00539062 Ry

     total magnetization       =    -0.19 Bohr mag/cell
     absolute magnetization    =     0.19 Bohr mag/cell

     iteration # 49     ecut=    60.00 Ry     beta= 0.70
     Davidson diagonalization with overlap

---- Real-time Memory Report at c_bands before calling an iterative solver
          2201 MiB given to the printing process from OS
             0 MiB allocation reported by mallinfo(arena+hblkhd)
          3585 MiB available memory on the node where the printing process lives
------------------
     ethr =  4.57E-08,  avg # of iterations =  2.0

     total cpu time spent up to now is   106240.9 secs

     total energy              =   -4787.80167284 Ry
     estimated scf accuracy    <       0.00744408 Ry

     total magnetization       =    -0.19 Bohr mag/cell
     absolute magnetization    =     0.20 Bohr mag/cell

     iteration # 50     ecut=    60.00 Ry     beta= 0.70
     Davidson diagonalization with overlap

---- Real-time Memory Report at c_bands before calling an iterative solver
          2201 MiB given to the printing process from OS
             0 MiB allocation reported by mallinfo(arena+hblkhd)
          3568 MiB available memory on the node where the printing process lives
------------------
     ethr =  4.57E-08,  avg # of iterations =  5.0

     total cpu time spent up to now is   108327.0 secs

     total energy              =   -4787.80188463 Ry
     estimated scf accuracy    <       0.07583962 Ry

     total magnetization       =    -0.64 Bohr mag/cell
     absolute magnetization    =     0.64 Bohr mag/cell

     iteration # 51     ecut=    60.00 Ry     beta= 0.70
     Davidson diagonalization with overlap

---- Real-time Memory Report at c_bands before calling an iterative solver
          2201 MiB given to the printing process from OS
             0 MiB allocation reported by mallinfo(arena+hblkhd)
          3643 MiB available memory on the node where the printing process lives
------------------
     ethr =  4.57E-08,  avg # of iterations =  2.0

     total cpu time spent up to now is   110345.8 secs

     total energy              =   -4787.80192916 Ry
     estimated scf accuracy    <       0.08199628 Ry

     total magnetization       =    -0.62 Bohr mag/cell
     absolute magnetization    =     0.62 Bohr mag/cell

     iteration # 52     ecut=    60.00 Ry     beta= 0.70
     Davidson diagonalization with overlap

---- Real-time Memory Report at c_bands before calling an iterative solver
          2201 MiB given to the printing process from OS
             0 MiB allocation reported by mallinfo(arena+hblkhd)
          3675 MiB available memory on the node where the printing process lives
------------------
     ethr =  4.57E-08,  avg # of iterations =  3.4

     total cpu time spent up to now is   112402.8 secs

     total energy              =   -4787.80107532 Ry
     estimated scf accuracy    <       0.29288242 Ry

     total magnetization       =    -0.43 Bohr mag/cell
     absolute magnetization    =     1.00 Bohr mag/cell

     iteration # 53     ecut=    60.00 Ry     beta= 0.70
     Davidson diagonalization with overlap

---- Real-time Memory Report at c_bands before calling an iterative solver
          2201 MiB given to the printing process from OS
             0 MiB allocation reported by mallinfo(arena+hblkhd)
          3569 MiB available memory on the node where the printing process lives
------------------
     ethr =  4.57E-08,  avg # of iterations =  4.7

     total cpu time spent up to now is   114531.5 secs

     total energy              =   -4787.80075107 Ry
     estimated scf accuracy    <       0.16845413 Ry

     total magnetization       =    -0.17 Bohr mag/cell
     absolute magnetization    =     0.25 Bohr mag/cell

     iteration # 54     ecut=    60.00 Ry     beta= 0.70
     Davidson diagonalization with overlap

---- Real-time Memory Report at c_bands before calling an iterative solver
          2201 MiB given to the printing process from OS
             0 MiB allocation reported by mallinfo(arena+hblkhd)
          3595 MiB available memory on the node where the printing process lives
------------------
     ethr =  4.57E-08,  avg # of iterations =  4.6

     total cpu time spent up to now is   116603.3 secs

     total energy              =   -4787.80111086 Ry
     estimated scf accuracy    <       0.00738703 Ry

     total magnetization       =     0.11 Bohr mag/cell
     absolute magnetization    =     0.12 Bohr mag/cell

     iteration # 55     ecut=    60.00 Ry     beta= 0.70
     Davidson diagonalization with overlap

---- Real-time Memory Report at c_bands before calling an iterative solver
          2201 MiB given to the printing process from OS
             0 MiB allocation reported by mallinfo(arena+hblkhd)
          3784 MiB available memory on the node where the printing process lives
------------------
     ethr =  4.57E-08,  avg # of iterations =  2.1

     total cpu time spent up to now is   118631.1 secs

     total energy              =   -4787.80140834 Ry
     estimated scf accuracy    <       0.00131125 Ry

     total magnetization       =    -0.07 Bohr mag/cell
     absolute magnetization    =     0.07 Bohr mag/cell

     iteration # 56     ecut=    60.00 Ry     beta= 0.70
     Davidson diagonalization with overlap

---- Real-time Memory Report at c_bands before calling an iterative solver
          2201 MiB given to the printing process from OS
             0 MiB allocation reported by mallinfo(arena+hblkhd)
          3700 MiB available memory on the node where the printing process lives
------------------
     ethr =  4.57E-08,  avg # of iterations =  1.7

     total cpu time spent up to now is   120559.1 secs

     total energy              =   -4787.80138700 Ry
     estimated scf accuracy    <       0.00035089 Ry

     total magnetization       =    -0.08 Bohr mag/cell
     absolute magnetization    =     0.08 Bohr mag/cell

     iteration # 57     ecut=    60.00 Ry     beta= 0.70
     Davidson diagonalization with overlap

---- Real-time Memory Report at c_bands before calling an iterative solver
          2201 MiB given to the printing process from OS
             0 MiB allocation reported by mallinfo(arena+hblkhd)
          3656 MiB available memory on the node where the printing process lives
------------------
     ethr =  4.57E-08,  avg # of iterations =  1.4

     total cpu time spent up to now is   122420.3 secs

     total energy              =   -4787.80137645 Ry
     estimated scf accuracy    <       0.00017449 Ry

     total magnetization       =    -0.06 Bohr mag/cell
     absolute magnetization    =     0.07 Bohr mag/cell

     iteration # 58     ecut=    60.00 Ry     beta= 0.70
     Davidson diagonalization with overlap

---- Real-time Memory Report at c_bands before calling an iterative solver
          2201 MiB given to the printing process from OS
             0 MiB allocation reported by mallinfo(arena+hblkhd)
          3642 MiB available memory on the node where the printing process lives
------------------
     ethr =  3.46E-08,  avg # of iterations =  1.1

     total cpu time spent up to now is   124193.6 secs

     total energy              =   -4787.80137439 Ry
     estimated scf accuracy    <       0.00005069 Ry

     total magnetization       =    -0.04 Bohr mag/cell
     absolute magnetization    =     0.05 Bohr mag/cell

     iteration # 59     ecut=    60.00 Ry     beta= 0.70
     Davidson diagonalization with overlap

---- Real-time Memory Report at c_bands before calling an iterative solver
          2201 MiB given to the printing process from OS
             0 MiB allocation reported by mallinfo(arena+hblkhd)
          3614 MiB available memory on the node where the printing process lives
------------------
     ethr =  1.01E-08,  avg # of iterations =  1.7

     total cpu time spent up to now is   126129.7 secs

     total energy              =   -4787.80137567 Ry
     estimated scf accuracy    <       0.00007355 Ry

     total magnetization       =    -0.01 Bohr mag/cell
     absolute magnetization    =     0.02 Bohr mag/cell

     iteration # 60     ecut=    60.00 Ry     beta= 0.70
     Davidson diagonalization with overlap

---- Real-time Memory Report at c_bands before calling an iterative solver
          2201 MiB given to the printing process from OS
             0 MiB allocation reported by mallinfo(arena+hblkhd)
          3735 MiB available memory on the node where the printing process lives
------------------
     ethr =  1.01E-08,  avg # of iterations =  1.5

     total cpu time spent up to now is   128000.3 secs

     total energy              =   -4787.80137793 Ry
     estimated scf accuracy    <       0.00001039 Ry

     total magnetization       =    -0.01 Bohr mag/cell
     absolute magnetization    =     0.01 Bohr mag/cell

     iteration # 61     ecut=    60.00 Ry     beta= 0.70
     Davidson diagonalization with overlap

---- Real-time Memory Report at c_bands before calling an iterative solver
          2201 MiB given to the printing process from OS
             0 MiB allocation reported by mallinfo(arena+hblkhd)
          3540 MiB available memory on the node where the printing process lives
------------------
     ethr =  2.06E-09,  avg # of iterations =  2.2

     total cpu time spent up to now is   130025.6 secs

     total energy              =   -4787.80137789 Ry
     estimated scf accuracy    <       0.00000223 Ry

     total magnetization       =    -0.01 Bohr mag/cell
     absolute magnetization    =     0.02 Bohr mag/cell

     iteration # 62     ecut=    60.00 Ry     beta= 0.70
     Davidson diagonalization with overlap

---- Real-time Memory Report at c_bands before calling an iterative solver
          2201 MiB given to the printing process from OS
[...]
     atom   77 type  6   force =     0.00003565    0.00002961    0.00006458
     atom   78 type  6   force =    -0.00003391   -0.00001565    0.00001329
     atom   79 type  3   force =     0.00000768    0.00000109   -0.00000598
     atom   80 type  3   force =    -0.00000679    0.00000268   -0.00000203
     atom   81 type  3   force =    -0.00000527   -0.00000183   -0.00000079
     atom   82 type  3   force =     0.00000829   -0.00000274    0.00000667
     atom   83 type  3   force =     0.00000086   -0.00000093    0.00000078
     atom   84 type  3   force =    -0.00000175   -0.00000569    0.00000072
     atom   85 type  3   force =     0.00000330    0.00000455   -0.00000060
     atom   86 type  3   force =    -0.00000271   -0.00000102    0.00000072
     atom   87 type  2   force =     0.00032860   -0.00003066    0.00023187

     DFT-D3 dispersion contribution to forces:
     atom    1 type  4   force =    -0.00045008    0.00063177   -0.00004418
     atom    2 type  4   force =     0.00040304    0.00087480    0.00004847
     atom    3 type  4   force =    -0.00014528   -0.00056173    0.00001830
     atom    4 type  4   force =     0.00014554   -0.00075617    0.00009802
     atom    5 type  5   force =    -0.00040277   -0.00022901   -0.00011982
     atom    6 type  5   force =     0.00034586    0.00025794    0.00008916
     atom    7 type  5   force =    -0.00084621    0.00140792    0.00001945
     atom    8 type  5   force =     0.00102936   -0.00132363   -0.00005885
     atom    9 type  5   force =    -0.00118872   -0.00188031    0.00004510
     atom   10 type  5   force =    -0.00024457   -0.00037355    0.00015918
     atom   11 type  5   force =     0.00005844    0.00001905   -0.00004509
     atom   12 type  5   force =    -0.00000712    0.00120286    0.00004955
     atom   13 type  5   force =     0.00054042    0.00053230   -0.00011121
     atom   14 type  5   force =    -0.00036767   -0.00051146    0.00003292
     atom   15 type  7   force =    -0.00023332   -0.00037516   -0.00041529
     atom   16 type  7   force =     0.00024121   -0.00016299   -0.00027212
     atom   17 type  7   force =     0.00014243   -0.00042095    0.00053716
     atom   18 type  7   force =    -0.00028374   -0.00022918    0.00038014
     atom   19 type  7   force =     0.00025947    0.00042355    0.00043645
     atom   20 type  7   force =    -0.00018243    0.00022360    0.00030896
     atom   21 type  7   force =    -0.00026016    0.00035238   -0.00039966
     atom   22 type  7   force =     0.00024330    0.00023755   -0.00031695
     atom   23 type  7   force =    -0.00032926   -0.00032355    0.00075781
     atom   24 type  7   force =    -0.00012612    0.00018444   -0.00022845
     atom   25 type  7   force =     0.00027598   -0.00033129   -0.00085767
     atom   26 type  7   force =     0.00046555    0.00022177    0.00027936
     atom   27 type  1   force =     0.00022103    0.00046075   -0.00187857
     atom   28 type  1   force =     0.00065771   -0.00008892   -0.00064950
     atom   29 type  1   force =    -0.00036529    0.00047333    0.00184125
     atom   30 type  1   force =    -0.00031268   -0.00002208    0.00071701
     atom   31 type  6   force =     0.00004485   -0.00021978    0.00036262
     atom   32 type  6   force =     0.00007169   -0.00001141    0.00043199
     atom   33 type  6   force =     0.00003612   -0.00008707   -0.00043433
     atom   34 type  6   force =    -0.00021447   -0.00020128   -0.00032891
     atom   35 type  6   force =     0.00006847    0.00011287   -0.00033833
     atom   36 type  6   force =    -0.00004941    0.00006536   -0.00039477
     atom   37 type  6   force =    -0.00005245    0.00013193    0.00036797
     atom   38 type  6   force =     0.00004493    0.00007870    0.00039138
     atom   39 type  6   force =    -0.00013530   -0.00023643    0.00060927
     atom   40 type  6   force =    -0.00013641    0.00002241    0.00035824
     atom   41 type  6   force =     0.00023622   -0.00027882   -0.00056261
     atom   42 type  6   force =     0.00006409    0.00000239   -0.00040209
     atom   43 type  6   force =     0.00049026    0.00036196   -0.00011747
     atom   44 type  6   force =     0.00003431   -0.00006541    0.00009758
     atom   45 type  6   force =    -0.00002954    0.00020832    0.00005529
     atom   46 type  6   force =    -0.00025639   -0.00008071   -0.00022510
     atom   47 type  6   force =    -0.00021752    0.00091771    0.00031323
     atom   48 type  6   force =    -0.00017979    0.00103529    0.00028134
     atom   49 type  6   force =     0.00014110    0.00097670   -0.00025162
     atom   50 type  6   force =     0.00028075    0.00101907   -0.00028882
     atom   51 type  6   force =     0.00085263    0.00009451    0.00013591
     atom   52 type  6   force =     0.00082037    0.00007133    0.00023822
     atom   53 type  6   force =    -0.00082690    0.00006084   -0.00025907
     atom   54 type  6   force =    -0.00081667    0.00010370   -0.00011085
     atom   55 type  6   force =     0.00037970   -0.00053015   -0.00007311
     atom   56 type  6   force =     0.00039707   -0.00053360   -0.00004121
     atom   57 type  6   force =    -0.00037002   -0.00046426    0.00006988
     atom   58 type  6   force =    -0.00037731   -0.00058273    0.00001138
     atom   59 type  6   force =    -0.00016840    0.00040875    0.00016241
     atom   60 type  6   force =    -0.00030640    0.00039326   -0.00006978
     atom   61 type  6   force =     0.00023958    0.00051327   -0.00009357
     atom   62 type  6   force =     0.00019528    0.00025059   -0.00003430
     atom   63 type  6   force =     0.00094717   -0.00045649    0.00051893
     atom   64 type  6   force =     0.00094713   -0.00046238    0.00034535
     atom   65 type  6   force =    -0.00088415   -0.00045582   -0.00052150
     atom   66 type  6   force =    -0.00098067   -0.00046722   -0.00037096
     atom   67 type  6   force =     0.00061400   -0.00067365   -0.00018322
     atom   68 type  6   force =     0.00064048   -0.00044318   -0.00048429
     atom   69 type  6   force =    -0.00057343   -0.00055198    0.00047380
     atom   70 type  6   force =    -0.00075650   -0.00062031    0.00017220
     atom   71 type  6   force =     0.00067549    0.00019010   -0.00027329
     atom   72 type  6   force =     0.00011842   -0.00002490   -0.00049655
     atom   73 type  6   force =    -0.00067736   -0.00000696    0.00005751
     atom   74 type  6   force =    -0.00026216    0.00015925    0.00072305
     atom   75 type  6   force =     0.00009547    0.00006430   -0.00057194
     atom   76 type  6   force =    -0.00001382   -0.00000245   -0.00055021
     atom   77 type  6   force =    -0.00003823   -0.00009247    0.00061664
     atom   78 type  6   force =    -0.00004230    0.00004062    0.00050478
     atom   79 type  3   force =     0.00018805    0.00038347    0.00020789
     atom   80 type  3   force =     0.00025132    0.00005154   -0.00033794
     atom   81 type  3   force =    -0.00028351    0.00005160   -0.00014927
     atom   82 type  3   force =    -0.00043522    0.00030087    0.00025634
     atom   83 type  3   force =    -0.00013834   -0.00039944   -0.00037947
     atom   84 type  3   force =     0.00011270   -0.00034798   -0.00033430
     atom   85 type  3   force =     0.00000289   -0.00034939    0.00035941
     atom   86 type  3   force =    -0.00000180   -0.00036844    0.00031756
     atom   87 type  2   force =     0.00094998    0.00103000   -0.00018223

     Total force =     0.025160     Total SCF correction =     0.000625

     DFT-D3 dispersion Force =     0.007657
     Energy error            =      9.9E-04 Ry
     Gradient error          =      7.8E-03 Ry/Bohr

     number of scf cycles    =  13
     number of bfgs steps    =  12

     energy             old  =   -4787.9843326092 Ry
     energy             new  =   -4787.9853223348 Ry

     CASE: energy            _new < energy            _old

     new trust radius        =       0.0664681612 bohr
     new conv_thr            =       0.0000000778 Ry


ATOMIC_POSITIONS (crystal)
K                0.0018545429        0.4957961677        0.0002676818
K                0.4984031611        0.4922516097       -0.0010218643
K                0.2552493114        0.0045271526        0.0012079653
K                0.7447341849        0.0073724318       -0.0014948321
Mg               0.0000662392       -0.0031271288        0.5010567099
Mg               0.4988766439        0.0022682720        0.4991996584
Mg               0.4943441741        0.3391271470        0.5050058941
Mg               0.0065381612        0.6681402711        0.5001765098
Mg               0.4889995257        0.6589253133        0.5015300059
Mg               0.7442353753        0.4965869216        0.4988014526
Mg               0.2511012719        0.8287376531        0.4992437595
Mg               0.7478388356        0.8336116287        0.5004530250
Mg               0.2584492463        0.1738009635        0.5001789016
Mg               0.7448671175        0.1693694894        0.5003141231
Si               0.0410233918        0.1677350480        0.2196523542
Si               0.5411917525        0.1645240981        0.2269350659
Si               0.4598453150        0.1636595172        0.7755373051
Si               0.9574580114        0.1672846981        0.7736462933
Si               0.4669104639        0.8329762026        0.7683243006
Si               0.9671595042        0.8333725247        0.7687792507
Si               0.0338791355        0.8338668865        0.2307829737
Si               0.5316568770        0.8329387707        0.2321451744
Si               0.2832789268        0.6690157705        0.2290584021
Si               0.7830484808        0.6685095552        0.2329635802
Si               0.2159407700        0.6713191096        0.7688839876
Si               0.7175029315        0.6670244428        0.7688197650
Al               0.2068910056        0.3316690648        0.7766881496
Al               0.7043306484        0.3335061851        0.7682869470
Al               0.2954099209        0.3314552529        0.2311396419
Al               0.7924426827        0.3315175430        0.2267055033
O                0.0586922199        0.1752585971        0.3827732826
O                0.5649789131        0.1620347145        0.3859222167
O                0.4381503675        0.1618418474        0.6168101312
O                0.9383399426        0.1725319124        0.6113703817
O                0.4379349565        0.8340703395        0.6106557419
O                0.9366292356        0.8309100884        0.6103681853
O                0.0619001453        0.8324020648        0.3886714523
O                0.5618697190        0.8319205275        0.3900617041
O                0.3155093670        0.6834879361        0.3836693830
O                0.8142977406        0.6691780280        0.3917749760
O                0.1785917540        0.6855255585        0.6142645670
O                0.6923881372        0.6697656991        0.6104331979
O                0.1597709066        0.3183247479        0.6055049489
O                0.6837069617        0.3324936707        0.5992082368
O                0.3247373388        0.3179166222        0.3962915264
O                0.8265195334        0.3283802101        0.3994551754
O                0.1696091290        0.2081760906        0.1656087097
O                0.6723433597        0.2037027361        0.1726089769
O                0.3299106183        0.2074152717        0.8297106365
O                0.8269110273        0.2052014333        0.8258660436
O               -0.0010370367        0.9988943629        0.1757056067
O                0.5009436327        0.9966969023        0.1725437485
O                0.4983888716        0.9959041916        0.8297549410
O                1.0002569226        0.9993387392        0.8222955652
O                0.3435274262        0.7722726559        0.8297566776
O                0.8418356053        0.7747590212        0.8272955854
O                0.1559220702        0.7734099926        0.1686471284
O                0.6592595109        0.7746499862        0.1759334285
O                0.4070755950        0.7341194543        0.1654447939
O                0.9068119750        0.7354381616        0.1736398345
O                0.0926134015        0.7358969879        0.8338542537
O                0.5947500706        0.7362500891        0.8280046217
O                0.2502144087        0.5082246633        0.1690697611
O                0.7505999565        0.5088459889        0.1711178097
O                0.2452639969        0.5096656337        0.8283232273
O                0.7520302239        0.5082268822        0.8317610563
O                0.0706437624        0.2762964822        0.8395483908
O                0.5751633989        0.2706184612        0.8394906187
O                0.4283001331        0.2739994614        0.1604780439
O                0.9258928879        0.2758586641        0.1596533807
O                0.0421870284        0.4931065444        0.3887350981
O                0.5654603506        0.5040651622        0.3960582889
O                0.4590392518        0.5027977025        0.6209730497
O                0.9386145067        0.4946836051        0.5980618200
O                0.3150966795        0.9995552896        0.4009757738
O                0.8187786058        0.9999149464        0.4029320506
O                0.1823120833        1.0042626943        0.5947969375
O                0.6838116399        0.9992446037        0.6002972990
H                0.0622604255        0.4878791196        0.3017513054
H                0.5461046921        0.4956819561        0.3022295705
H                0.4480438604        0.4975059010        0.7104037198
H                0.9560880179        0.4860248535        0.6924485198
H                0.3011600009        0.0129585863        0.3075642193
H                0.7990728923        0.0131117114        0.3094820179
H                0.2001635300        0.0138171823        0.6886853372
H                0.6997923026        0.0119041072        0.6937711653
Ti               0.0072500890        0.3328392962        0.4942078254



     Writing config-only to output data dir ./temp/phl-ti1-ti2-v4x2.save/ :
     XML data file
     NEW-OLD atomic charge density approx. for the potential

     Check: negative core charge=   -0.000004
     Generating pointlists ...

     total cpu time spent up to now is   498237.4 secs

     Self-consistent Calculation

     iteration #  1     ecut=    60.00 Ry     beta= 0.70
     Davidson diagonalization with overlap

---- Real-time Memory Report at c_bands before calling an iterative solver
          2201 MiB given to the printing process from OS
             0 MiB allocation reported by mallinfo(arena+hblkhd)
          4199 MiB available memory on the node where the printing process lives
------------------
     ethr =  1.00E-06,  avg # of iterations = 11.0

     total cpu time spent up to now is   504267.3 secs

     total energy              =   -4787.98597035 Ry
     estimated scf accuracy    <       0.00138913 Ry

     total magnetization       =    -0.00 Bohr mag/cell
     absolute magnetization    =     0.00 Bohr mag/cell

     iteration #  2     ecut=    60.00 Ry     beta= 0.70
     Davidson diagonalization with overlap

---- Real-time Memory Report at c_bands before calling an iterative solver
          2201 MiB given to the printing process from OS
             0 MiB allocation reported by mallinfo(arena+hblkhd)
          3866 MiB available memory on the node where the printing process lives
------------------
     ethr =  2.76E-07,  avg # of iterations =  7.0

     total cpu time spent up to now is   506765.3 secs

     total energy              =   -4787.98619858 Ry
     estimated scf accuracy    <       0.00028568 Ry

     total magnetization       =     0.00 Bohr mag/cell
     absolute magnetization    =     0.00 Bohr mag/cell

     iteration #  3     ecut=    60.00 Ry     beta= 0.70
     Davidson diagonalization with overlap

---- Real-time Memory Report at c_bands before calling an iterative solver
          2201 MiB given to the printing process from OS
             0 MiB allocation reported by mallinfo(arena+hblkhd)
          3632 MiB available memory on the node where the printing process lives
------------------
     ethr =  5.67E-08,  avg # of iterations =  8.4

     total cpu time spent up to now is   509432.0 secs

     total energy              =   -4787.98624746 Ry
     estimated scf accuracy    <       0.00056425 Ry

     total magnetization       =     0.00 Bohr mag/cell
     absolute magnetization    =     0.00 Bohr mag/cell

     iteration #  4     ecut=    60.00 Ry     beta= 0.70
     Davidson diagonalization with overlap

---- Real-time Memory Report at c_bands before calling an iterative solver
          2201 MiB given to the printing process from OS
             0 MiB allocation reported by mallinfo(arena+hblkhd)
          3781 MiB available memory on the node where the printing process lives
------------------
     ethr =  5.67E-08,  avg # of iterations =  2.0

     total cpu time spent up to now is   511489.8 secs

     total energy              =   -4787.98635419 Ry
     estimated scf accuracy    <       0.00005832 Ry

     total magnetization       =     0.00 Bohr mag/cell
     absolute magnetization    =     0.00 Bohr mag/cell

     iteration #  5     ecut=    60.00 Ry     beta= 0.70
     Davidson diagonalization with overlap

---- Real-time Memory Report at c_bands before calling an iterative solver
          2201 MiB given to the printing process from OS
             0 MiB allocation reported by mallinfo(arena+hblkhd)
          3685 MiB available memory on the node where the printing process lives
------------------
     ethr =  1.16E-08,  avg # of iterations =  9.0

     total cpu time spent up to now is   513996.8 secs

     total energy              =   -4787.98637375 Ry
     estimated scf accuracy    <       0.00000926 Ry

     total magnetization       =     0.00 Bohr mag/cell
     absolute magnetization    =     0.00 Bohr mag/cell

     iteration #  6     ecut=    60.00 Ry     beta= 0.70
     Davidson diagonalization with overlap

---- Real-time Memory Report at c_bands before calling an iterative solver
          2201 MiB given to the printing process from OS
             0 MiB allocation reported by mallinfo(arena+hblkhd)
          3703 MiB available memory on the node where the printing process lives
------------------
     ethr =  1.84E-09,  avg # of iterations =  9.4

     total cpu time spent up to now is   517186.2 secs

     total energy              =   -4787.98637823 Ry
     estimated scf accuracy    <       0.00000140 Ry

     total magnetization       =     0.00 Bohr mag/cell
     absolute magnetization    =     0.00 Bohr mag/cell

     iteration #  7     ecut=    60.00 Ry     beta= 0.70
     Davidson diagonalization with overlap

---- Real-time Memory Report at c_bands before calling an iterative solver
          2201 MiB given to the printing process from OS
             0 MiB allocation reported by mallinfo(arena+hblkhd)
          3593 MiB available memory on the node where the printing process lives
------------------
     ethr =  2.77E-10,  avg # of iterations =  7.5

     total cpu time spent up to now is   520318.7 secs

     total energy              =   -4787.98637883 Ry
     estimated scf accuracy    <       0.00000046 Ry

     total magnetization       =     0.00 Bohr mag/cell
     absolute magnetization    =     0.00 Bohr mag/cell

     iteration #  8     ecut=    60.00 Ry     beta= 0.70
     Davidson diagonalization with overlap

---- Real-time Memory Report at c_bands before calling an iterative solver
          2201 MiB given to the printing process from OS
             0 MiB allocation reported by mallinfo(arena+hblkhd)
          3622 MiB available memory on the node where the printing process lives
------------------
