
     Program PWSCF v.7.3.1 starts on 29Jan2025 at  6:50:28 

     This program is part of the open-source Quantum ESPRESSO suite
     for quantum simulation of materials; please cite
         "P. Giannozzi et al., J. Phys.:Condens. Matter 21 395502 (2009);
         "P. Giannozzi et al., J. Phys.:Condens. Matter 29 465901 (2017);
         "P. Giannozzi et al., J. Chem. Phys. 152 154105 (2020);
          URL http://www.quantum-espresso.org", 
     in publications or presentations arising from this work. More details at
     http://www.quantum-espresso.org/quote

     Parallel version (MPI), running on     6 processors

     MPI processes distributed on     1 nodes
     1917 MiB available memory on the printing compute node when the environment starts

     Reading input from vc_relax.in

     Current dimensions of program PWSCF are:
     Max number of different atomic species (ntypx) = 10
     Max number of k-points (npk) =  40000
     Max angular momentum in pseudopotentials (lmaxx) =  4
     file Al.pbe-n-kjpaw_psl.1.0.0.UPF: wavefunction(s)  3S 3P renormalized
     file Fe.pbe-spn-kjpaw_psl.1.0.0.UPF: wavefunction(s)  3P 3D renormalized
     file H.pbe-kjpaw_psl.1.0.0.UPF: wavefunction(s)  1S renormalized
     file K.pbe-spn-kjpaw_psl.1.0.0.UPF: wavefunction(s)  3S renormalized
     file Mg.pbe-spnl-kjpaw_psl.1.0.0.UPF: wavefunction(s)  2P renormalized
     file O.pbe-n-kjpaw_psl.1.0.0.UPF: wavefunction(s)  2S 2P renormalized
     file Si.pbe-n-kjpaw_psl.1.0.0.UPF: wavefunction(s)  3S 3P renormalized

     R & G space division:  proc/nbgrp/npool/nimage =       6
     Subspace diagonalization in iterative solution of the eigenvalue problem:
     one sub-group per band group will be used
     custom distributed-memory algorithm (size of sub-group:  2*  2 procs)


     Parallelization info
     --------------------
     sticks:   dense  smooth     PW     G-vecs:    dense   smooth      PW
     Min        1105     554    150                97744    34578    4918
     Max        1106     555    151                97745    34580    4920
     Sum        6633    3329    905               586467   207475   29511

     Using Slab Decomposition



     bravais-lattice index     =          -12
     lattice parameter (alat)  =      10.0136  a.u.
     unit-cell volume          =    3303.4414 (a.u.)^3
     number of atoms/cell      =           44
     number of atomic types    =            7
     number of electrons       =       262.00
     number of Kohn-Sham states=          157
     kinetic-energy cutoff     =      60.0000  Ry
     charge density cutoff     =     480.0000  Ry
     scf convergence threshold =      1.0E-06
     mixing beta               =       0.7000
     number of iterations used =            8  plain     mixing
     energy convergence thresh.=      1.0E-04
     force convergence thresh. =      1.0E-03
     press convergence thresh. =      5.0E-01
     Exchange-correlation= SLA  PW   PBX  PBC
                           (   1   4   3   4   0   0   0)
     nstep                     =           50


     celldm(1)=  10.013640  celldm(2)=   1.735306  celldm(3)=   1.926511
     celldm(4)=   0.000000  celldm(5)=  -0.177565  celldm(6)=   0.000000

     crystal axes: (cart. coord. in units of alat)
               a(1) = (   1.000000   0.000000   0.000000 )  
               a(2) = (   0.000000   1.735306   0.000000 )  
               a(3) = (  -0.342081   0.000000   1.895896 )  

     reciprocal axes: (cart. coord. in units 2 pi/alat)
               b(1) = (  1.000000 -0.000000  0.180432 )  
               b(2) = (  0.000000  0.576267 -0.000000 )  
               b(3) = (  0.000000  0.000000  0.527455 )  


     PseudoPot. # 1 for Al read from file:
     ./../../../pseudos/Al.pbe-n-kjpaw_psl.1.0.0.UPF
     MD5 check sum: 502b6b27b9c6270cab5dd1084b96fa6d
     Pseudo is Projector augmented-wave + core cor, Zval =  3.0
     Generated using &quot;atomic&quot; code by A. Dal Corso  v.6.3
     Shape of augmentation charge: PSQ
     Using radial grid of 1135 points,  6 beta functions with: 
                l(1) =   0
                l(2) =   0
                l(3) =   1
                l(4) =   1
                l(5) =   2
                l(6) =   2
     Q(r) pseudized with 0 coefficients 


     PseudoPot. # 2 for Fe read from file:
     ./../../../pseudos/Fe.pbe-spn-kjpaw_psl.1.0.0.UPF
     MD5 check sum: fc81f059e5c5069939230b1155715ae8
     Pseudo is Projector augmented-wave + core cor, Zval = 16.0
     Generated using &quot;atomic&quot; code by A. Dal Corso  v.6.3
     Shape of augmentation charge: PSQ
     Using radial grid of 1191 points,  6 beta functions with: 
                l(1) =   0
                l(2) =   0
                l(3) =   1
                l(4) =   1
                l(5) =   2
                l(6) =   2
     Q(r) pseudized with 0 coefficients 


     PseudoPot. # 3 for H  read from file:
     ./../../../pseudos/H.pbe-kjpaw_psl.1.0.0.UPF
     MD5 check sum: d81a744832360e4a8af0b0b5b123bc2a
     Pseudo is Projector augmented-wave, Zval =  1.0
     Generated using &quot;atomic&quot; code by A. Dal Corso  v.6.3MaX
     Shape of augmentation charge: PSQ
     Using radial grid of  929 points,  2 beta functions with: 
                l(1) =   0
                l(2) =   0
     Q(r) pseudized with 0 coefficients 


     PseudoPot. # 4 for K  read from file:
     ./../../../pseudos/K.pbe-spn-kjpaw_psl.1.0.0.UPF
     MD5 check sum: 34cc42130a09071ebe376fd42eb21491
     Pseudo is Projector augmented-wave + core cor, Zval =  9.0
     Generated using &quot;atomic&quot; code by A. Dal Corso  v.6.2.2
     Shape of augmentation charge: PSQ
     Using radial grid of 1165 points,  6 beta functions with: 
                l(1) =   0
                l(2) =   0
                l(3) =   1
                l(4) =   1
                l(5) =   2
                l(6) =   2
     Q(r) pseudized with 0 coefficients 


     PseudoPot. # 5 for Mg read from file:
     ./../../../pseudos/Mg.pbe-spnl-kjpaw_psl.1.0.0.UPF
     MD5 check sum: fda14e0d92a6a9a5ebed782e5a4b3067
     Pseudo is Projector augmented-wave + core cor, Zval = 10.0
     Generated using &quot;atomic&quot; code by A. Dal Corso  v.6.3
     Shape of augmentation charge: PSQ
     Using radial grid of 1129 points,  4 beta functions with: 
                l(1) =   0
                l(2) =   0
                l(3) =   1
                l(4) =   1
     Q(r) pseudized with 0 coefficients 


     PseudoPot. # 6 for O  read from file:
     ./../../../pseudos/O.pbe-n-kjpaw_psl.1.0.0.UPF
     MD5 check sum: e99d9cef9b487d1ca56f5b95ecd0fd7a
     Pseudo is Projector augmented-wave + core cor, Zval =  6.0
     Generated using &quot;atomic&quot; code by A. Dal Corso  v.6.3
     Shape of augmentation charge: PSQ
     Using radial grid of 1095 points,  4 beta functions with: 
                l(1) =   0
                l(2) =   0
                l(3) =   1
                l(4) =   1
     Q(r) pseudized with 0 coefficients 


     PseudoPot. # 7 for Si read from file:
     ./../../../pseudos/Si.pbe-n-kjpaw_psl.1.0.0.UPF
     MD5 check sum: c39c59da582df4a0d9f10159256ea34e
     Pseudo is Projector augmented-wave + core cor, Zval =  4.0
     Generated using &quot;atomic&quot; code by A. Dal Corso  v.6.3
     Shape of augmentation charge: PSQ
     Using radial grid of 1141 points,  6 beta functions with: 
                l(1) =   0
                l(2) =   0
                l(3) =   1
                l(4) =   1
                l(5) =   2
                l(6) =   2
     Q(r) pseudized with 0 coefficients 


     atomic species   valence    mass     pseudopotential
     Al                3.00    26.98154     Al( 1.00)
     Fe               16.00    55.84500     Fe( 1.00)
     H                 1.00     1.00794     H ( 1.00)
     K                 9.00    39.09830     K ( 1.00)
     Mg               10.00    24.30500     Mg( 1.00)
     O                 6.00    15.99940     O ( 1.00)
     Si                4.00    28.08550     Si( 1.00)

      2 Sym. Ops. (no inversion) found


                                    s                        frac. trans.

      isym =  1     identity                                     

 cryst.   s( 1) = (     1          0          0      )
                  (     0          1          0      )
                  (     0          0          1      )

 cart.    s( 1) = (  1.0000000  0.0000000 -0.0000000 )
                  (  0.0000000  1.0000000  0.0000000 )
                  (  0.0000000  0.0000000  1.0000000 )


      isym =  2     180 deg rotation - cart. axis [0,1,0]        

 cryst.   s( 2) = (    -1          0          0      )
                  (     0          1          0      )
                  (     0          0         -1      )

 cart.    s( 2) = ( -1.0000000  0.0000000  0.0000000 )
                  (  0.0000000  1.0000000  0.0000000 )
                  (  0.0000000  0.0000000 -1.0000000 )


     point group C_2  (2)   
     there are  2 classes
     the character table:

       E     C2   
A      1.00  1.00
B      1.00 -1.00

     the symmetry operations in each class and the name of the first element:

     E        1
          identity                                               
     C2       2
          180 deg rotation - cart. axis [0,1,0]                  

   Cartesian axes

     site n.     atom                  positions (alat units)
         1        K      tau(   1) = (   0.0000000   0.8669014   0.0000000  )
         2        K      tau(   2) = (   0.5000000   0.0051532   0.0000000  )
         3        Mg     tau(   3) = (  -0.1710407   0.0148909   0.9479482  )
         4        Mg     tau(   4) = (  -0.1710407   1.1475564   0.9479482  )
         5        Mg     tau(   5) = (   0.3289593   0.8514273   0.9479482  )
         6        Mg     tau(   6) = (   0.3289593   1.4491760   0.9479482  )
         7        Mg     tau(   7) = (   0.3289593   0.3030115   0.9479482  )
         8        Si     tau(   8) = (   0.0094903   0.2916277   0.4229574  )
         9        Si     tau(   9) = (   0.6484284   0.2916277   1.4729391  )
        10        Si     tau(  10) = (   0.6721498   1.4501551   1.4603696  )
        11        Si     tau(  11) = (  -0.0142311   1.4501551   0.4355268  )
        12        Si     tau(  12) = (   0.4851684   1.1577808   0.4300728  )
        13        Si     tau(  13) = (   0.1727503   1.1577808   1.4658235  )
        14        Al     tau(  14) = (   0.1458163   0.5770055   1.4716227  )
        15        Al     tau(  15) = (   0.5121024   0.5770055   0.4242737  )
        16        O      tau(  16) = (  -0.0046606   0.2912991   0.7316457  )
        17        O      tau(  17) = (   0.6625792   0.2912991   1.1642507  )
        18        O      tau(  18) = (   0.6669009   1.4446010   1.1552531  )
        19        O      tau(  19) = (  -0.0089822   1.4446010   0.7406432  )
        20        O      tau(  20) = (   0.4908438   1.1585015   0.7371132  )
        21        O      tau(  21) = (   0.1670749   1.1585015   1.1587832  )
        22        O      tau(  22) = (   0.1532926   0.5783050   1.1449947  )
        23        O      tau(  23) = (   0.5046261   0.5783050   0.7509017  )
        24        O      tau(  24) = (   0.2905784   0.3520519   0.3149283  )
        25        O      tau(  25) = (   0.3673403   0.3520519   1.5809681  )
        26        O      tau(  26) = (   0.9390241   1.7346884   0.3216960  )
        27        O      tau(  27) = (  -0.2811054   1.7346884   1.5742004  )
        28        O      tau(  28) = (   0.4011943   1.3456051   1.5749356  )
        29        O      tau(  29) = (   0.2567244   1.3456051   0.3209609  )
        30        O      tau(  30) = (   0.7553565   1.2752465   0.3186945  )
        31        O      tau(  31) = (  -0.0974377   1.2752465   1.5772019  )
        32        O      tau(  32) = (   0.4423836   0.8828498   0.3051680  )
        33        O      tau(  33) = (   0.2155351   0.8828498   1.5907285  )
        34        O      tau(  34) = (  -0.1501541   0.4873869   1.5961186  )
        35        O      tau(  35) = (   0.8080728   0.4873869   0.2997779  )
        36        O      tau(  36) = (  -0.0094740   0.8608807   0.7498555  )
        37        O      tau(  37) = (   0.6673926   0.8608807   1.1460410  )
        38        O      tau(  38) = (   0.4958521   0.0004388   0.7533871  )
        39        O      tau(  39) = (   0.1620666   0.0004388   1.1425093  )
        40        H      tau(  40) = (  -0.0187329   0.8258342   0.5707258  )
        41        H      tau(  41) = (   0.6766516   0.8258342   1.3251707  )
        42        H      tau(  42) = (   0.4916572   0.0306985   0.5735819  )
        43        H      tau(  43) = (   0.1662615   0.0306985   1.3223146  )
        44        Fe     tau(  44) = (  -0.1710407   0.5780851   0.9479482  )

     --------------------------------------------
     DFT-D3 Dispersion Correction (3-body terms):
     --------------------------------------------
       Reference C6 values for interpolation: 

         atom   Coordination number   C6
         H          0.912             6.05
         H          0.000            15.18
         O          0.000            31.01
         O          0.993            25.63
         O          1.989            20.74
         Mg         0.000          1366.75
         Mg         0.963           902.54
         Mg         1.950           351.12
         Al         0.000          1081.08
         Al         0.965           875.51
         Al         1.931           513.50
         Al         2.915           307.19
         Si         0.000           635.71
         Si         0.951           540.53
         Si         1.944           466.25
         Si         2.941           443.01
         Si         3.868           299.55
         K          0.000          9967.00
         K          0.977           676.04
         Fe         0.000           982.67
         Fe         1.648           409.99
         Fe         9.138           219.01

       Values used:

         atom   Coordination number  R0_AB[au]  C6      C8
         K         13.619            4.007    676.04 129074.98
         K         13.710            4.007    676.04 129074.98
         Mg        11.505            3.292    351.12  31436.69
         Mg        11.370            3.292    351.12  31436.69
         Mg        11.502            3.292    351.12  31436.69
         Mg        11.637            3.292    351.12  31436.69
         Mg        11.707            3.292    351.12  31436.69
         Si         6.771            3.583    299.55  21425.58
         Si         6.771            3.583    299.55  21425.58
         Si         6.559            3.583    299.55  21425.58
         Si         6.559            3.583    299.55  21425.58
         Si         6.642            3.583    299.55  21425.58
         Si         6.642            3.583    299.55  21425.58
         Al         7.580            3.789    307.19  29441.29
         Al         7.580            3.789    307.19  29441.29
         O          3.720            2.345     20.74    418.58
         O          3.720            2.345     20.74    418.58
         O          3.912            2.345     20.74    418.58
         O          3.912            2.345     20.74    418.58
         O          3.904            2.345     20.74    418.58
         O          3.904            2.345     20.74    418.58
         O          3.864            2.345     20.74    418.58
         O          3.864            2.345     20.74    418.58
         O          3.148            2.345     20.74    418.58
         O          3.148            2.345     20.74    418.58
         O          3.138            2.345     20.74    418.58
         O          3.138            2.345     20.74    418.58
         O          3.111            2.345     20.74    418.58
         O          3.111            2.345     20.74    418.58
         O          3.123            2.345     20.74    418.58
         O          3.123            2.345     20.74    418.58
         O          3.205            2.345     20.74    418.58
         O          3.205            2.345     20.74    418.58
         O          3.207            2.345     20.74    418.58
         O          3.207            2.345     20.74    418.58
         O          3.876            2.345     20.74    418.58
         O          3.876            2.345     20.74    418.58
         O          3.993            2.345     20.74    418.58
         O          3.993            2.345     20.74    418.58
         H          1.270            2.062      6.07     73.39
         H          1.270            2.062      6.07     73.39
         H          1.299            2.062      6.07     73.35
         H          1.299            2.062      6.07     73.35
         Fe         8.671            3.252    219.01  20487.87

         Molecular C6 ( Ry / a.u.^6 ) =    165305.96


   Crystallographic axes

     site n.     atom                  positions (cryst. coord.)
         1        K      tau(   1) = (  0.0000000  0.4995668  0.0000000  )
         2        K      tau(   2) = (  0.5000000  0.0029696  0.0000000  )
         3        Mg     tau(   3) = (  0.0000000  0.0085812  0.5000000  )
         4        Mg     tau(   4) = (  0.0000000  0.6612991  0.5000000  )
         5        Mg     tau(   5) = (  0.5000000  0.4906496  0.5000000  )
         6        Mg     tau(   6) = (  0.5000000  0.8351126  0.5000000  )
         7        Mg     tau(   7) = (  0.5000000  0.1746156  0.5000000  )
         8        Si     tau(   8) = (  0.0858055  0.1680555  0.2230910  )
         9        Si     tau(   9) = (  0.9141945  0.1680555  0.7769091  )
        10        Si     tau(  10) = (  0.9356480  0.8356768  0.7702792  )
        11        Si     tau(  11) = (  0.0643520  0.8356768  0.2297208  )
        12        Si     tau(  12) = (  0.5627675  0.6671911  0.2268440  )
        13        Si     tau(  13) = (  0.4372325  0.6671911  0.7731559  )
        14        Al     tau(  14) = (  0.4113448  0.3325093  0.7762147  )
        15        Al     tau(  15) = (  0.5886552  0.3325093  0.2237853  )
        16        O      tau(  16) = (  0.1273521  0.1678661  0.3859102  )
        17        O      tau(  17) = (  0.8726479  0.1678661  0.6140898  )
        18        O      tau(  18) = (  0.8753461  0.8324761  0.6093440  )
        19        O      tau(  19) = (  0.1246539  0.8324761  0.3906560  )
        20        O      tau(  20) = (  0.6238430  0.6676064  0.3887940  )
        21        O      tau(  21) = (  0.3761570  0.6676064  0.6112060  )
        22        O      tau(  22) = (  0.3598869  0.3332582  0.6039332  )
        23        O      tau(  23) = (  0.6401132  0.3332582  0.3960668  )
        24        O      tau(  24) = (  0.3474017  0.2028759  0.1661105  )
        25        O      tau(  25) = (  0.6525983  0.2028759  0.8338895  )
        26        O      tau(  26) = (  0.9970685  0.9996440  0.1696801  )
        27        O      tau(  27) = (  0.0029315  0.9996440  0.8303198  )
        28        O      tau(  28) = (  0.6853638  0.7754281  0.8307076  )
        29        O      tau(  29) = (  0.3146362  0.7754281  0.1692924  )
        30        O      tau(  30) = (  0.8128593  0.7348827  0.1680970  )
        31        O      tau(  31) = (  0.1871407  0.7348827  0.8319030  )
        32        O      tau(  32) = (  0.4974458  0.5087574  0.1609624  )
        33        O      tau(  33) = (  0.5025542  0.5087574  0.8390377  )
        34        O      tau(  34) = (  0.1378375  0.2808651  0.8418807  )
        35        O      tau(  35) = (  0.8621625  0.2808651  0.1581193  )
        36        O      tau(  36) = (  0.1258243  0.4960973  0.3955150  )
        37        O      tau(  37) = (  0.8741757  0.4960973  0.6044850  )
        38        O      tau(  38) = (  0.6317876  0.0002528  0.3973778  )
        39        O      tau(  39) = (  0.3682124  0.0002528  0.6026222  )
        40        H      tau(  40) = (  0.0842446  0.4759011  0.3010322  )
        41        H      tau(  41) = (  0.9157555  0.4759011  0.6989679  )
        42        H      tau(  42) = (  0.5951500  0.0176906  0.3025386  )
        43        H      tau(  43) = (  0.4048500  0.0176906  0.6974614  )
        44        Fe     tau(  44) = (  0.0000000  0.3331315  0.5000000  )

     number of k points=    20  Gaussian smearing, width (Ry)=  0.0010
                       cart. coord. in units 2pi/alat
        k(    1) = (   0.0000000   0.0000000   0.0000000), wk =   0.0370370
        k(    2) = (   0.0000000   0.0000000   0.1758183), wk =   0.0740741
        k(    3) = (   0.0000000   0.1920891   0.0000000), wk =   0.0740741
        k(    4) = (   0.0000000   0.1920891   0.1758183), wk =   0.1481481
        k(    5) = (   0.1666667   0.0000000   0.0300721), wk =   0.0740741
        k(    6) = (   0.1666667   0.0000000   0.2058904), wk =   0.0740741
        k(    7) = (   0.1666667   0.0000000  -0.1457462), wk =   0.0740741
        k(    8) = (   0.1666667   0.1920891   0.0300721), wk =   0.1481481
        k(    9) = (   0.1666667   0.1920891   0.2058904), wk =   0.1481481
        k(   10) = (   0.1666667   0.1920891  -0.1457462), wk =   0.1481481
        k(   11) = (   0.3333333   0.0000000   0.0601442), wk =   0.0740741
        k(   12) = (   0.3333333   0.0000000   0.2359625), wk =   0.0740741
        k(   13) = (   0.3333333   0.0000000  -0.1156742), wk =   0.0740741
        k(   14) = (   0.3333333   0.1920891   0.0601442), wk =   0.1481481
        k(   15) = (   0.3333333   0.1920891   0.2359625), wk =   0.1481481
        k(   16) = (   0.3333333   0.1920891  -0.1156742), wk =   0.1481481
        k(   17) = (  -0.5000000   0.0000000  -0.0902162), wk =   0.0370370
        k(   18) = (  -0.5000000   0.0000000   0.0856021), wk =   0.0740741
        k(   19) = (  -0.5000000   0.1920891  -0.0902162), wk =   0.0740741
        k(   20) = (  -0.5000000   0.1920891   0.0856021), wk =   0.1481481

                       cryst. coord.
        k(    1) = (   0.0000000   0.0000000   0.0000000), wk =   0.0370370
        k(    2) = (   0.0000000   0.0000000   0.3333333), wk =   0.0740741
        k(    3) = (   0.0000000   0.3333333   0.0000000), wk =   0.0740741
        k(    4) = (   0.0000000   0.3333333   0.3333333), wk =   0.1481481
        k(    5) = (   0.1666667   0.0000000  -0.0000000), wk =   0.0740741
        k(    6) = (   0.1666667   0.0000000   0.3333333), wk =   0.0740741
        k(    7) = (   0.1666667   0.0000000  -0.3333333), wk =   0.0740741
        k(    8) = (   0.1666667   0.3333333  -0.0000000), wk =   0.1481481
        k(    9) = (   0.1666667   0.3333333   0.3333333), wk =   0.1481481
        k(   10) = (   0.1666667   0.3333333  -0.3333333), wk =   0.1481481
        k(   11) = (   0.3333333   0.0000000  -0.0000000), wk =   0.0740741
        k(   12) = (   0.3333333   0.0000000   0.3333333), wk =   0.0740741
        k(   13) = (   0.3333333   0.0000000  -0.3333333), wk =   0.0740741
        k(   14) = (   0.3333333   0.3333333  -0.0000000), wk =   0.1481481
        k(   15) = (   0.3333333   0.3333333   0.3333333), wk =   0.1481481
        k(   16) = (   0.3333333   0.3333333  -0.3333333), wk =   0.1481481
        k(   17) = (  -0.5000000   0.0000000   0.0000000), wk =   0.0370370
        k(   18) = (  -0.5000000   0.0000000   0.3333333), wk =   0.0740741
        k(   19) = (  -0.5000000   0.3333333   0.0000000), wk =   0.0740741
        k(   20) = (  -0.5000000   0.3333333   0.3333333), wk =   0.1481481

     Dense  grid:   586467 G-vectors     FFT dimensions: (  72, 125, 135)

     Smooth grid:   207475 G-vectors     FFT dimensions: (  50,  90,  96)

     Dynamical RAM for                 wfc:      10.35 MB

     Dynamical RAM for     wfc (w. buffer):     217.38 MB

     Dynamical RAM for           str. fact:      10.44 MB

     Dynamical RAM for           local pot:       0.00 MB

     Dynamical RAM for          nlocal pot:      28.88 MB

     Dynamical RAM for                qrad:      24.61 MB

     Dynamical RAM for          rho,v,vnew:       9.21 MB

     Dynamical RAM for               rhoin:       3.07 MB

     Dynamical RAM for            rho*nmix:      23.86 MB

     Dynamical RAM for           G-vectors:       5.86 MB

     Dynamical RAM for          h,s,v(r/c):       1.13 MB

     Dynamical RAM for          <psi|beta>:       1.05 MB

     Dynamical RAM for                 psi:      20.70 MB

     Dynamical RAM for                hpsi:      20.70 MB

     Dynamical RAM for                spsi:      20.70 MB

     Dynamical RAM for      wfcinit/wfcrot:      24.90 MB

     Dynamical RAM for           addusdens:     313.21 MB

     Dynamical RAM for          addusforce:     382.66 MB

     Dynamical RAM for         addusstress:     299.79 MB

     Estimated static dynamical RAM per process >     319.28 MB

     Estimated max dynamical RAM per process >     725.80 MB

     Estimated total dynamical RAM >       4.25 GB

     Check: negative core charge=   -0.000004

     Initial potential from superposition of free atoms

     starting charge     261.9493, renormalised to     262.0000
     Starting wfcs are  183 randomized atomic wfcs
     Checking if some PAW data can be deallocated... 
       PAW data deallocated on    5 nodes for type:  1
       PAW data deallocated on    5 nodes for type:  2
       PAW data deallocated on    5 nodes for type:  3
       PAW data deallocated on    5 nodes for type:  4
       PAW data deallocated on    5 nodes for type:  5
       PAW data deallocated on    1 nodes for type:  6
       PAW data deallocated on    4 nodes for type:  7

     total cpu time spent up to now is       56.3 secs

     Self-consistent Calculation

     iteration #  1     ecut=    60.00 Ry     beta= 0.70
     Davidson diagonalization with overlap

---- Real-time Memory Report at c_bands before calling an iterative solver
           403 MiB given to the printing process from OS
             0 MiB allocation reported by mallinfo(arena+hblkhd)
          1305 MiB available memory on the node where the printing process lives
------------------
     ethr =  1.00E-02,  avg # of iterations =  5.8

     total cpu time spent up to now is      241.9 secs

     total energy              =   -2623.83620838 Ry
     estimated scf accuracy    <      12.18712144 Ry

     iteration #  2     ecut=    60.00 Ry     beta= 0.70
     Davidson diagonalization with overlap

---- Real-time Memory Report at c_bands before calling an iterative solver
           663 MiB given to the printing process from OS
             0 MiB allocation reported by mallinfo(arena+hblkhd)
          1918 MiB available memory on the node where the printing process lives
------------------
     ethr =  4.65E-03,  avg # of iterations =  5.2

     total cpu time spent up to now is      500.3 secs

     total energy              =   -2629.25075460 Ry
     estimated scf accuracy    <      10.76851789 Ry

     iteration #  3     ecut=    60.00 Ry     beta= 0.70
     Davidson diagonalization with overlap

---- Real-time Memory Report at c_bands before calling an iterative solver
           670 MiB given to the printing process from OS
             0 MiB allocation reported by mallinfo(arena+hblkhd)
          1903 MiB available memory on the node where the printing process lives
------------------
     ethr =  4.11E-03,  avg # of iterations =  2.0

     total cpu time spent up to now is      636.9 secs

     total energy              =   -2630.10549308 Ry
     estimated scf accuracy    <       1.37664195 Ry

     iteration #  4     ecut=    60.00 Ry     beta= 0.70
     Davidson diagonalization with overlap

---- Real-time Memory Report at c_bands before calling an iterative solver
           671 MiB given to the printing process from OS
             0 MiB allocation reported by mallinfo(arena+hblkhd)
          1919 MiB available memory on the node where the printing process lives
------------------
     ethr =  5.25E-04,  avg # of iterations =  8.5

     total cpu time spent up to now is      880.4 secs

     total energy              =   -2631.12280077 Ry
     estimated scf accuracy    <       0.23846411 Ry

     iteration #  5     ecut=    60.00 Ry     beta= 0.70
     Davidson diagonalization with overlap

---- Real-time Memory Report at c_bands before calling an iterative solver
           673 MiB given to the printing process from OS
             0 MiB allocation reported by mallinfo(arena+hblkhd)
          1910 MiB available memory on the node where the printing process lives
------------------
     c_bands:  1 eigenvalues not converged
     c_bands:  3 eigenvalues not converged
     c_bands:  2 eigenvalues not converged
     c_bands:  1 eigenvalues not converged
     c_bands:  2 eigenvalues not converged
     c_bands:  2 eigenvalues not converged
     c_bands:  1 eigenvalues not converged
     ethr =  9.10E-05,  avg # of iterations = 16.8

     total cpu time spent up to now is     1128.9 secs

     total energy              =   -2631.16417802 Ry
     estimated scf accuracy    <       0.15506935 Ry

     iteration #  6     ecut=    60.00 Ry     beta= 0.70
     Davidson diagonalization with overlap

---- Real-time Memory Report at c_bands before calling an iterative solver
           674 MiB given to the printing process from OS
             0 MiB allocation reported by mallinfo(arena+hblkhd)
          1925 MiB available memory on the node where the printing process lives
------------------
     ethr =  5.92E-05,  avg # of iterations =  3.2

     total cpu time spent up to now is     1273.6 secs

     total energy              =   -2631.18448924 Ry
     estimated scf accuracy    <       0.01252753 Ry

     iteration #  7     ecut=    60.00 Ry     beta= 0.70
     Davidson diagonalization with overlap

---- Real-time Memory Report at c_bands before calling an iterative solver
           675 MiB given to the printing process from OS
             0 MiB allocation reported by mallinfo(arena+hblkhd)
          1933 MiB available memory on the node where the printing process lives
------------------
     c_bands:  2 eigenvalues not converged
     c_bands:  3 eigenvalues not converged
     c_bands:  2 eigenvalues not converged
     c_bands:  2 eigenvalues not converged
     c_bands:  4 eigenvalues not converged
     c_bands:  4 eigenvalues not converged
     c_bands:  1 eigenvalues not converged
     c_bands:  3 eigenvalues not converged
     c_bands:  1 eigenvalues not converged
     c_bands:  1 eigenvalues not converged
     c_bands:  1 eigenvalues not converged
     c_bands:  1 eigenvalues not converged
     c_bands:  4 eigenvalues not converged
     c_bands:  2 eigenvalues not converged
     c_bands:  3 eigenvalues not converged
     ethr =  4.78E-06,  avg # of iterations = 19.7

     total cpu time spent up to now is     1669.9 secs

     total energy              =   -2631.19833734 Ry
     estimated scf accuracy    <       0.00157124 Ry

     iteration #  8     ecut=    60.00 Ry     beta= 0.70
     Davidson diagonalization with overlap

---- Real-time Memory Report at c_bands before calling an iterative solver
           676 MiB given to the printing process from OS
             0 MiB allocation reported by mallinfo(arena+hblkhd)
          1906 MiB available memory on the node where the printing process lives
------------------
     c_bands:  1 eigenvalues not converged
     c_bands:  1 eigenvalues not converged
     c_bands:  1 eigenvalues not converged
     c_bands:  1 eigenvalues not converged
     c_bands:  1 eigenvalues not converged
     c_bands:  1 eigenvalues not converged
     c_bands:  1 eigenvalues not converged
     c_bands:  1 eigenvalues not converged
     c_bands:  2 eigenvalues not converged
     c_bands:  4 eigenvalues not converged
     c_bands:  1 eigenvalues not converged
     c_bands:  1 eigenvalues not converged
     c_bands:  1 eigenvalues not converged
     c_bands:  1 eigenvalues not converged
     ethr =  6.00E-07,  avg # of iterations = 16.7

     total cpu time spent up to now is     1908.1 secs

     total energy              =   -2631.19889797 Ry
     estimated scf accuracy    <       0.00023568 Ry

     iteration #  9     ecut=    60.00 Ry     beta= 0.70
     Davidson diagonalization with overlap

---- Real-time Memory Report at c_bands before calling an iterative solver
           677 MiB given to the printing process from OS
             0 MiB allocation reported by mallinfo(arena+hblkhd)
          1911 MiB available memory on the node where the printing process lives
------------------
     c_bands:  2 eigenvalues not converged
     c_bands:  1 eigenvalues not converged
     c_bands:  1 eigenvalues not converged
     ethr =  9.00E-08,  avg # of iterations = 10.2

     total cpu time spent up to now is     2174.4 secs

     total energy              =   -2631.19907385 Ry
     estimated scf accuracy    <       0.00009671 Ry

     iteration # 10     ecut=    60.00 Ry     beta= 0.70
     Davidson diagonalization with overlap

---- Real-time Memory Report at c_bands before calling an iterative solver
           678 MiB given to the printing process from OS
             0 MiB allocation reported by mallinfo(arena+hblkhd)
          1901 MiB available memory on the node where the printing process lives
------------------
     c_bands:  1 eigenvalues not converged
     ethr =  3.69E-08,  avg # of iterations =  3.2

     total cpu time spent up to now is     2325.0 secs

     total energy              =   -2631.19906576 Ry
     estimated scf accuracy    <       0.00003776 Ry

     iteration # 11     ecut=    60.00 Ry     beta= 0.70
     Davidson diagonalization with overlap

---- Real-time Memory Report at c_bands before calling an iterative solver
           680 MiB given to the printing process from OS
             0 MiB allocation reported by mallinfo(arena+hblkhd)
          1920 MiB available memory on the node where the printing process lives
------------------
     ethr =  1.44E-08,  avg # of iterations =  6.2

     total cpu time spent up to now is     2559.7 secs

     total energy              =   -2631.19908615 Ry
     estimated scf accuracy    <       0.00000402 Ry

     iteration # 12     ecut=    60.00 Ry     beta= 0.70
     Davidson diagonalization with overlap

---- Real-time Memory Report at c_bands before calling an iterative solver
           680 MiB given to the printing process from OS
             0 MiB allocation reported by mallinfo(arena+hblkhd)
          1896 MiB available memory on the node where the printing process lives
------------------
     ethr =  1.53E-09,  avg # of iterations =  6.9

     total cpu time spent up to now is     2829.3 secs

     total energy              =   -2631.19908945 Ry
     estimated scf accuracy    <       0.00000113 Ry

     iteration # 13     ecut=    60.00 Ry     beta= 0.70
     Davidson diagonalization with overlap

---- Real-time Memory Report at c_bands before calling an iterative solver
           680 MiB given to the printing process from OS
             0 MiB allocation reported by mallinfo(arena+hblkhd)
          1913 MiB available memory on the node where the printing process lives
------------------
     ethr =  4.30E-10,  avg # of iterations =  4.0

     total cpu time spent up to now is     2989.5 secs

     End of self-consistent calculation

          k = 0.0000 0.0000 0.0000 ( 25927 PWs)   bands (ev):

   -77.9054 -67.6511 -67.5511 -67.4250 -67.0666 -66.8862 -44.0887 -44.0478
   -43.9296 -34.4162 -34.3969 -34.3958 -34.3187 -34.2982 -34.2923 -34.1908
   -34.1804 -34.1589 -33.8215 -33.8193 -33.8159 -33.6596 -33.6284 -33.6284
   -23.0319 -22.9386 -15.0495 -14.9967 -14.1242 -14.0791 -13.5926 -13.5690
   -13.4221 -13.2762 -13.1971 -13.0857 -12.9049 -12.8495 -12.8036 -12.7620
   -12.7170 -12.6239 -12.4721 -12.3934 -12.2888 -12.2691 -12.2477 -12.1307
   -11.1586 -10.8792  -6.5969  -6.5274  -6.5161  -6.5078  -6.4238  -6.4164
    -4.2614  -4.2028  -2.3995  -2.3009  -1.7716  -1.3134  -1.1415  -1.1075
    -1.0471  -0.9724  -0.6626  -0.6108  -0.4676  -0.3261  -0.3217  -0.1105
     0.0538   0.1284   0.2454   0.4669   0.5954   0.6049   0.7102   0.9251
     0.9361   1.1575   1.2641   1.3377   1.3882   1.5429   1.5480   1.6800
     1.8249   1.9112   1.9375   2.0932   2.1227   2.2393   2.2704   2.3074
     2.4011   2.5182   2.6512   2.6756   2.7080   2.7225   2.8540   2.8871
     2.9320   2.9986   3.0436   3.0854   3.1797   3.2856   3.2967   3.3131
     3.4102   3.4330   3.4830   3.5419   3.5928   3.6524   3.6803   3.7996
     3.8085   3.8417   3.9126   3.9271   4.0707   4.2988   4.4740   4.5938
     8.1718   8.4073   8.4696   9.1309   9.6719  10.0405  10.6512  11.2849
    11.5668  11.9833  12.1526  12.1654  12.5544  12.6806  13.0319  13.0545
    13.1017  13.2979  13.3225  13.4800  13.6545  13.6733  13.6974  13.7864
    13.8495  14.0881  14.1907  14.2703  14.3732

     occupation numbers 
     1.0000   1.0000   1.0000   1.0000   1.0000   1.0000   1.0000   1.0000
     1.0000   1.0000   1.0000   1.0000   1.0000   1.0000   1.0000   1.0000
     1.0000   1.0000   1.0000   1.0000   1.0000   1.0000   1.0000   1.0000
     1.0000   1.0000   1.0000   1.0000   1.0000   1.0000   1.0000   1.0000
     1.0000   1.0000   1.0000   1.0000   1.0000   1.0000   1.0000   1.0000
     1.0000   1.0000   1.0000   1.0000   1.0000   1.0000   1.0000   1.0000
     1.0000   1.0000   1.0000   1.0000   1.0000   1.0000   1.0000   1.0000
     1.0000   1.0000   1.0000   1.0000   1.0000   1.0000   1.0000   1.0000
     1.0000   1.0000   1.0000   1.0000   1.0000   1.0000   1.0000   1.0000
     1.0000   1.0000   1.0000   1.0000   1.0000   1.0000   1.0000   1.0000
     1.0000   1.0000   1.0000   1.0000   1.0000   1.0000   1.0000   1.0000
     1.0000   1.0000   1.0000   1.0000   1.0000   1.0000   1.0000   1.0000
     1.0000   1.0000   1.0000   1.0000   1.0000   1.0000   1.0000   1.0000
     1.0000   1.0000   1.0000   1.0000   1.0000   1.0000   1.0000   1.0000
     1.0000   1.0000   1.0000   1.0000   1.0000   1.0000   1.0000   1.0000
     1.0000   1.0000   1.0000   1.0000   1.0000   1.0000   1.0000   1.0000
     1.0000   1.0000   1.0000   0.0000   0.0000   0.0000   0.0000   0.0000
     0.0000   0.0000   0.0000   0.0000   0.0000   0.0000   0.0000   0.0000
     0.0000   0.0000   0.0000   0.0000   0.0000   0.0000   0.0000   0.0000
     0.0000   0.0000   0.0000   0.0000   0.0000

          k = 0.0000 0.0000 0.1758 ( 25971 PWs)   bands (ev):

   -77.9054 -67.6511 -67.5511 -67.4250 -67.0666 -66.8862 -44.0887 -44.0478
   -43.9296 -34.4162 -34.3969 -34.3958 -34.3188 -34.2982 -34.2923 -34.1908
   -34.1804 -34.1589 -33.8215 -33.8193 -33.8159 -33.6596 -33.6284 -33.6284
   -23.0319 -22.9386 -15.0369 -15.0102 -14.1134 -14.0904 -13.5931 -13.5686
   -13.4123 -13.2965 -13.1881 -13.0813 -12.9058 -12.8403 -12.8165 -12.7632
   -12.7094 -12.6283 -12.4631 -12.4013 -12.2929 -12.2608 -12.2448 -12.1379
   -11.1582 -10.8799  -6.5969  -6.5274  -6.5160  -6.5078  -6.4236  -6.4164
    -4.2564  -4.2083  -2.3768  -2.3275  -1.7390  -1.3035  -1.1403  -1.1003
    -1.0428  -0.9949  -0.6357  -0.6176  -0.5000  -0.3419  -0.2944  -0.2083
     0.0857   0.1468   0.1944   0.4168   0.5852   0.5878   0.7339   0.9402
     0.9894   1.2119   1.2551   1.2964   1.4482   1.5036   1.5715   1.6946
     1.8570   1.9234   2.0888   2.1086   2.1295   2.2192   2.2617   2.3179
     2.3833   2.4657   2.6142   2.6518   2.6633   2.7219   2.8127   2.8454
     2.8892   3.0575   3.0666   3.1141   3.1256   3.2651   3.2919   3.3701
     3.4229   3.4592   3.4723   3.5076   3.6103   3.6844   3.6945   3.7688
     3.8174   3.8255   3.8777   3.9145   4.0753   4.3058   4.4716   4.5971
     8.1733   8.4081   8.4670   9.4350   9.6666  10.0264  10.1991  11.3978
    11.5930  11.8199  12.1013  12.2413  12.6782  12.8614  12.9686  13.0911
    13.1849  13.2533  13.3411  13.4691  13.5351  13.6945  13.7390  13.7909
    13.9156  14.0479  14.1008  14.2571  14.2844

     occupation numbers 
     1.0000   1.0000   1.0000   1.0000   1.0000   1.0000   1.0000   1.0000
     1.0000   1.0000   1.0000   1.0000   1.0000   1.0000   1.0000   1.0000
     1.0000   1.0000   1.0000   1.0000   1.0000   1.0000   1.0000   1.0000
     1.0000   1.0000   1.0000   1.0000   1.0000   1.0000   1.0000   1.0000
     1.0000   1.0000   1.0000   1.0000   1.0000   1.0000   1.0000   1.0000
     1.0000   1.0000   1.0000   1.0000   1.0000   1.0000   1.0000   1.0000
     1.0000   1.0000   1.0000   1.0000   1.0000   1.0000   1.0000   1.0000
     1.0000   1.0000   1.0000   1.0000   1.0000   1.0000   1.0000   1.0000
     1.0000   1.0000   1.0000   1.0000   1.0000   1.0000   1.0000   1.0000
     1.0000   1.0000   1.0000   1.0000   1.0000   1.0000   1.0000   1.0000
     1.0000   1.0000   1.0000   1.0000   1.0000   1.0000   1.0000   1.0000
     1.0000   1.0000   1.0000   1.0000   1.0000   1.0000   1.0000   1.0000
     1.0000   1.0000   1.0000   1.0000   1.0000   1.0000   1.0000   1.0000
     1.0000   1.0000   1.0000   1.0000   1.0000   1.0000   1.0000   1.0000
     1.0000   1.0000   1.0000   1.0000   1.0000   1.0000   1.0000   1.0000
     1.0000   1.0000   1.0000   1.0000   1.0000   1.0000   1.0000   1.0000
     1.0000   1.0000   1.0000   0.0000   0.0000   0.0000   0.0000   0.0000
     0.0000   0.0000   0.0000   0.0000   0.0000   0.0000   0.0000   0.0000
     0.0000   0.0000   0.0000   0.0000   0.0000   0.0000   0.0000   0.0000
     0.0000   0.0000   0.0000   0.0000   0.0000

          k = 0.0000 0.1921 0.0000 ( 25933 PWs)   bands (ev):

   -77.9054 -67.6511 -67.5511 -67.4250 -67.0666 -66.8862 -44.0887 -44.0478
   -43.9296 -34.4162 -34.3969 -34.3958 -34.3188 -34.2982 -34.2923 -34.1908
   -34.1804 -34.1589 -33.8215 -33.8192 -33.8159 -33.6596 -33.6284 -33.6284
   -23.0319 -22.9386 -15.0442 -14.9916 -14.1600 -14.1096 -13.5927 -13.5692
   -13.3349 -13.1905 -13.1759 -13.0975 -12.9336 -12.8957 -12.8653 -12.7603
   -12.7417 -12.6187 -12.4611 -12.3903 -12.2884 -12.2672 -12.2433 -12.1271
   -11.1571 -10.8786  -6.5960  -6.5274  -6.5156  -6.5089  -6.4238  -6.4169
    -4.2228  -4.1632  -2.5425  -2.4377  -1.7009  -1.3990  -1.0470  -1.0371
    -0.9602  -0.9066  -0.7214  -0.6092  -0.5407  -0.2675  -0.2508  -0.0935
    -0.0386   0.1708   0.2404   0.4595   0.5485   0.5586   0.7109   0.9011
     0.9605   1.1214   1.2316   1.2990   1.4052   1.5685   1.5853   1.7324
     1.8564   1.9527   1.9782   2.0969   2.1010   2.2330   2.3434   2.3949
     2.4160   2.5046   2.5669   2.6948   2.7087   2.7543   2.8438   2.8809
     2.9743   3.0007   3.0442   3.0744   3.1743   3.1778   3.3109   3.3619
     3.4372   3.4525   3.4808   3.4890   3.6323   3.6325   3.6651   3.7664
     3.7842   3.8716   3.9103   3.9116   4.0432   4.2789   4.2952   4.5901
     8.1798   8.4084   8.4684   9.5378   9.6293  10.0431  10.4771  10.9142
    11.4753  11.8313  12.3196  12.5310  12.5828  12.8142  12.9506  13.0511
    13.1651  13.2885  13.3306  13.4238  13.5016  13.6291  13.6543  13.7716
    13.8180  13.8559  14.2885  14.3712  14.4461

     occupation numbers 
     1.0000   1.0000   1.0000   1.0000   1.0000   1.0000   1.0000   1.0000
     1.0000   1.0000   1.0000   1.0000   1.0000   1.0000   1.0000   1.0000
     1.0000   1.0000   1.0000   1.0000   1.0000   1.0000   1.0000   1.0000
     1.0000   1.0000   1.0000   1.0000   1.0000   1.0000   1.0000   1.0000
     1.0000   1.0000   1.0000   1.0000   1.0000   1.0000   1.0000   1.0000
     1.0000   1.0000   1.0000   1.0000   1.0000   1.0000   1.0000   1.0000
     1.0000   1.0000   1.0000   1.0000   1.0000   1.0000   1.0000   1.0000
     1.0000   1.0000   1.0000   1.0000   1.0000   1.0000   1.0000   1.0000
     1.0000   1.0000   1.0000   1.0000   1.0000   1.0000   1.0000   1.0000
     1.0000   1.0000   1.0000   1.0000   1.0000   1.0000   1.0000   1.0000
     1.0000   1.0000   1.0000   1.0000   1.0000   1.0000   1.0000   1.0000
     1.0000   1.0000   1.0000   1.0000   1.0000   1.0000   1.0000   1.0000
     1.0000   1.0000   1.0000   1.0000   1.0000   1.0000   1.0000   1.0000
     1.0000   1.0000   1.0000   1.0000   1.0000   1.0000   1.0000   1.0000
     1.0000   1.0000   1.0000   1.0000   1.0000   1.0000   1.0000   1.0000
     1.0000   1.0000   1.0000   1.0000   1.0000   1.0000   1.0000   1.0000
     1.0000   1.0000   1.0000   0.0000   0.0000   0.0000   0.0000   0.0000
     0.0000   0.0000   0.0000   0.0000   0.0000   0.0000   0.0000   0.0000
     0.0000   0.0000   0.0000   0.0000   0.0000   0.0000   0.0000   0.0000
     0.0000   0.0000   0.0000   0.0000   0.0000

          k = 0.0000 0.1921 0.1758 ( 25924 PWs)   bands (ev):

   -77.9054 -67.6511 -67.5511 -67.4250 -67.0666 -66.8862 -44.0887 -44.0478
   -43.9296 -34.4162 -34.3969 -34.3957 -34.3188 -34.2982 -34.2923 -34.1908
   -34.1804 -34.1589 -33.8215 -33.8192 -33.8159 -33.6596 -33.6284 -33.6284
   -23.0319 -22.9386 -15.0315 -15.0051 -14.1479 -14.1225 -13.5933 -13.5686
   -13.3278 -13.1981 -13.1817 -13.0865 -12.9427 -12.8838 -12.8701 -12.7612
   -12.7384 -12.6231 -12.4529 -12.3979 -12.2924 -12.2602 -12.2389 -12.1343
   -11.1568 -10.8793  -6.5961  -6.5274  -6.5154  -6.5089  -6.4237  -6.4169
    -4.2150  -4.1715  -2.5184  -2.4644  -1.6729  -1.3881  -1.0421  -1.0363
    -0.9543  -0.9191  -0.6960  -0.6321  -0.5574  -0.3003  -0.2301  -0.1738
     0.0076   0.1630   0.1788   0.4355   0.5398   0.5494   0.7476   0.8953
     1.0170   1.1259   1.1675   1.3545   1.4782   1.5551   1.6867   1.7258
     1.8889   1.9266   2.0284   2.0731   2.1435   2.2196   2.3078   2.3937
     2.4239   2.4755   2.5580   2.6651   2.7031   2.7467   2.8015   2.8548
     2.9616   2.9887   3.0582   3.0837   3.1349   3.2113   3.2640   3.3994
     3.4206   3.4505   3.4713   3.5418   3.6017   3.6631   3.7078   3.7545
     3.7943   3.8269   3.8769   3.9330   4.0190   4.2911   4.3118   4.5940
     8.1816   8.4093   8.4652   9.5686   9.8498  10.0483  10.4900  10.6787
    11.1779  11.8314  12.3239  12.5685  12.6966  12.9203  13.0308  13.1312
    13.1977  13.2667  13.3675  13.4593  13.5653  13.6207  13.6425  13.7308
    13.8230  13.9445  14.2246  14.2791  14.3867

     occupation numbers 
     1.0000   1.0000   1.0000   1.0000   1.0000   1.0000   1.0000   1.0000
     1.0000   1.0000   1.0000   1.0000   1.0000   1.0000   1.0000   1.0000
     1.0000   1.0000   1.0000   1.0000   1.0000   1.0000   1.0000   1.0000
     1.0000   1.0000   1.0000   1.0000   1.0000   1.0000   1.0000   1.0000
     1.0000   1.0000   1.0000   1.0000   1.0000   1.0000   1.0000   1.0000
     1.0000   1.0000   1.0000   1.0000   1.0000   1.0000   1.0000   1.0000
     1.0000   1.0000   1.0000   1.0000   1.0000   1.0000   1.0000   1.0000
     1.0000   1.0000   1.0000   1.0000   1.0000   1.0000   1.0000   1.0000
     1.0000   1.0000   1.0000   1.0000   1.0000   1.0000   1.0000   1.0000
     1.0000   1.0000   1.0000   1.0000   1.0000   1.0000   1.0000   1.0000
     1.0000   1.0000   1.0000   1.0000   1.0000   1.0000   1.0000   1.0000
     1.0000   1.0000   1.0000   1.0000   1.0000   1.0000   1.0000   1.0000
     1.0000   1.0000   1.0000   1.0000   1.0000   1.0000   1.0000   1.0000
     1.0000   1.0000   1.0000   1.0000   1.0000   1.0000   1.0000   1.0000
     1.0000   1.0000   1.0000   1.0000   1.0000   1.0000   1.0000   1.0000
     1.0000   1.0000   1.0000   1.0000   1.0000   1.0000   1.0000   1.0000
     1.0000   1.0000   1.0000   0.0000   0.0000   0.0000   0.0000   0.0000
     0.0000   0.0000   0.0000   0.0000   0.0000   0.0000   0.0000   0.0000
     0.0000   0.0000   0.0000   0.0000   0.0000   0.0000   0.0000   0.0000
     0.0000   0.0000   0.0000   0.0000   0.0000

          k = 0.1667 0.0000 0.0301 ( 25941 PWs)   bands (ev):

   -77.9054 -67.6511 -67.5511 -67.4250 -67.0666 -66.8862 -44.0887 -44.0478
   -43.9296 -34.4160 -34.3969 -34.3960 -34.3188 -34.2982 -34.2923 -34.1908
   -34.1804 -34.1589 -33.8215 -33.8192 -33.8159 -33.6596 -33.6285 -33.6283
   -23.0317 -22.9384 -14.9913 -14.9395 -14.1402 -14.0979 -13.7125 -13.6796
   -13.3541 -13.2048 -13.1497 -13.0711 -12.9206 -12.8451 -12.8020 -12.7773
   -12.7062 -12.6300 -12.4899 -12.4161 -12.3525 -12.2976 -12.2282 -12.1180
   -11.1469 -10.8931  -6.5973  -6.5265  -6.5155  -6.5107  -6.4234  -6.4126
    -4.1040  -4.0424  -2.3719  -2.2730  -1.7681  -1.3889  -1.3720  -1.2803
    -0.8593  -0.7823  -0.6912  -0.5878  -0.5063  -0.3177  -0.2762  -0.1048
     0.0625   0.1344   0.2331   0.4480   0.5361   0.6467   0.6725   0.8035
     1.0879   1.1916   1.2637   1.2795   1.3773   1.4880   1.5635   1.6447
     1.7344   1.8928   1.9635   2.0322   2.1093   2.2852   2.3106   2.3941
     2.4042   2.5204   2.6454   2.6655   2.6717   2.7246   2.7841   2.9050
     2.9499   2.9877   3.0702   3.1545   3.1752   3.2112   3.2972   3.3098
     3.3678   3.4346   3.4646   3.5217   3.5770   3.6692   3.6881   3.7376
     3.7978   3.8305   3.8985   3.9296   4.0299   4.2987   4.4180   4.4849
     8.1768   8.4141   8.4460   9.4350   9.6734  10.0251  10.8451  11.3621
    11.6849  12.0178  12.1812  12.3325  12.5362  12.7888  12.9169  13.0160
    13.1576  13.2441  13.2770  13.5233  13.5841  13.6065  13.6864  13.8113
    13.8403  14.1205  14.1907  14.2499  14.3580

     occupation numbers 
     1.0000   1.0000   1.0000   1.0000   1.0000   1.0000   1.0000   1.0000
     1.0000   1.0000   1.0000   1.0000   1.0000   1.0000   1.0000   1.0000
     1.0000   1.0000   1.0000   1.0000   1.0000   1.0000   1.0000   1.0000
     1.0000   1.0000   1.0000   1.0000   1.0000   1.0000   1.0000   1.0000
     1.0000   1.0000   1.0000   1.0000   1.0000   1.0000   1.0000   1.0000
     1.0000   1.0000   1.0000   1.0000   1.0000   1.0000   1.0000   1.0000
     1.0000   1.0000   1.0000   1.0000   1.0000   1.0000   1.0000   1.0000
     1.0000   1.0000   1.0000   1.0000   1.0000   1.0000   1.0000   1.0000
     1.0000   1.0000   1.0000   1.0000   1.0000   1.0000   1.0000   1.0000
     1.0000   1.0000   1.0000   1.0000   1.0000   1.0000   1.0000   1.0000
     1.0000   1.0000   1.0000   1.0000   1.0000   1.0000   1.0000   1.0000
     1.0000   1.0000   1.0000   1.0000   1.0000   1.0000   1.0000   1.0000
     1.0000   1.0000   1.0000   1.0000   1.0000   1.0000   1.0000   1.0000
     1.0000   1.0000   1.0000   1.0000   1.0000   1.0000   1.0000   1.0000
     1.0000   1.0000   1.0000   1.0000   1.0000   1.0000   1.0000   1.0000
     1.0000   1.0000   1.0000   1.0000   1.0000   1.0000   1.0000   1.0000
     1.0000   1.0000   1.0000   0.0000   0.0000   0.0000   0.0000   0.0000
     0.0000   0.0000   0.0000   0.0000   0.0000   0.0000   0.0000   0.0000
     0.0000   0.0000   0.0000   0.0000   0.0000   0.0000   0.0000   0.0000
     0.0000   0.0000   0.0000   0.0000   0.0000

          k = 0.1667 0.0000 0.2059 ( 25961 PWs)   bands (ev):

   -77.9054 -67.6511 -67.5511 -67.4250 -67.0666 -66.8862 -44.0887 -44.0478
   -43.9296 -34.4160 -34.3969 -34.3960 -34.3188 -34.2982 -34.2923 -34.1908
   -34.1804 -34.1589 -33.8215 -33.8193 -33.8159 -33.6596 -33.6285 -33.6283
   -23.0317 -22.9384 -14.9754 -14.9564 -14.1307 -14.1079 -13.7073 -13.6851
   -13.3450 -13.2261 -13.1395 -13.0655 -12.9210 -12.8334 -12.8190 -12.7766
   -12.7002 -12.6340 -12.4818 -12.4252 -12.3429 -12.3072 -12.2172 -12.1270
   -11.1464 -10.8940  -6.5974  -6.5264  -6.5155  -6.5107  -6.4233  -6.4126
    -4.1045  -4.0422  -2.3523  -2.2971  -1.7324  -1.4300  -1.3463  -1.2615
    -0.8539  -0.7905  -0.6799  -0.6004  -0.5027  -0.3098  -0.2701  -0.2224
     0.1009   0.1717   0.1777   0.3894   0.5226   0.6394   0.6508   0.8616
     1.1526   1.2075   1.2477   1.2620   1.3999   1.4985   1.5773   1.6523
     1.7792   1.9173   2.0023   2.0350   2.1901   2.2654   2.3377   2.3879
     2.4177   2.4768   2.5434   2.6157   2.6652   2.7221   2.7928   2.8822
     2.8910   2.9904   3.1089   3.1302   3.1796   3.2293   3.2647   3.3262
     3.3635   3.4459   3.4687   3.5258   3.5683   3.6936   3.7164   3.7401
     3.8173   3.8330   3.8396   3.8925   4.0499   4.2947   4.4335   4.4908
     8.1773   8.4142   8.4443   9.6517   9.7286  10.1317  10.2887  11.4616
    11.7086  11.8787  12.2462  12.2693  12.4944  12.8363  13.0226  13.1727
    13.2569  13.2983  13.3339  13.3919  13.5201  13.6068  13.7268  13.8175
    13.9025  13.9834  14.0866  14.2964  14.3486

     occupation numbers 
     1.0000   1.0000   1.0000   1.0000   1.0000   1.0000   1.0000   1.0000
     1.0000   1.0000   1.0000   1.0000   1.0000   1.0000   1.0000   1.0000
     1.0000   1.0000   1.0000   1.0000   1.0000   1.0000   1.0000   1.0000
     1.0000   1.0000   1.0000   1.0000   1.0000   1.0000   1.0000   1.0000
     1.0000   1.0000   1.0000   1.0000   1.0000   1.0000   1.0000   1.0000
     1.0000   1.0000   1.0000   1.0000   1.0000   1.0000   1.0000   1.0000
     1.0000   1.0000   1.0000   1.0000   1.0000   1.0000   1.0000   1.0000
     1.0000   1.0000   1.0000   1.0000   1.0000   1.0000   1.0000   1.0000
     1.0000   1.0000   1.0000   1.0000   1.0000   1.0000   1.0000   1.0000
     1.0000   1.0000   1.0000   1.0000   1.0000   1.0000   1.0000   1.0000
     1.0000   1.0000   1.0000   1.0000   1.0000   1.0000   1.0000   1.0000
     1.0000   1.0000   1.0000   1.0000   1.0000   1.0000   1.0000   1.0000
     1.0000   1.0000   1.0000   1.0000   1.0000   1.0000   1.0000   1.0000
     1.0000   1.0000   1.0000   1.0000   1.0000   1.0000   1.0000   1.0000
     1.0000   1.0000   1.0000   1.0000   1.0000   1.0000   1.0000   1.0000
     1.0000   1.0000   1.0000   1.0000   1.0000   1.0000   1.0000   1.0000
     1.0000   1.0000   1.0000   0.0000   0.0000   0.0000   0.0000   0.0000
     0.0000   0.0000   0.0000   0.0000   0.0000   0.0000   0.0000   0.0000
     0.0000   0.0000   0.0000   0.0000   0.0000   0.0000   0.0000   0.0000
     0.0000   0.0000   0.0000   0.0000   0.0000

          k = 0.1667 0.0000-0.1457 ( 25956 PWs)   bands (ev):

   -77.9054 -67.6511 -67.5511 -67.4250 -67.0666 -66.8862 -44.0887 -44.0478
   -43.9296 -34.4160 -34.3969 -34.3960 -34.3188 -34.2982 -34.2923 -34.1909
   -34.1804 -34.1589 -33.8215 -33.8192 -33.8159 -33.6596 -33.6285 -33.6283
   -23.0317 -22.9384 -14.9822 -14.9493 -14.1316 -14.1070 -13.7071 -13.6852
   -13.3480 -13.2178 -13.1464 -13.0653 -12.9204 -12.8398 -12.8108 -12.7765
   -12.7036 -12.6337 -12.4781 -12.4283 -12.3343 -12.3156 -12.2183 -12.1254
   -11.1463 -10.8938  -6.5975  -6.5264  -6.5155  -6.5107  -6.4233  -6.4126
    -4.0877  -4.0593  -2.3497  -2.2981  -1.7470  -1.4235  -1.3468  -1.2656
    -0.8400  -0.8055  -0.6735  -0.5709  -0.5287  -0.3096  -0.2897  -0.1876
     0.0681   0.1637   0.2021   0.3889   0.5509   0.6398   0.7048   0.8466
     1.0915   1.1781   1.2319   1.2857   1.4279   1.5272   1.5673   1.6305
     1.7911   1.9165   1.9835   2.0345   2.1101   2.2875   2.3060   2.3581
     2.3867   2.5177   2.6056   2.6378   2.6496   2.7301   2.7969   2.8731
     2.9421   3.0054   3.0985   3.1351   3.1934   3.2566   3.2785   3.3460
     3.3537   3.4274   3.4620   3.5429   3.5703   3.6184   3.7104   3.7392
     3.7811   3.8108   3.8502   3.9249   4.0814   4.2910   4.4307   4.4836
     8.1783   8.4137   8.4462   9.6128   9.6948   9.9594  10.5868  11.4971
    11.7708  11.8600  12.2126  12.2869  12.5377  12.8966  12.9547  13.0587
    13.1563  13.2462  13.3278  13.4451  13.5018  13.6498  13.6724  13.7439
    13.8739  14.0831  14.1895  14.2830  14.3631

     occupation numbers 
     1.0000   1.0000   1.0000   1.0000   1.0000   1.0000   1.0000   1.0000
     1.0000   1.0000   1.0000   1.0000   1.0000   1.0000   1.0000   1.0000
     1.0000   1.0000   1.0000   1.0000   1.0000   1.0000   1.0000   1.0000
     1.0000   1.0000   1.0000   1.0000   1.0000   1.0000   1.0000   1.0000
     1.0000   1.0000   1.0000   1.0000   1.0000   1.0000   1.0000   1.0000
     1.0000   1.0000   1.0000   1.0000   1.0000   1.0000   1.0000   1.0000
     1.0000   1.0000   1.0000   1.0000   1.0000   1.0000   1.0000   1.0000
     1.0000   1.0000   1.0000   1.0000   1.0000   1.0000   1.0000   1.0000
     1.0000   1.0000   1.0000   1.0000   1.0000   1.0000   1.0000   1.0000
     1.0000   1.0000   1.0000   1.0000   1.0000   1.0000   1.0000   1.0000
     1.0000   1.0000   1.0000   1.0000   1.0000   1.0000   1.0000   1.0000
     1.0000   1.0000   1.0000   1.0000   1.0000   1.0000   1.0000   1.0000
     1.0000   1.0000   1.0000   1.0000   1.0000   1.0000   1.0000   1.0000
     1.0000   1.0000   1.0000   1.0000   1.0000   1.0000   1.0000   1.0000
     1.0000   1.0000   1.0000   1.0000   1.0000   1.0000   1.0000   1.0000
     1.0000   1.0000   1.0000   1.0000   1.0000   1.0000   1.0000   1.0000
     1.0000   1.0000   1.0000   0.0000   0.0000   0.0000   0.0000   0.0000
     0.0000   0.0000   0.0000   0.0000   0.0000   0.0000   0.0000   0.0000
     0.0000   0.0000   0.0000   0.0000   0.0000   0.0000   0.0000   0.0000
     0.0000   0.0000   0.0000   0.0000   0.0000

          k = 0.1667 0.1921 0.0301 ( 25937 PWs)   bands (ev):

   -77.9054 -67.6511 -67.5511 -67.4250 -67.0666 -66.8862 -44.0887 -44.0478
   -43.9296 -34.4160 -34.3969 -34.3960 -34.3188 -34.2982 -34.2923 -34.1908
   -34.1804 -34.1589 -33.8215 -33.8192 -33.8159 -33.6596 -33.6285 -33.6283
   -23.0317 -22.9384 -14.9862 -14.9347 -14.1717 -14.1245 -13.6984 -13.6698
   -13.2981 -13.1677 -13.1245 -13.0590 -12.9275 -12.8942 -12.8570 -12.7826
   -12.7287 -12.6253 -12.4846 -12.4029 -12.3457 -12.3016 -12.2262 -12.1162
   -11.1458 -10.8927  -6.5968  -6.5265  -6.5160  -6.5108  -6.4233  -6.4130
    -4.0684  -4.0059  -2.5256  -2.4225  -1.6785  -1.3846  -1.2526  -1.2231
    -0.8574  -0.7894  -0.7276  -0.5978  -0.4886  -0.2680  -0.2203  -0.0781
     0.0227   0.1345   0.2166   0.4339   0.5013   0.6144   0.6791   0.7750
     1.0860   1.1261   1.2444   1.3168   1.3630   1.4822   1.5756   1.6577
     1.7658   1.9193   1.9446   2.0578   2.1509   2.2627   2.3530   2.3799
     2.4557   2.5325   2.5667   2.7008   2.7185   2.7934   2.8427   2.8906
     2.9670   2.9870   3.0527   3.1273   3.1742   3.2050   3.2531   3.3366
     3.3952   3.4407   3.4755   3.5077   3.5633   3.6293   3.6615   3.7163
     3.7829   3.8120   3.8594   3.9521   4.0245   4.2568   4.3465   4.4757
     8.1844   8.4153   8.4442   9.6289   9.7918  10.0419  10.6603  11.0730
    11.5801  11.8855  12.3010  12.5725  12.6183  12.7876  13.0174  13.0348
    13.1285  13.2541  13.3215  13.4274  13.4722  13.5840  13.6888  13.7653
    13.9125  13.9889  14.2414  14.3790  14.5406

     occupation numbers 
     1.0000   1.0000   1.0000   1.0000   1.0000   1.0000   1.0000   1.0000
     1.0000   1.0000   1.0000   1.0000   1.0000   1.0000   1.0000   1.0000
     1.0000   1.0000   1.0000   1.0000   1.0000   1.0000   1.0000   1.0000
     1.0000   1.0000   1.0000   1.0000   1.0000   1.0000   1.0000   1.0000
     1.0000   1.0000   1.0000   1.0000   1.0000   1.0000   1.0000   1.0000
     1.0000   1.0000   1.0000   1.0000   1.0000   1.0000   1.0000   1.0000
     1.0000   1.0000   1.0000   1.0000   1.0000   1.0000   1.0000   1.0000
     1.0000   1.0000   1.0000   1.0000   1.0000   1.0000   1.0000   1.0000
     1.0000   1.0000   1.0000   1.0000   1.0000   1.0000   1.0000   1.0000
     1.0000   1.0000   1.0000   1.0000   1.0000   1.0000   1.0000   1.0000
     1.0000   1.0000   1.0000   1.0000   1.0000   1.0000   1.0000   1.0000
     1.0000   1.0000   1.0000   1.0000   1.0000   1.0000   1.0000   1.0000
     1.0000   1.0000   1.0000   1.0000   1.0000   1.0000   1.0000   1.0000
     1.0000   1.0000   1.0000   1.0000   1.0000   1.0000   1.0000   1.0000
     1.0000   1.0000   1.0000   1.0000   1.0000   1.0000   1.0000   1.0000
     1.0000   1.0000   1.0000   1.0000   1.0000   1.0000   1.0000   1.0000
     1.0000   1.0000   1.0000   0.0000   0.0000   0.0000   0.0000   0.0000
     0.0000   0.0000   0.0000   0.0000   0.0000   0.0000   0.0000   0.0000
     0.0000   0.0000   0.0000   0.0000   0.0000   0.0000   0.0000   0.0000
     0.0000   0.0000   0.0000   0.0000   0.0000

          k = 0.1667 0.1921 0.2059 ( 25944 PWs)   bands (ev):

   -77.9054 -67.6511 -67.5511 -67.4250 -67.0666 -66.8862 -44.0887 -44.0478
   -43.9296 -34.4160 -34.3969 -34.3959 -34.3188 -34.2982 -34.2923 -34.1908
   -34.1804 -34.1589 -33.8215 -33.8192 -33.8159 -33.6596 -33.6285 -33.6283
   -23.0317 -22.9384 -14.9703 -14.9515 -14.1590 -14.1380 -13.6963 -13.6720
   -13.2911 -13.1681 -13.1396 -13.0444 -12.9317 -12.8980 -12.8516 -12.7824
   -12.7264 -12.6301 -12.4782 -12.4109 -12.3393 -12.3076 -12.2155 -12.1250
   -11.1453 -10.8935  -6.5968  -6.5265  -6.5160  -6.5108  -6.4231  -6.4130
    -4.0656  -4.0089  -2.5004  -2.4505  -1.6509  -1.3743  -1.2745  -1.2017
    -0.8613  -0.7840  -0.7229  -0.6074  -0.4806  -0.3099  -0.2122  -0.1403
     0.0554   0.1290   0.1881   0.3916   0.4939   0.6066   0.6660   0.8111
     1.0947   1.1257   1.2342   1.3624   1.3966   1.5069   1.6105   1.7268
     1.7995   1.8682   1.9396   2.0770   2.1929   2.2524   2.3638   2.3919
     2.4575   2.4989   2.5539   2.6446   2.7053   2.7807   2.8160   2.8662
     2.9437   3.0025   3.0264   3.1310   3.1516   3.1944   3.2635   3.3526
     3.3876   3.4427   3.4718   3.5223   3.5889   3.6140   3.6890   3.7237
     3.7705   3.8197   3.8664   3.9147   4.0215   4.2647   4.3565   4.4874
     8.1853   8.4152   8.4421   9.6071   9.9283  10.2349  10.5925  10.8792
    11.2665  11.8723  12.3003  12.5716  12.6875  12.8371  13.0664  13.2000
    13.2605  13.2917  13.3520  13.4014  13.5055  13.6081  13.6891  13.7640
    13.8576  13.9673  14.1677  14.2652  14.4869

     occupation numbers 
     1.0000   1.0000   1.0000   1.0000   1.0000   1.0000   1.0000   1.0000
     1.0000   1.0000   1.0000   1.0000   1.0000   1.0000   1.0000   1.0000
     1.0000   1.0000   1.0000   1.0000   1.0000   1.0000   1.0000   1.0000
     1.0000   1.0000   1.0000   1.0000   1.0000   1.0000   1.0000   1.0000
     1.0000   1.0000   1.0000   1.0000   1.0000   1.0000   1.0000   1.0000
     1.0000   1.0000   1.0000   1.0000   1.0000   1.0000   1.0000   1.0000
     1.0000   1.0000   1.0000   1.0000   1.0000   1.0000   1.0000   1.0000
     1.0000   1.0000   1.0000   1.0000   1.0000   1.0000   1.0000   1.0000
     1.0000   1.0000   1.0000   1.0000   1.0000   1.0000   1.0000   1.0000
     1.0000   1.0000   1.0000   1.0000   1.0000   1.0000   1.0000   1.0000
     1.0000   1.0000   1.0000   1.0000   1.0000   1.0000   1.0000   1.0000
     1.0000   1.0000   1.0000   1.0000   1.0000   1.0000   1.0000   1.0000
     1.0000   1.0000   1.0000   1.0000   1.0000   1.0000   1.0000   1.0000
     1.0000   1.0000   1.0000   1.0000   1.0000   1.0000   1.0000   1.0000
     1.0000   1.0000   1.0000   1.0000   1.0000   1.0000   1.0000   1.0000
     1.0000   1.0000   1.0000   1.0000   1.0000   1.0000   1.0000   1.0000
     1.0000   1.0000   1.0000   0.0000   0.0000   0.0000   0.0000   0.0000
     0.0000   0.0000   0.0000   0.0000   0.0000   0.0000   0.0000   0.0000
     0.0000   0.0000   0.0000   0.0000   0.0000   0.0000   0.0000   0.0000
     0.0000   0.0000   0.0000   0.0000   0.0000

          k = 0.1667 0.1921-0.1457 ( 25923 PWs)   bands (ev):

   -77.9054 -67.6511 -67.5511 -67.4250 -67.0666 -66.8862 -44.0887 -44.0478
   -43.9296 -34.4160 -34.3969 -34.3959 -34.3188 -34.2982 -34.2923 -34.1908
   -34.1803 -34.1589 -33.8215 -33.8192 -33.8159 -33.6596 -33.6285 -33.6283
   -23.0317 -22.9384 -14.9771 -14.9444 -14.1619 -14.1349 -13.6935 -13.6749
   -13.2932 -13.1685 -13.1330 -13.0505 -12.9312 -12.8883 -12.8626 -12.7819
   -12.7269 -12.6291 -12.4732 -12.4140 -12.3304 -12.3174 -12.2163 -12.1236
   -11.1452 -10.8934  -6.5969  -6.5265  -6.5160  -6.5108  -6.4232  -6.4130
    -4.0502  -4.0247  -2.5019  -2.4484  -1.6615  -1.3763  -1.2776  -1.1988
    -0.8370  -0.8101  -0.6970  -0.5991  -0.5213  -0.2748  -0.2240  -0.1259
     0.0320   0.1276   0.1801   0.4168   0.5126   0.5990   0.7145   0.8078
     1.0627   1.1014   1.2311   1.3385   1.4115   1.5115   1.6089   1.7097
     1.7996   1.8973   1.9182   2.0994   2.1453   2.2382   2.3335   2.3710
     2.4190   2.5306   2.5792   2.6662   2.7346   2.7623   2.8055   2.9228
     2.9455   3.0364   3.0470   3.1146   3.1636   3.1788   3.2681   3.3700
     3.4033   3.4332   3.4655   3.5239   3.5879   3.6283   3.6775   3.7080
     3.7378   3.7786   3.8858   3.9058   4.0643   4.2547   4.3543   4.4747
     8.1862   8.4151   8.4447   9.5895   9.9864  10.0326  10.8006  10.8233
    11.3689  11.9348  12.3355  12.5402  12.6472  12.8440  13.0123  13.1187
    13.1739  13.2553  13.3644  13.4195  13.5515  13.5808  13.6481  13.8369
    13.8788  13.9125  14.0974  14.3407  14.4649

     occupation numbers 
     1.0000   1.0000   1.0000   1.0000   1.0000   1.0000   1.0000   1.0000
     1.0000   1.0000   1.0000   1.0000   1.0000   1.0000   1.0000   1.0000
     1.0000   1.0000   1.0000   1.0000   1.0000   1.0000   1.0000   1.0000
     1.0000   1.0000   1.0000   1.0000   1.0000   1.0000   1.0000   1.0000
     1.0000   1.0000   1.0000   1.0000   1.0000   1.0000   1.0000   1.0000
     1.0000   1.0000   1.0000   1.0000   1.0000   1.0000   1.0000   1.0000
     1.0000   1.0000   1.0000   1.0000   1.0000   1.0000   1.0000   1.0000
     1.0000   1.0000   1.0000   1.0000   1.0000   1.0000   1.0000   1.0000
     1.0000   1.0000   1.0000   1.0000   1.0000   1.0000   1.0000   1.0000
     1.0000   1.0000   1.0000   1.0000   1.0000   1.0000   1.0000   1.0000
     1.0000   1.0000   1.0000   1.0000   1.0000   1.0000   1.0000   1.0000
     1.0000   1.0000   1.0000   1.0000   1.0000   1.0000   1.0000   1.0000
     1.0000   1.0000   1.0000   1.0000   1.0000   1.0000   1.0000   1.0000
     1.0000   1.0000   1.0000   1.0000   1.0000   1.0000   1.0000   1.0000
     1.0000   1.0000   1.0000   1.0000   1.0000   1.0000   1.0000   1.0000
     1.0000   1.0000   1.0000   1.0000   1.0000   1.0000   1.0000   1.0000
     1.0000   1.0000   1.0000   0.0000   0.0000   0.0000   0.0000   0.0000
     0.0000   0.0000   0.0000   0.0000   0.0000   0.0000   0.0000   0.0000
     0.0000   0.0000   0.0000   0.0000   0.0000   0.0000   0.0000   0.0000
     0.0000   0.0000   0.0000   0.0000   0.0000

          k = 0.3333 0.0000 0.0601 ( 25907 PWs)   bands (ev):

   -77.9054 -67.6511 -67.5511 -67.4250 -67.0666 -66.8862 -44.0887 -44.0477
   -43.9296 -34.4157 -34.3968 -34.3963 -34.3187 -34.2982 -34.2922 -34.1909
   -34.1802 -34.1589 -33.8215 -33.8192 -33.8159 -33.6597 -33.6285 -33.6283
   -23.0314 -22.9381 -14.8313 -14.7832 -14.2552 -14.2173 -13.8383 -13.8023
   -13.2561 -13.1048 -13.0427 -13.0361 -12.9508 -12.8720 -12.8216 -12.7987
   -12.7112 -12.6411 -12.5439 -12.4844 -12.4146 -12.3325 -12.2121 -12.1098
   -11.1205 -10.9253  -6.5988  -6.5242  -6.5190  -6.5120  -6.4227  -6.4048
    -3.6946  -3.6228  -2.5042  -2.3932  -1.7713  -1.6196  -1.3945  -1.2228
    -0.8101  -0.7576  -0.6803  -0.6369  -0.3902  -0.2728  -0.2027  -0.0767
    -0.0509   0.1443   0.2724   0.4347   0.5179   0.6306   0.6943   0.7447
     1.0349   1.1105   1.1896   1.3115   1.4322   1.4564   1.5776   1.5948
     1.6606   1.6951   1.8391   1.9830   2.1027   2.3099   2.3439   2.4192
     2.4627   2.5672   2.6529   2.7089   2.7305   2.7637   2.8035   2.9116
     2.9268   2.9968   3.1093   3.1264   3.1576   3.2054   3.2410   3.2637
     3.2833   3.4622   3.4842   3.5171   3.5550   3.5916   3.6297   3.7002
     3.7478   3.8081   3.8695   3.9399   3.9917   4.1434   4.3417   4.4413
     8.1858   8.3947   8.4302   9.6784   9.8508  10.3482  11.2601  11.5036
    11.9114  12.0582  12.1982  12.2830  12.6424  12.7155  12.7299  12.9879
    13.1667  13.1900  13.4222  13.4808  13.5263  13.5747  13.7031  13.9498
    13.9705  14.1769  14.2149  14.3224  14.4647

     occupation numbers 
     1.0000   1.0000   1.0000   1.0000   1.0000   1.0000   1.0000   1.0000
     1.0000   1.0000   1.0000   1.0000   1.0000   1.0000   1.0000   1.0000
     1.0000   1.0000   1.0000   1.0000   1.0000   1.0000   1.0000   1.0000
     1.0000   1.0000   1.0000   1.0000   1.0000   1.0000   1.0000   1.0000
     1.0000   1.0000   1.0000   1.0000   1.0000   1.0000   1.0000   1.0000
     1.0000   1.0000   1.0000   1.0000   1.0000   1.0000   1.0000   1.0000
     1.0000   1.0000   1.0000   1.0000   1.0000   1.0000   1.0000   1.0000
     1.0000   1.0000   1.0000   1.0000   1.0000   1.0000   1.0000   1.0000
     1.0000   1.0000   1.0000   1.0000   1.0000   1.0000   1.0000   1.0000
     1.0000   1.0000   1.0000   1.0000   1.0000   1.0000   1.0000   1.0000
     1.0000   1.0000   1.0000   1.0000   1.0000   1.0000   1.0000   1.0000
     1.0000   1.0000   1.0000   1.0000   1.0000   1.0000   1.0000   1.0000
     1.0000   1.0000   1.0000   1.0000   1.0000   1.0000   1.0000   1.0000
     1.0000   1.0000   1.0000   1.0000   1.0000   1.0000   1.0000   1.0000
     1.0000   1.0000   1.0000   1.0000   1.0000   1.0000   1.0000   1.0000
     1.0000   1.0000   1.0000   1.0000   1.0000   1.0000   1.0000   1.0000
     1.0000   1.0000   1.0000   0.0000   0.0000   0.0000   0.0000   0.0000
     0.0000   0.0000   0.0000   0.0000   0.0000   0.0000   0.0000   0.0000
     0.0000   0.0000   0.0000   0.0000   0.0000   0.0000   0.0000   0.0000
     0.0000   0.0000   0.0000   0.0000   0.0000

          k = 0.3333 0.0000 0.2360 ( 25948 PWs)   bands (ev):

   -77.9054 -67.6511 -67.5511 -67.4250 -67.0666 -66.8862 -44.0887 -44.0477
   -43.9296 -34.4157 -34.3968 -34.3964 -34.3187 -34.2983 -34.2922 -34.1909
   -34.1802 -34.1590 -33.8215 -33.8192 -33.8159 -33.6597 -33.6285 -33.6283
   -23.0314 -22.9381 -14.8135 -14.8018 -14.2529 -14.2198 -13.8310 -13.8099
   -13.2498 -13.1182 -13.0440 -13.0261 -12.9510 -12.8617 -12.8288 -12.8032
   -12.7110 -12.6417 -12.5364 -12.4945 -12.3987 -12.3448 -12.2019 -12.1194
   -11.1195 -10.9264  -6.5989  -6.5241  -6.5191  -6.5120  -6.4226  -6.4048
    -3.6955  -3.6220  -2.4789  -2.4217  -1.7433  -1.6565  -1.3712  -1.2103
    -0.8062  -0.7615  -0.6888  -0.6203  -0.3612  -0.2526  -0.2267  -0.1893
    -0.0027   0.1055   0.2712   0.4047   0.5240   0.6144   0.6710   0.8037
     1.0637   1.1310   1.1879   1.3047   1.3470   1.5027   1.5866   1.6359
     1.6990   1.7448   1.7832   2.0674   2.1275   2.2677   2.3566   2.4271
     2.4372   2.4971   2.6218   2.7088   2.7473   2.7760   2.8068   2.8479
     2.9268   3.0379   3.0628   3.0874   3.1213   3.2225   3.2685   3.3016
     3.3143   3.4656   3.4804   3.5458   3.5563   3.5746   3.6258   3.6799
     3.7197   3.8323   3.8652   3.9188   3.9974   4.1815   4.3365   4.4470
     8.1855   8.3941   8.4306   9.6731   9.8731  10.6580  10.7989  11.5651
    11.9629  12.0012  12.1567  12.3624  12.5458  12.6587  12.7795  12.9517
    13.2482  13.2803  13.3978  13.4289  13.5227  13.6120  13.8193  13.9365
    13.9925  14.0396  14.0496  14.4537  14.5788

     occupation numbers 
     1.0000   1.0000   1.0000   1.0000   1.0000   1.0000   1.0000   1.0000
     1.0000   1.0000   1.0000   1.0000   1.0000   1.0000   1.0000   1.0000
     1.0000   1.0000   1.0000   1.0000   1.0000   1.0000   1.0000   1.0000
     1.0000   1.0000   1.0000   1.0000   1.0000   1.0000   1.0000   1.0000
     1.0000   1.0000   1.0000   1.0000   1.0000   1.0000   1.0000   1.0000
     1.0000   1.0000   1.0000   1.0000   1.0000   1.0000   1.0000   1.0000
     1.0000   1.0000   1.0000   1.0000   1.0000   1.0000   1.0000   1.0000
     1.0000   1.0000   1.0000   1.0000   1.0000   1.0000   1.0000   1.0000
     1.0000   1.0000   1.0000   1.0000   1.0000   1.0000   1.0000   1.0000
     1.0000   1.0000   1.0000   1.0000   1.0000   1.0000   1.0000   1.0000
     1.0000   1.0000   1.0000   1.0000   1.0000   1.0000   1.0000   1.0000
     1.0000   1.0000   1.0000   1.0000   1.0000   1.0000   1.0000   1.0000
     1.0000   1.0000   1.0000   1.0000   1.0000   1.0000   1.0000   1.0000
     1.0000   1.0000   1.0000   1.0000   1.0000   1.0000   1.0000   1.0000
     1.0000   1.0000   1.0000   1.0000   1.0000   1.0000   1.0000   1.0000
     1.0000   1.0000   1.0000   1.0000   1.0000   1.0000   1.0000   1.0000
     1.0000   1.0000   1.0000   0.0000   0.0000   0.0000   0.0000   0.0000
     0.0000   0.0000   0.0000   0.0000   0.0000   0.0000   0.0000   0.0000
     0.0000   0.0000   0.0000   0.0000   0.0000   0.0000   0.0000   0.0000
     0.0000   0.0000   0.0000   0.0000   0.0000

          k = 0.3333 0.0000-0.1157 ( 25913 PWs)   bands (ev):

   -77.9054 -67.6511 -67.5511 -67.4250 -67.0666 -66.8862 -44.0887 -44.0477
   -43.9296 -34.4157 -34.3968 -34.3964 -34.3187 -34.2982 -34.2922 -34.1909
   -34.1802 -34.1589 -33.8215 -33.8192 -33.8159 -33.6597 -33.6285 -33.6283
   -23.0314 -22.9381 -14.8258 -14.7891 -14.2470 -14.2260 -13.8329 -13.8079
   -13.2536 -13.1099 -13.0488 -13.0250 -12.9507 -12.8760 -12.8096 -12.8086
   -12.7113 -12.6422 -12.5337 -12.4989 -12.3951 -12.3470 -12.2036 -12.1175
   -11.1196 -10.9262  -6.5990  -6.5241  -6.5191  -6.5119  -6.4226  -6.4048
    -3.6614  -3.6570  -2.4929  -2.4068  -1.7566  -1.6381  -1.3863  -1.2184
    -0.7929  -0.7564  -0.6744  -0.6250  -0.3977  -0.2698  -0.2130  -0.1295
    -0.0457   0.1108   0.3075   0.3815   0.5424   0.6234   0.7237   0.7582
     1.0497   1.0858   1.2008   1.3380   1.3834   1.4984   1.5951   1.6188
     1.6426   1.6993   1.8462   2.0111   2.0831   2.3025   2.3178   2.3901
     2.4537   2.5446   2.6493   2.6966   2.7516   2.7772   2.8355   2.8769
     2.9240   2.9793   3.0862   3.1113   3.1818   3.2062   3.2962   3.3255
     3.3345   3.4546   3.4611   3.5028   3.5503   3.6095   3.6214   3.6427
     3.7275   3.7702   3.8381   3.9507   4.0466   4.1494   4.3406   4.4455
     8.1863   8.3956   8.4301   9.6730   9.9148  10.2982  11.1906  11.6343
    11.8823  12.0399  12.2411  12.3805  12.5399  12.6402  12.8423  12.9202
    13.1201  13.2370  13.3088  13.5167  13.5424  13.5736  13.6053  13.8867
    14.0450  14.1053  14.2234  14.3438  14.5135

     occupation numbers 
     1.0000   1.0000   1.0000   1.0000   1.0000   1.0000   1.0000   1.0000
     1.0000   1.0000   1.0000   1.0000   1.0000   1.0000   1.0000   1.0000
     1.0000   1.0000   1.0000   1.0000   1.0000   1.0000   1.0000   1.0000
     1.0000   1.0000   1.0000   1.0000   1.0000   1.0000   1.0000   1.0000
     1.0000   1.0000   1.0000   1.0000   1.0000   1.0000   1.0000   1.0000
     1.0000   1.0000   1.0000   1.0000   1.0000   1.0000   1.0000   1.0000
     1.0000   1.0000   1.0000   1.0000   1.0000   1.0000   1.0000   1.0000
     1.0000   1.0000   1.0000   1.0000   1.0000   1.0000   1.0000   1.0000
     1.0000   1.0000   1.0000   1.0000   1.0000   1.0000   1.0000   1.0000
     1.0000   1.0000   1.0000   1.0000   1.0000   1.0000   1.0000   1.0000
     1.0000   1.0000   1.0000   1.0000   1.0000   1.0000   1.0000   1.0000
     1.0000   1.0000   1.0000   1.0000   1.0000   1.0000   1.0000   1.0000
     1.0000   1.0000   1.0000   1.0000   1.0000   1.0000   1.0000   1.0000
     1.0000   1.0000   1.0000   1.0000   1.0000   1.0000   1.0000   1.0000
     1.0000   1.0000   1.0000   1.0000   1.0000   1.0000   1.0000   1.0000
     1.0000   1.0000   1.0000   1.0000   1.0000   1.0000   1.0000   1.0000
     1.0000   1.0000   1.0000   0.0000   0.0000   0.0000   0.0000   0.0000
     0.0000   0.0000   0.0000   0.0000   0.0000   0.0000   0.0000   0.0000
     0.0000   0.0000   0.0000   0.0000   0.0000   0.0000   0.0000   0.0000
     0.0000   0.0000   0.0000   0.0000   0.0000

          k = 0.3333 0.1921 0.0601 ( 25923 PWs)   bands (ev):

   -77.9054 -67.6511 -67.5511 -67.4250 -67.0666 -66.8862 -44.0887 -44.0477
   -43.9296 -34.4157 -34.3968 -34.3963 -34.3187 -34.2982 -34.2922 -34.1909
   -34.1802 -34.1589 -33.8215 -33.8192 -33.8159 -33.6597 -33.6285 -33.6283
   -23.0314 -22.9381 -14.8273 -14.7794 -14.2677 -14.2278 -13.8351 -13.8010
   -13.2269 -13.1095 -13.0425 -12.9958 -12.9449 -12.8829 -12.8523 -12.8367
   -12.7116 -12.6353 -12.5428 -12.4681 -12.4128 -12.3390 -12.2116 -12.1096
   -11.1200 -10.9253  -6.5989  -6.5243  -6.5213  -6.5104  -6.4221  -6.4050
    -3.6726  -3.6011  -2.6039  -2.5030  -1.6826  -1.5173  -1.3651  -1.2339
    -0.8475  -0.7548  -0.6782  -0.6087  -0.3746  -0.2568  -0.1710  -0.0774
    -0.0056   0.1113   0.2593   0.4215   0.5313   0.6145   0.6508   0.6995
     0.9901   1.0522   1.2617   1.3565   1.4025   1.4854   1.5432   1.6050
     1.6363   1.7135   1.8362   1.9374   2.1288   2.2923   2.3693   2.4123
     2.4748   2.5817   2.6210   2.6852   2.7167   2.8191   2.8557   2.9300
     2.9676   3.0194   3.0426   3.1158   3.1528   3.1966   3.2895   3.3237
     3.3642   3.4250   3.4682   3.4894   3.5332   3.5790   3.6135   3.6452
     3.7012   3.8169   3.8811   3.9542   4.0223   4.1663   4.2999   4.3924
     8.1928   8.3928   8.4311   9.6467   9.9140  10.5476  11.1169  11.4354
    11.8347  11.8940  12.1229  12.4619  12.5586  12.7001  12.8429  13.0361
    13.1829  13.2147  13.3806  13.4165  13.4823  13.6529  13.7479  13.9092
    14.0755  14.2475  14.2770  14.3420  14.4318

     occupation numbers 
     1.0000   1.0000   1.0000   1.0000   1.0000   1.0000   1.0000   1.0000
     1.0000   1.0000   1.0000   1.0000   1.0000   1.0000   1.0000   1.0000
     1.0000   1.0000   1.0000   1.0000   1.0000   1.0000   1.0000   1.0000
     1.0000   1.0000   1.0000   1.0000   1.0000   1.0000   1.0000   1.0000
     1.0000   1.0000   1.0000   1.0000   1.0000   1.0000   1.0000   1.0000
     1.0000   1.0000   1.0000   1.0000   1.0000   1.0000   1.0000   1.0000
     1.0000   1.0000   1.0000   1.0000   1.0000   1.0000   1.0000   1.0000
     1.0000   1.0000   1.0000   1.0000   1.0000   1.0000   1.0000   1.0000
     1.0000   1.0000   1.0000   1.0000   1.0000   1.0000   1.0000   1.0000
     1.0000   1.0000   1.0000   1.0000   1.0000   1.0000   1.0000   1.0000
     1.0000   1.0000   1.0000   1.0000   1.0000   1.0000   1.0000   1.0000
     1.0000   1.0000   1.0000   1.0000   1.0000   1.0000   1.0000   1.0000
     1.0000   1.0000   1.0000   1.0000   1.0000   1.0000   1.0000   1.0000
     1.0000   1.0000   1.0000   1.0000   1.0000   1.0000   1.0000   1.0000
     1.0000   1.0000   1.0000   1.0000   1.0000   1.0000   1.0000   1.0000
     1.0000   1.0000   1.0000   1.0000   1.0000   1.0000   1.0000   1.0000
     1.0000   1.0000   1.0000   0.0000   0.0000   0.0000   0.0000   0.0000
     0.0000   0.0000   0.0000   0.0000   0.0000   0.0000   0.0000   0.0000
     0.0000   0.0000   0.0000   0.0000   0.0000   0.0000   0.0000   0.0000
     0.0000   0.0000   0.0000   0.0000   0.0000

          k = 0.3333 0.1921 0.2360 ( 25909 PWs)   bands (ev):

   -77.9054 -67.6511 -67.5511 -67.4250 -67.0666 -66.8862 -44.0887 -44.0477
   -43.9296 -34.4157 -34.3968 -34.3963 -34.3187 -34.2982 -34.2922 -34.1909
   -34.1802 -34.1589 -33.8215 -33.8192 -33.8159 -33.6597 -33.6285 -33.6283
   -23.0314 -22.9381 -14.8100 -14.7976 -14.2629 -14.2328 -13.8285 -13.8081
   -13.2214 -13.1100 -13.0552 -12.9832 -12.9470 -12.8799 -12.8599 -12.8327
   -12.7103 -12.6383 -12.5333 -12.4824 -12.3984 -12.3485 -12.2014 -12.1189
   -11.1190 -10.9263  -6.5990  -6.5243  -6.5214  -6.5104  -6.4220  -6.4049
    -3.6706  -3.6030  -2.5707  -2.5398  -1.6636  -1.5431  -1.3515  -1.2139
    -0.8370  -0.7770  -0.6545  -0.6127  -0.3444  -0.2671  -0.2116  -0.0979
    -0.0039   0.0752   0.2919   0.3733   0.5182   0.6000   0.6421   0.7321
     0.9814   1.0779   1.2886   1.3318   1.3978   1.4800   1.5714   1.6296
     1.6915   1.7509   1.8197   1.9599   2.1812   2.2221   2.3846   2.4170
     2.4461   2.5397   2.5966   2.7112   2.7306   2.7691   2.8469   2.9127
     2.9641   2.9989   3.0522   3.1007   3.1373   3.1909   3.3026   3.3345
     3.4005   3.4281   3.4708   3.5035   3.5549   3.5655   3.6108   3.6362
     3.6752   3.8504   3.8741   3.9471   4.0044   4.2013   4.2884   4.4006
     8.1927   8.3922   8.4313   9.6364   9.9163  10.8334  11.0316  11.2994
    11.5934  11.8812  12.1252  12.5014  12.5926  12.7298  12.8111  13.0162
    13.1451  13.3265  13.3933  13.4369  13.6024  13.6680  13.8102  13.8736
    14.0027  14.1440  14.1671  14.3079  14.4270

     occupation numbers 
     1.0000   1.0000   1.0000   1.0000   1.0000   1.0000   1.0000   1.0000
     1.0000   1.0000   1.0000   1.0000   1.0000   1.0000   1.0000   1.0000
     1.0000   1.0000   1.0000   1.0000   1.0000   1.0000   1.0000   1.0000
     1.0000   1.0000   1.0000   1.0000   1.0000   1.0000   1.0000   1.0000
     1.0000   1.0000   1.0000   1.0000   1.0000   1.0000   1.0000   1.0000
     1.0000   1.0000   1.0000   1.0000   1.0000   1.0000   1.0000   1.0000
     1.0000   1.0000   1.0000   1.0000   1.0000   1.0000   1.0000   1.0000
[...]
     atom   10 type  7   force =     0.00025821    0.00253456   -0.01357311
     atom   11 type  7   force =    -0.00025820    0.00253456    0.01357307
     atom   12 type  7   force =    -0.00131452   -0.01204229    0.00958468
     atom   13 type  7   force =     0.00131453   -0.01204228   -0.00958476
     atom   14 type  1   force =    -0.00022116   -0.00164180   -0.00994159
     atom   15 type  1   force =     0.00022117   -0.00164180    0.00994156
     atom   16 type  6   force =     0.00041064   -0.00097385    0.00599698
     atom   17 type  6   force =    -0.00041065   -0.00097385   -0.00599698
     atom   18 type  6   force =    -0.00000420    0.00002487   -0.00716276
     atom   19 type  6   force =     0.00000421    0.00002487    0.00716276
     atom   20 type  6   force =     0.00004878   -0.00024427    0.00683624
     atom   21 type  6   force =    -0.00004878   -0.00024427   -0.00683624
     atom   22 type  6   force =     0.00181849   -0.00011074   -0.00241059
     atom   23 type  6   force =    -0.00181849   -0.00011074    0.00241058
     atom   24 type  6   force =     0.00469001   -0.00210544   -0.00570410
     atom   25 type  6   force =    -0.00469002   -0.00210544    0.00570408
     atom   26 type  6   force =    -0.00361218    0.00079060   -0.00700175
     atom   27 type  6   force =     0.00361219    0.00079061    0.00700170
     atom   28 type  6   force =    -0.00160424    0.00230235    0.00734775
     atom   29 type  6   force =     0.00160424    0.00230235   -0.00734773
     atom   30 type  6   force =     0.00081359   -0.00202530   -0.00752375
     atom   31 type  6   force =    -0.00081359   -0.00202529    0.00752374
     atom   32 type  6   force =    -0.00252519   -0.00350684   -0.00662876
     atom   33 type  6   force =     0.00252517   -0.00350683    0.00662880
     atom   34 type  6   force =     0.00088077    0.00441564    0.00664714
     atom   35 type  6   force =    -0.00088078    0.00441563   -0.00664713
     atom   36 type  6   force =     0.00161962    0.00338328    0.01044599
     atom   37 type  6   force =    -0.00161964    0.00338328   -0.01044602
     atom   38 type  6   force =     0.00001676   -0.00175897    0.01094387
     atom   39 type  6   force =    -0.00001675   -0.00175897   -0.01094384
     atom   40 type  3   force =     0.00000000    0.00000000    0.00000000
     atom   41 type  3   force =     0.00000000    0.00000000    0.00000000
     atom   42 type  3   force =     0.00000000    0.00000000    0.00000000
     atom   43 type  3   force =     0.00000000    0.00000000    0.00000000
     atom   44 type  2   force =     0.00000000    0.00359949   -0.00000000
     The Hubbard contrib.    to forces
     atom    1 type  4   force =     0.00000000    0.00000000    0.00000000
     atom    2 type  4   force =     0.00000000    0.00000000    0.00000000
     atom    3 type  5   force =     0.00000000    0.00000000    0.00000000
     atom    4 type  5   force =     0.00000000    0.00000000    0.00000000
     atom    5 type  5   force =     0.00000000    0.00000000    0.00000000
     atom    6 type  5   force =     0.00000000    0.00000000    0.00000000
     atom    7 type  5   force =     0.00000000    0.00000000    0.00000000
     atom    8 type  7   force =     0.00000000    0.00000000    0.00000000
     atom    9 type  7   force =     0.00000000    0.00000000    0.00000000
     atom   10 type  7   force =     0.00000000    0.00000000    0.00000000
     atom   11 type  7   force =     0.00000000    0.00000000    0.00000000
     atom   12 type  7   force =     0.00000000    0.00000000    0.00000000
     atom   13 type  7   force =     0.00000000    0.00000000    0.00000000
     atom   14 type  1   force =     0.00000000    0.00000000    0.00000000
     atom   15 type  1   force =     0.00000000    0.00000000    0.00000000
     atom   16 type  6   force =     0.00000000    0.00000000    0.00000000
     atom   17 type  6   force =     0.00000000    0.00000000    0.00000000
     atom   18 type  6   force =     0.00000000    0.00000000    0.00000000
     atom   19 type  6   force =     0.00000000    0.00000000    0.00000000
     atom   20 type  6   force =     0.00000000    0.00000000    0.00000000
     atom   21 type  6   force =     0.00000000    0.00000000    0.00000000
     atom   22 type  6   force =     0.00000000    0.00000000    0.00000000
     atom   23 type  6   force =     0.00000000    0.00000000    0.00000000
     atom   24 type  6   force =     0.00000000    0.00000000    0.00000000
     atom   25 type  6   force =     0.00000000    0.00000000    0.00000000
     atom   26 type  6   force =     0.00000000    0.00000000    0.00000000
     atom   27 type  6   force =     0.00000000    0.00000000    0.00000000
     atom   28 type  6   force =     0.00000000    0.00000000    0.00000000
     atom   29 type  6   force =     0.00000000    0.00000000    0.00000000
     atom   30 type  6   force =     0.00000000    0.00000000    0.00000000
     atom   31 type  6   force =     0.00000000    0.00000000    0.00000000
     atom   32 type  6   force =     0.00000000    0.00000000    0.00000000
     atom   33 type  6   force =     0.00000000    0.00000000    0.00000000
     atom   34 type  6   force =     0.00000000    0.00000000    0.00000000
     atom   35 type  6   force =     0.00000000    0.00000000    0.00000000
     atom   36 type  6   force =     0.00000000    0.00000000    0.00000000
     atom   37 type  6   force =     0.00000000    0.00000000    0.00000000
     atom   38 type  6   force =     0.00000000    0.00000000    0.00000000
     atom   39 type  6   force =     0.00000000    0.00000000    0.00000000
     atom   40 type  3   force =     0.00000000    0.00000000    0.00000000
     atom   41 type  3   force =     0.00000000    0.00000000    0.00000000
     atom   42 type  3   force =     0.00000000    0.00000000    0.00000000
     atom   43 type  3   force =     0.00000000    0.00000000    0.00000000
     atom   44 type  2   force =     0.00000000    0.00000000    0.00000000
     The SCF correction term to forces
     atom    1 type  4   force =     0.00000000   -0.00000861   -0.00000000
     atom    2 type  4   force =     0.00000000    0.00000978    0.00000000
     atom    3 type  5   force =     0.00000000    0.00001465   -0.00000000
     atom    4 type  5   force =    -0.00000000   -0.00000728    0.00000000
     atom    5 type  5   force =     0.00000000   -0.00000997    0.00000000
     atom    6 type  5   force =     0.00000000    0.00000253   -0.00000000
     atom    7 type  5   force =     0.00000000    0.00000644    0.00000000
     atom    8 type  7   force =     0.00000099    0.00000275    0.00000150
     atom    9 type  7   force =    -0.00000099    0.00000275   -0.00000150
     atom   10 type  7   force =     0.00000055    0.00000495    0.00000073
     atom   11 type  7   force =    -0.00000055    0.00000495   -0.00000073
     atom   12 type  7   force =    -0.00000062   -0.00000602   -0.00000002
     atom   13 type  7   force =     0.00000062   -0.00000602    0.00000002
     atom   14 type  1   force =    -0.00000000   -0.00000205   -0.00000226
     atom   15 type  1   force =     0.00000000   -0.00000205    0.00000226
     atom   16 type  6   force =    -0.00000406    0.00000682    0.00001426
     atom   17 type  6   force =     0.00000406    0.00000682   -0.00001426
     atom   18 type  6   force =     0.00000296    0.00000609   -0.00000162
     atom   19 type  6   force =    -0.00000296    0.00000609    0.00000162
     atom   20 type  6   force =     0.00000196   -0.00000927    0.00000925
     atom   21 type  6   force =    -0.00000196   -0.00000927   -0.00000925
     atom   22 type  6   force =    -0.00000521   -0.00000407   -0.00001620
     atom   23 type  6   force =     0.00000521   -0.00000407    0.00001620
     atom   24 type  6   force =     0.00000016   -0.00000719   -0.00000366
     atom   25 type  6   force =    -0.00000016   -0.00000719    0.00000366
     atom   26 type  6   force =    -0.00000009    0.00000163   -0.00000159
     atom   27 type  6   force =     0.00000009    0.00000163    0.00000159
     atom   28 type  6   force =     0.00000432    0.00000467    0.00000242
     atom   29 type  6   force =    -0.00000432    0.00000467   -0.00000242
     atom   30 type  6   force =     0.00000414    0.00000393   -0.00000038
     atom   31 type  6   force =    -0.00000414    0.00000393    0.00000038
     atom   32 type  6   force =    -0.00000316   -0.00000230   -0.00000430
     atom   33 type  6   force =     0.00000316   -0.00000230    0.00000430
     atom   34 type  6   force =    -0.00000483   -0.00000204    0.00000274
     atom   35 type  6   force =     0.00000483   -0.00000204   -0.00000274
     atom   36 type  6   force =    -0.00000270   -0.00001163    0.00001020
     atom   37 type  6   force =     0.00000270   -0.00001163   -0.00001020
     atom   38 type  6   force =     0.00000222    0.00001194    0.00000161
     atom   39 type  6   force =    -0.00000222    0.00001194   -0.00000161
     atom   40 type  3   force =    -0.00000003   -0.00000082    0.00000452
     atom   41 type  3   force =     0.00000003   -0.00000082   -0.00000452
     atom   42 type  3   force =     0.00000010    0.00000119    0.00000219
     atom   43 type  3   force =    -0.00000010    0.00000119   -0.00000219
     atom   44 type  2   force =    -0.00000000   -0.00001370   -0.00000000

     DFT-D3 dispersion contribution to forces:
     atom    1 type  4   force =    -0.00000000    0.00078695   -0.00000000
     atom    2 type  4   force =    -0.00000000   -0.00048286    0.00000000
     atom    3 type  5   force =     0.00000000    0.00067601    0.00000000
     atom    4 type  5   force =    -0.00000000   -0.00153748    0.00000000
     atom    5 type  5   force =     0.00000000   -0.00083108    0.00000000
     atom    6 type  5   force =    -0.00000000    0.00116988    0.00000000
     atom    7 type  5   force =    -0.00000000   -0.00003794   -0.00000000
     atom    8 type  7   force =    -0.00002510   -0.00004183   -0.00007012
     atom    9 type  7   force =     0.00002510   -0.00004183    0.00007012
     atom   10 type  7   force =     0.00005210   -0.00003800    0.00013721
     atom   11 type  7   force =    -0.00005210   -0.00003800   -0.00013721
     atom   12 type  7   force =    -0.00014967    0.00012994   -0.00016543
     atom   13 type  7   force =     0.00014967    0.00012994    0.00016543
     atom   14 type  1   force =     0.00001575    0.00007311   -0.00098241
     atom   15 type  1   force =    -0.00001575    0.00007311    0.00098241
     atom   16 type  6   force =     0.00000152   -0.00001459    0.00048698
     atom   17 type  6   force =    -0.00000152   -0.00001459   -0.00048698
     atom   18 type  6   force =    -0.00001038    0.00001935   -0.00037119
     atom   19 type  6   force =     0.00001038    0.00001934    0.00037119
     atom   20 type  6   force =    -0.00000344   -0.00005605    0.00041032
     atom   21 type  6   force =     0.00000344   -0.00005605   -0.00041032
     atom   22 type  6   force =     0.00003675   -0.00003268    0.00007938
     atom   23 type  6   force =    -0.00003675   -0.00003268   -0.00007938
     atom   24 type  6   force =    -0.00021176    0.00106177    0.00021920
     atom   25 type  6   force =     0.00021176    0.00106177   -0.00021920
     atom   26 type  6   force =     0.00084227    0.00008652    0.00019948
     atom   27 type  6   force =    -0.00084227    0.00008652   -0.00019948
     atom   28 type  6   force =     0.00035976   -0.00050915   -0.00010909
     atom   29 type  6   force =    -0.00035976   -0.00050915    0.00010909
     atom   30 type  6   force =    -0.00023162    0.00032910    0.00011911
     atom   31 type  6   force =     0.00023162    0.00032910   -0.00011911
     atom   32 type  6   force =     0.00093400   -0.00045884    0.00043476
     atom   33 type  6   force =    -0.00093400   -0.00045884   -0.00043476
     atom   34 type  6   force =     0.00072363   -0.00068830   -0.00033215
     atom   35 type  6   force =    -0.00072363   -0.00068830    0.00033215
     atom   36 type  6   force =     0.00007755    0.00013126   -0.00052340
     atom   37 type  6   force =    -0.00007755    0.00013126    0.00052340
     atom   38 type  6   force =     0.00002509    0.00004685   -0.00047973
     atom   39 type  6   force =    -0.00002509    0.00004685    0.00047973
     atom   40 type  3   force =     0.00020177    0.00043574   -0.00013915
     atom   41 type  3   force =    -0.00020177    0.00043574    0.00013915
     atom   42 type  3   force =     0.00008778   -0.00052095   -0.00022753
     atom   43 type  3   force =    -0.00008778   -0.00052095    0.00022753
     atom   44 type  2   force =    -0.00000000    0.00035008    0.00000000

     Total force =     0.001889     Total SCF correction =     0.000062

     DFT-D3 dispersion Force =     0.004603


     Computing stress (Cartesian axis) and pressure

          total   stress  (Ry/bohr**3)                   (kbar)     P=       -0.27
  -0.00000042   0.00000000  -0.00000038           -0.06        0.00       -0.06
   0.00000000  -0.00000118   0.00000000            0.00       -0.17        0.00
  -0.00000038   0.00000000  -0.00000398           -0.06        0.00       -0.59

     kinetic stress (kbar)  20382.73      0.00     -4.47
                                0.00  20370.04      0.00
                               -4.47      0.00  20089.80

     local   stress (kbar) -42492.41      0.00    -54.47
                                0.00 -41947.90     -0.00
                              -54.47     -0.00  20961.63

     nonloc. stress (kbar)   3835.61      0.00     -4.50
                                0.00   3836.09      0.00
                               -4.50      0.00   3820.56

     hartree stress (kbar)  23870.97      0.00     21.31
                                0.00  23599.46      0.00
                               21.31      0.00  -7162.08

     exc-cor stress (kbar)  -2852.18     -0.00      0.18
                               -0.00  -2852.09      0.00
                                0.18      0.00  -2849.08

     corecor stress (kbar)  -1880.70      0.00      0.25
                                0.00  -1880.75     -0.00
                                0.25     -0.00  -1882.34

     ewald   stress (kbar)   -848.95     -0.00     41.59
                               -0.00  -1109.86      0.00
                               41.59      0.00 -32967.95

     hubbard stress (kbar)      0.00      0.00      0.00
                                0.00      0.00      0.00
                                0.00      0.00      0.00

     DFT-D   stress (kbar)    -15.13     -0.00      0.06
                               -0.00    -15.17      0.00
                                0.06      0.00    -11.11

     XDM     stress (kbar)      0.00      0.00      0.00
                                0.00      0.00      0.00
                                0.00      0.00      0.00

     dft-nl  stress (kbar)      0.00      0.00      0.00
                                0.00      0.00      0.00
                                0.00      0.00      0.00

     TS-vdW  stress (kbar)      0.00      0.00      0.00
                                0.00      0.00      0.00
                                0.00      0.00      0.00

     MDB     stress (kbar)      0.00      0.00      0.00
                                0.00      0.00      0.00
                                0.00      0.00      0.00

     3D-RISM stress (kbar)      0.00      0.00      0.00
                                0.00      0.00      0.00
                                0.00      0.00      0.00


     Writing all to output data dir ./temp/phl-fe1-fe2-nspin.save/ :
     XML data file, charge density, pseudopotentials, collected wavefunctions

     init_run     :    110.11s CPU    112.08s WALL (       2 calls)
     electrons    :  37356.47s CPU  37814.90s WALL (      19 calls)
     update_pot   :     19.73s CPU     19.99s WALL (      17 calls)
     forces       :    737.76s CPU    748.39s WALL (      19 calls)
     force_dftd3  :     56.94s CPU     57.03s WALL (      19 calls)
     stress       :   5678.09s CPU   5728.45s WALL (      19 calls)
     stres_dftd3  :     57.09s CPU     57.17s WALL (      19 calls)

     Called by init_run:
     wfcinit      :    100.50s CPU    101.60s WALL (       2 calls)
     wfcinit:atom :      0.42s CPU      0.54s WALL (      40 calls)
     wfcinit:wfcr :     97.52s CPU     98.35s WALL (      40 calls)
     potinit      :      2.21s CPU      2.24s WALL (       2 calls)
     hinit0       :      1.56s CPU      1.59s WALL (       2 calls)

     Called by electrons:
     c_bands      :  33543.43s CPU  33805.25s WALL (     165 calls)
     sum_band     :   3229.17s CPU   3352.26s WALL (     165 calls)
     v_of_rho     :     40.01s CPU     41.19s WALL (     170 calls)
     v_h          :      3.80s CPU      3.93s WALL (     170 calls)
     v_xc         :     44.18s CPU     45.53s WALL (     208 calls)
     newd         :    434.88s CPU    515.40s WALL (     170 calls)
     PAW_pot      :    130.77s CPU    130.79s WALL (     187 calls)
     mix_rho      :      6.93s CPU      7.15s WALL (     165 calls)
     energy_dftd3 :     45.34s CPU     45.34s WALL (      19 calls)

     Called by c_bands:
     init_us_2    :    259.71s CPU    259.91s WALL (    7740 calls)
     cegterg      :  33207.03s CPU  33466.12s WALL (    3323 calls)

     Called by sum_band:
     sum_band:wei :      0.04s CPU      0.04s WALL (     165 calls)
     sum_band:loo :   2672.19s CPU   2698.12s WALL (     165 calls)
     sum_band:buf :     35.59s CPU     35.67s WALL (    3300 calls)
     sum_band:ini :    111.25s CPU    111.30s WALL (    3300 calls)
     sum_band:cal :   1283.38s CPU   1284.35s WALL (    3640 calls)
     sum_band:bec :      4.27s CPU      4.29s WALL (    3640 calls)
     addusdens    :    472.71s CPU    569.41s WALL (     165 calls)
                                        0.00s GPU  (     165 calls)
     addusd:skk   :      5.69s CPU      8.30s WALL (    1155 calls)
                                        0.00s GPU  (    1155 calls)

     Called by *egterg:
     cdiaghg      :   1572.90s CPU   1587.45s WALL (   25306 calls)
     cegterg:over :   5248.15s CPU   5250.49s WALL (   22624 calls)
     cegterg:upda :   2743.24s CPU   2752.20s WALL (   22624 calls)
     cegterg:last :   5711.19s CPU   5713.96s WALL (    9966 calls)
     cdiaghg:chol :     45.00s CPU     45.08s WALL (   25306 calls)
     cdiaghg:inve :     32.13s CPU     32.20s WALL (   25306 calls)
     cdiaghg:para :    404.86s CPU    411.03s WALL (   50612 calls)
     h_psi        :  13622.25s CPU  13801.21s WALL (   25987 calls)
     s_psi        :   2771.72s CPU   2773.62s WALL (   25987 calls)
     g_psi        :     30.52s CPU     30.60s WALL (   22624 calls)

     Called by h_psi:
     h_psi:calbec :   3994.74s CPU   3999.17s WALL (   25987 calls)
     vloc_psi     :   6642.58s CPU   6777.52s WALL (   25987 calls)
     add_vuspsi   :   2920.61s CPU   2936.97s WALL (   25987 calls)

     General routines
     calbec       :   7074.14s CPU   7080.20s WALL (   31527 calls)
     fft          :     36.90s CPU     38.97s WALL (    2678 calls)
     ffts         :      1.05s CPU      1.08s WALL (     335 calls)
     fftw         :   5118.22s CPU   5218.58s WALL ( 3974156 calls)
     interpolate  :      3.31s CPU      3.46s WALL (     170 calls)

     Parallel routines

     PAW routines
     PAW_pot      :    130.77s CPU    130.79s WALL (     187 calls)
     PAW_symme    :      0.12s CPU      0.12s WALL (     352 calls)

     PWSCF        :     12h14m CPU     12h23m WALL


   This run was terminated on:  19:14:20  29Jan2025            

=------------------------------------------------------------------------------=
   JOB DONE.
=------------------------------------------------------------------------------=
