 INFO
nunit      1    1    1
unit   cell
celltype   primcell
shape   parapipedal
 END_INFO
 DIM-GROUP
           3           1
 PRIMVEC
    5.2989900630    0.0000000000    0.0000000000
    0.0000000000    9.1953692500    0.0000000000
   -1.8126838200    0.0000000000   10.0463340640
 CONVVEC
    5.2989900630    0.0000000000    0.0000000000
    0.0000000000    9.1953692500    0.0000000000
   -1.8126838200    0.0000000000   10.0463340640
 PRIMCOORD
          44           1
 19      0.0000000000     4.5593888460     0.0000000000     0.0000000000    -0.0000153100     0.0000000000
 19      2.6494950310     0.0100021200     0.0000000000     0.0000000000     0.0000226700     0.0000000000
 12     -0.9063419100     0.0419145160     5.0231670320     0.0000000000    -0.0000341100     0.0000000000
 12     -0.9063419100     3.0643515630     5.0231670320     0.0000000000     0.0000616000     0.0000000000
 12     -0.9063419100     6.1162589120     5.0231670320     0.0000000000     0.0000569100     0.0000000000
 12      1.7431531220     4.5329989490     5.0231670320     0.0000000000    -0.0000257400     0.0000000000
 12      1.7431531220     7.6767609710     5.0231670320     0.0000000000     0.0000593000     0.0000000000
 12      1.7431531220     1.5852853180     5.0231670320     0.0000000000    -0.0000304800     0.0000000000
 14      0.0478419300     1.5180928310     2.2312630230     0.0000264100     0.0000429300    -0.0000071400
 14      3.4384641850     1.5180928310     7.8150713430    -0.0000264100     0.0000429300     0.0000071400
 14      3.5621317130     7.6729002340     7.7491909740    -0.0000201700     0.0000050300     0.0000167500
 14     -0.0758254700     7.6729002340     2.2971430910     0.0000201700     0.0000050300    -0.0000167500
 14      2.5704361050     6.1266959840     2.2760180710     0.0000130700    -0.0000230000     0.0000121300
 14      0.9158701650     6.1266959840     7.7703158430    -0.0000130700    -0.0000230000    -0.0000121300
 13      0.7852577580     3.0418527360     7.7984100360    -0.0000015300    -0.0000052100     0.0000145500
 13      2.7010484860     3.0418527360     2.2479240290     0.0000015300    -0.0000052100    -0.0000145500
  8     -0.0195648720     1.5057503780     3.8631335690    -0.0000483500    -0.0000133500    -0.0000226900
  8      3.5058709040     1.5057503780     6.1832007870     0.0000483500    -0.0000133500     0.0000226900
  8      3.5310383020     7.6623751980     6.1312364730    -0.0000313600    -0.0000267700     0.0000122000
  8     -0.0447320590     7.6623751980     3.9150975920     0.0000313600    -0.0000267700    -0.0000122000
  8      2.6061965580     6.1516002310     3.9009341320     0.0000490300     0.0000120500    -0.0000117700
  8      0.8801096860     6.1516002310     6.1453999330    -0.0000490300     0.0000120500     0.0000117700
  8      0.8180378830     3.0608625420     6.0681458470    -0.0000196600     0.0000375100     0.0000522500
  8      2.6682683600     3.0608625420     3.9781882170     0.0000196600     0.0000375100    -0.0000522500
  8      1.5349196460     1.8484436470     1.6587180210     0.0000497900    -0.0000279600     0.0000315400
  8      1.9513866520     1.8484436470     8.3876157420    -0.0000497900    -0.0000279600    -0.0000315400
  8      4.9704259890     9.1719306940     1.6787700390    -0.0000055800     0.0000409400     0.0000368000
  8     -1.4841197180     9.1719306940     8.3675638750     0.0000055800     0.0000409400    -0.0000368000
  8      2.1255743670     7.1192036100     8.3529553710    -0.0000330200     0.0000142000     0.0000481400
  8      1.3607318760     7.1192036100     1.6933786930     0.0000330200     0.0000142000    -0.0000481400
  8      4.0058736490     6.7372263900     1.6841561380    -0.0000105100     0.0000359100    -0.0000282400
  8     -0.5195674060     6.7372263900     8.3621779260     0.0000105100     0.0000359100     0.0000282400
  8      2.3352051650     4.6663529760     1.6230680420     0.0000097400    -0.0000463400     0.0000544700
  8      1.1511008920     4.6663529760     8.4232661730    -0.0000097400    -0.0000463400    -0.0000544700
  8     -0.7845710520     2.5574534320     8.4513391790    -0.0000124100     0.0000405900    -0.0000876200
  8      4.2708773750     2.5574534320     1.5949948850     0.0000124100     0.0000405900     0.0000876200
  8     -0.0228684870     4.6358186970     3.9573996260    -0.0000255600    -0.0000169800    -0.0000099300
  8      3.5091748100     4.6358186970     6.0889344380     0.0000255600    -0.0000169800     0.0000099300
  8      2.6312105330     9.1905996070     3.9913462460     0.0000164400    -0.0000659900    -0.0000367500
  8      0.8550957650     9.1905996070     6.0549875170    -0.0000164400    -0.0000659900     0.0000367500
  1     -0.0158311170     4.5350628550     2.9975148230    -0.0000365500     0.0000020500     0.0000368500
  1      3.5021375200     4.5350628550     7.0488192410     0.0000365500     0.0000020500    -0.0000368500
  1      2.5976980150     0.1533363690     3.0385002810     0.0000312700    -0.0000530400    -0.0000158400
  1      0.8886082280     0.1533363690     7.0078337840    -0.0000312700    -0.0000530400     0.0000158400
 CONVCOORD
          44           1
 19      0.0000000000     4.5593888460     0.0000000000
 19      2.6494950310     0.0100021200     0.0000000000
 12     -0.9063419100     0.0419145160     5.0231670320
 12     -0.9063419100     3.0643515630     5.0231670320
 12     -0.9063419100     6.1162589120     5.0231670320
 12      1.7431531220     4.5329989490     5.0231670320
 12      1.7431531220     7.6767609710     5.0231670320
 12      1.7431531220     1.5852853180     5.0231670320
 14      0.0478419300     1.5180928310     2.2312630230
 14      3.4384641850     1.5180928310     7.8150713430
 14      3.5621317130     7.6729002340     7.7491909740
 14     -0.0758254700     7.6729002340     2.2971430910
 14      2.5704361050     6.1266959840     2.2760180710
 14      0.9158701650     6.1266959840     7.7703158430
 13      0.7852577580     3.0418527360     7.7984100360
 13      2.7010484860     3.0418527360     2.2479240290
  8     -0.0195648720     1.5057503780     3.8631335690
  8      3.5058709040     1.5057503780     6.1832007870
  8      3.5310383020     7.6623751980     6.1312364730
  8     -0.0447320590     7.6623751980     3.9150975920
  8      2.6061965580     6.1516002310     3.9009341320
  8      0.8801096860     6.1516002310     6.1453999330
  8      0.8180378830     3.0608625420     6.0681458470
  8      2.6682683600     3.0608625420     3.9781882170
  8      1.5349196460     1.8484436470     1.6587180210
  8      1.9513866520     1.8484436470     8.3876157420
  8      4.9704259890     9.1719306940     1.6787700390
  8     -1.4841197180     9.1719306940     8.3675638750
  8      2.1255743670     7.1192036100     8.3529553710
  8      1.3607318760     7.1192036100     1.6933786930
  8      4.0058736490     6.7372263900     1.6841561380
  8     -0.5195674060     6.7372263900     8.3621779260
  8      2.3352051650     4.6663529760     1.6230680420
  8      1.1511008920     4.6663529760     8.4232661730
  8     -0.7845710520     2.5574534320     8.4513391790
  8      4.2708773750     2.5574534320     1.5949948850
  8     -0.0228684870     4.6358186970     3.9573996260
  8      3.5091748100     4.6358186970     6.0889344380
  8      2.6312105330     9.1905996070     3.9913462460
  8      0.8550957650     9.1905996070     6.0549875170
  1     -0.0158311170     4.5350628550     2.9975148230
  1      3.5021375200     4.5350628550     7.0488192410
  1      2.5976980150     0.1533363690     3.0385002810
  1      0.8886082280     0.1533363690     7.0078337840
 RECIP-PRIMVEC
    0.1887152057   -0.0000000000    0.0340503310

    0.0000000000    0.1087503909   -0.0000000000

    0.0000000000    0.0000000000    0.0995387963

 RECIP-CONVVEC
    0.1887152057   -0.0000000000    0.0340503310

    0.0000000000    0.1087503909   -0.0000000000

    0.0000000000    0.0000000000    0.0995387963

 WIGNER-SEITZ-PRIMCELL
           4
 -0.2649495E+01  0.4597685E+01 -0.4708646E+01  -0.3278435E+00 -0.1009766E-15 -0.9447320E+00
 -0.8368112E+00  0.4597685E+01 -0.5337688E+01  -0.3278435E+00 -0.1009766E-15 -0.9447320E+00
 -0.8368112E+00 -0.4597685E+01 -0.5337688E+01  -0.3278435E+00 -0.1009766E-15 -0.9447320E+00
 -0.2649495E+01 -0.4597685E+01 -0.4708646E+01  -0.3278435E+00 -0.1009766E-15 -0.9447320E+00
           4
 -0.2649495E+01  0.4597685E+01 -0.4708646E+01  -0.1000000E+01  0.4829488E-16  0.4554862E-32
 -0.2649495E+01 -0.4597685E+01 -0.4708646E+01  -0.1000000E+01  0.4829488E-16  0.4554862E-32
 -0.2649495E+01 -0.4597685E+01  0.4708646E+01  -0.1000000E+01  0.4829488E-16  0.4554862E-32
 -0.2649495E+01  0.4597685E+01  0.4708646E+01  -0.1000000E+01  0.4829488E-16  0.4554862E-32
           6
  0.2649495E+01 -0.4597685E+01  0.4708646E+01  -0.0000000E+00 -0.1000000E+01  0.1065828E-14
  0.8368112E+00 -0.4597685E+01  0.5337688E+01  -0.0000000E+00 -0.1000000E+01  0.1065828E-14
 -0.2649495E+01 -0.4597685E+01  0.4708646E+01  -0.0000000E+00 -0.1000000E+01  0.1065828E-14
 -0.2649495E+01 -0.4597685E+01 -0.4708646E+01  -0.0000000E+00 -0.1000000E+01  0.1065828E-14
 -0.8368112E+00 -0.4597685E+01 -0.5337688E+01  -0.0000000E+00 -0.1000000E+01  0.1065828E-14
  0.2649495E+01 -0.4597685E+01 -0.4708646E+01  -0.0000000E+00 -0.1000000E+01  0.1065828E-14
           4
  0.2649495E+01 -0.4597685E+01 -0.4708646E+01   0.1775651E+00 -0.2181216E-15 -0.9841091E+00
 -0.8368112E+00 -0.4597685E+01 -0.5337688E+01   0.1775651E+00 -0.2181216E-15 -0.9841091E+00
 -0.8368112E+00  0.4597685E+01 -0.5337688E+01   0.1775651E+00 -0.2181216E-15 -0.9841091E+00
  0.2649495E+01  0.4597685E+01 -0.4708646E+01   0.1775651E+00 -0.2181216E-15 -0.9841091E+00
           4
 -0.2649495E+01  0.4597685E+01  0.4708646E+01  -0.1775651E+00 -0.0000000E+00  0.9841091E+00
 -0.2649495E+01 -0.4597685E+01  0.4708646E+01  -0.1775651E+00 -0.0000000E+00  0.9841091E+00
  0.8368112E+00 -0.4597685E+01  0.5337688E+01  -0.1775651E+00 -0.0000000E+00  0.9841091E+00
  0.8368112E+00  0.4597685E+01  0.5337688E+01  -0.1775651E+00 -0.0000000E+00  0.9841091E+00
           6
  0.2649495E+01  0.4597685E+01 -0.4708646E+01   0.0000000E+00  0.1000000E+01  0.1065828E-14
 -0.8368112E+00  0.4597685E+01 -0.5337688E+01   0.0000000E+00  0.1000000E+01  0.1065828E-14
 -0.2649495E+01  0.4597685E+01 -0.4708646E+01   0.0000000E+00  0.1000000E+01  0.1065828E-14
 -0.2649495E+01  0.4597685E+01  0.4708646E+01   0.0000000E+00  0.1000000E+01  0.1065828E-14
  0.8368112E+00  0.4597685E+01  0.5337688E+01   0.0000000E+00  0.1000000E+01  0.1065828E-14
  0.2649495E+01  0.4597685E+01  0.4708646E+01   0.0000000E+00  0.1000000E+01  0.1065828E-14
           4
  0.2649495E+01  0.4597685E+01  0.4708646E+01   0.1000000E+01 -0.4829488E-16  0.0000000E+00
  0.2649495E+01 -0.4597685E+01  0.4708646E+01   0.1000000E+01 -0.4829488E-16  0.0000000E+00
  0.2649495E+01 -0.4597685E+01 -0.4708646E+01   0.1000000E+01 -0.4829488E-16  0.0000000E+00
  0.2649495E+01  0.4597685E+01 -0.4708646E+01   0.1000000E+01 -0.4829488E-16  0.0000000E+00
           4
  0.8368112E+00 -0.4597685E+01  0.5337688E+01   0.3278435E+00  0.3334111E-16  0.9447320E+00
  0.2649495E+01 -0.4597685E+01  0.4708646E+01   0.3278435E+00  0.3334111E-16  0.9447320E+00
  0.2649495E+01  0.4597685E+01  0.4708646E+01   0.3278435E+00  0.3334111E-16  0.9447320E+00
  0.8368112E+00  0.4597685E+01  0.5337688E+01   0.3278435E+00  0.3334111E-16  0.9447320E+00
 WIGNER-SEITZ-PRIMCELL_END
 WIGNER-SEITZ-CONVCELL
           4
 -0.2649495E+01  0.4597685E+01 -0.4708646E+01  -0.3278435E+00 -0.1009766E-15 -0.9447320E+00
 -0.8368112E+00  0.4597685E+01 -0.5337688E+01  -0.3278435E+00 -0.1009766E-15 -0.9447320E+00
 -0.8368112E+00 -0.4597685E+01 -0.5337688E+01  -0.3278435E+00 -0.1009766E-15 -0.9447320E+00
 -0.2649495E+01 -0.4597685E+01 -0.4708646E+01  -0.3278435E+00 -0.1009766E-15 -0.9447320E+00
           4
 -0.2649495E+01  0.4597685E+01 -0.4708646E+01  -0.1000000E+01  0.4829488E-16  0.4554862E-32
 -0.2649495E+01 -0.4597685E+01 -0.4708646E+01  -0.1000000E+01  0.4829488E-16  0.4554862E-32
 -0.2649495E+01 -0.4597685E+01  0.4708646E+01  -0.1000000E+01  0.4829488E-16  0.4554862E-32
 -0.2649495E+01  0.4597685E+01  0.4708646E+01  -0.1000000E+01  0.4829488E-16  0.4554862E-32
           6
  0.2649495E+01 -0.4597685E+01  0.4708646E+01  -0.0000000E+00 -0.1000000E+01  0.1065828E-14
  0.8368112E+00 -0.4597685E+01  0.5337688E+01  -0.0000000E+00 -0.1000000E+01  0.1065828E-14
 -0.2649495E+01 -0.4597685E+01  0.4708646E+01  -0.0000000E+00 -0.1000000E+01  0.1065828E-14
 -0.2649495E+01 -0.4597685E+01 -0.4708646E+01  -0.0000000E+00 -0.1000000E+01  0.1065828E-14
 -0.8368112E+00 -0.4597685E+01 -0.5337688E+01  -0.0000000E+00 -0.1000000E+01  0.1065828E-14
  0.2649495E+01 -0.4597685E+01 -0.4708646E+01  -0.0000000E+00 -0.1000000E+01  0.1065828E-14
           4
  0.2649495E+01 -0.4597685E+01 -0.4708646E+01   0.1775651E+00 -0.2181216E-15 -0.9841091E+00
 -0.8368112E+00 -0.4597685E+01 -0.5337688E+01   0.1775651E+00 -0.2181216E-15 -0.9841091E+00
 -0.8368112E+00  0.4597685E+01 -0.5337688E+01   0.1775651E+00 -0.2181216E-15 -0.9841091E+00
  0.2649495E+01  0.4597685E+01 -0.4708646E+01   0.1775651E+00 -0.2181216E-15 -0.9841091E+00
           4
 -0.2649495E+01  0.4597685E+01  0.4708646E+01  -0.1775651E+00 -0.0000000E+00  0.9841091E+00
 -0.2649495E+01 -0.4597685E+01  0.4708646E+01  -0.1775651E+00 -0.0000000E+00  0.9841091E+00
  0.8368112E+00 -0.4597685E+01  0.5337688E+01  -0.1775651E+00 -0.0000000E+00  0.9841091E+00
  0.8368112E+00  0.4597685E+01  0.5337688E+01  -0.1775651E+00 -0.0000000E+00  0.9841091E+00
           6
  0.2649495E+01  0.4597685E+01 -0.4708646E+01   0.0000000E+00  0.1000000E+01  0.1065828E-14
 -0.8368112E+00  0.4597685E+01 -0.5337688E+01   0.0000000E+00  0.1000000E+01  0.1065828E-14
 -0.2649495E+01  0.4597685E+01 -0.4708646E+01   0.0000000E+00  0.1000000E+01  0.1065828E-14
 -0.2649495E+01  0.4597685E+01  0.4708646E+01   0.0000000E+00  0.1000000E+01  0.1065828E-14
  0.8368112E+00  0.4597685E+01  0.5337688E+01   0.0000000E+00  0.1000000E+01  0.1065828E-14
  0.2649495E+01  0.4597685E+01  0.4708646E+01   0.0000000E+00  0.1000000E+01  0.1065828E-14
           4
  0.2649495E+01  0.4597685E+01  0.4708646E+01   0.1000000E+01 -0.4829488E-16  0.0000000E+00
  0.2649495E+01 -0.4597685E+01  0.4708646E+01   0.1000000E+01 -0.4829488E-16  0.0000000E+00
  0.2649495E+01 -0.4597685E+01 -0.4708646E+01   0.1000000E+01 -0.4829488E-16  0.0000000E+00
  0.2649495E+01  0.4597685E+01 -0.4708646E+01   0.1000000E+01 -0.4829488E-16  0.0000000E+00
           4
  0.8368112E+00 -0.4597685E+01  0.5337688E+01   0.3278435E+00  0.3334111E-16  0.9447320E+00
  0.2649495E+01 -0.4597685E+01  0.4708646E+01   0.3278435E+00  0.3334111E-16  0.9447320E+00
  0.2649495E+01  0.4597685E+01  0.4708646E+01   0.3278435E+00  0.3334111E-16  0.9447320E+00
  0.8368112E+00  0.4597685E+01  0.5337688E+01   0.3278435E+00  0.3334111E-16  0.9447320E+00
 WIGNER-SEITZ-CONVCELL_END
 BRILLOUIN-ZONE-PRIMCELL
           4
  0.1002657E+00  0.5437520E-01 -0.1571907E-01   0.9447320E+00  0.5532186E-16 -0.3278435E+00
  0.1002657E+00 -0.5437520E-01 -0.1571907E-01   0.9447320E+00  0.5532186E-16 -0.3278435E+00
  0.8844948E-01 -0.5437520E-01 -0.4976940E-01   0.9447320E+00  0.5532186E-16 -0.3278435E+00
  0.8844948E-01  0.5437520E-01 -0.4976940E-01   0.9447320E+00  0.5532186E-16 -0.3278435E+00
           4
 -0.8844948E-01  0.5437520E-01 -0.4976940E-01   0.0000000E+00 -0.5426985E-16 -0.1000000E+01
  0.8844948E-01  0.5437520E-01 -0.4976940E-01   0.0000000E+00 -0.5426985E-16 -0.1000000E+01
  0.8844948E-01 -0.5437520E-01 -0.4976940E-01   0.0000000E+00 -0.5426985E-16 -0.1000000E+01
 -0.8844948E-01 -0.5437520E-01 -0.4976940E-01   0.0000000E+00 -0.5426985E-16 -0.1000000E+01
           6
  0.8844948E-01 -0.5437520E-01  0.4976940E-01   0.0000000E+00 -0.1000000E+01  0.2879941E-15
 -0.8844948E-01 -0.5437520E-01  0.4976940E-01   0.0000000E+00 -0.1000000E+01  0.2879941E-15
 -0.1002657E+00 -0.5437520E-01  0.1571907E-01   0.0000000E+00 -0.1000000E+01  0.2879941E-15
 -0.8844948E-01 -0.5437520E-01 -0.4976940E-01   0.0000000E+00 -0.1000000E+01  0.2879941E-15
  0.8844948E-01 -0.5437520E-01 -0.4976940E-01   0.0000000E+00 -0.1000000E+01  0.2879941E-15
  0.1002657E+00 -0.5437520E-01 -0.1571907E-01   0.0000000E+00 -0.1000000E+01  0.2879941E-15
           4
  0.8844948E-01  0.5437520E-01  0.4976940E-01   0.9841091E+00 -0.3370857E-15  0.1775651E+00
  0.8844948E-01 -0.5437520E-01  0.4976940E-01   0.9841091E+00 -0.3370857E-15  0.1775651E+00
  0.1002657E+00 -0.5437520E-01 -0.1571907E-01   0.9841091E+00 -0.3370857E-15  0.1775651E+00
  0.1002657E+00  0.5437520E-01 -0.1571907E-01   0.9841091E+00 -0.3370857E-15  0.1775651E+00
           4
 -0.8844948E-01  0.5437520E-01 -0.4976940E-01  -0.9841091E+00 -0.1498159E-15 -0.1775651E+00
 -0.8844948E-01 -0.5437520E-01 -0.4976940E-01  -0.9841091E+00 -0.1498159E-15 -0.1775651E+00
 -0.1002657E+00 -0.5437520E-01  0.1571907E-01  -0.9841091E+00 -0.1498159E-15 -0.1775651E+00
 -0.1002657E+00  0.5437520E-01  0.1571907E-01  -0.9841091E+00 -0.1498159E-15 -0.1775651E+00
           6
  0.1002657E+00  0.5437520E-01 -0.1571907E-01  -0.0000000E+00  0.1000000E+01  0.2879941E-15
  0.8844948E-01  0.5437520E-01 -0.4976940E-01  -0.0000000E+00  0.1000000E+01  0.2879941E-15
 -0.8844948E-01  0.5437520E-01 -0.4976940E-01  -0.0000000E+00  0.1000000E+01  0.2879941E-15
 -0.1002657E+00  0.5437520E-01  0.1571907E-01  -0.0000000E+00  0.1000000E+01  0.2879941E-15
 -0.8844948E-01  0.5437520E-01  0.4976940E-01  -0.0000000E+00  0.1000000E+01  0.2879941E-15
  0.8844948E-01  0.5437520E-01  0.4976940E-01  -0.0000000E+00  0.1000000E+01  0.2879941E-15
           4
  0.8844948E-01 -0.5437520E-01  0.4976940E-01  -0.0000000E+00 -0.0000000E+00  0.1000000E+01
  0.8844948E-01  0.5437520E-01  0.4976940E-01  -0.0000000E+00 -0.0000000E+00  0.1000000E+01
 -0.8844948E-01  0.5437520E-01  0.4976940E-01  -0.0000000E+00 -0.0000000E+00  0.1000000E+01
 -0.8844948E-01 -0.5437520E-01  0.4976940E-01  -0.0000000E+00 -0.0000000E+00  0.1000000E+01
           4
 -0.1002657E+00  0.5437520E-01  0.1571907E-01  -0.9447320E+00 -0.1383046E-15  0.3278435E+00
 -0.1002657E+00 -0.5437520E-01  0.1571907E-01  -0.9447320E+00 -0.1383046E-15  0.3278435E+00
 -0.8844948E-01 -0.5437520E-01  0.4976940E-01  -0.9447320E+00 -0.1383046E-15  0.3278435E+00
 -0.8844948E-01  0.5437520E-01  0.4976940E-01  -0.9447320E+00 -0.1383046E-15  0.3278435E+00
 BRILLOUIN-ZONE-PRIMCELL_END
 BRILLOUIN-ZONE-CONVCELL
           4
  0.1002657E+00  0.5437520E-01 -0.1571907E-01   0.9447320E+00  0.5532186E-16 -0.3278435E+00
  0.1002657E+00 -0.5437520E-01 -0.1571907E-01   0.9447320E+00  0.5532186E-16 -0.3278435E+00
  0.8844948E-01 -0.5437520E-01 -0.4976940E-01   0.9447320E+00  0.5532186E-16 -0.3278435E+00
  0.8844948E-01  0.5437520E-01 -0.4976940E-01   0.9447320E+00  0.5532186E-16 -0.3278435E+00
           4
 -0.8844948E-01  0.5437520E-01 -0.4976940E-01   0.0000000E+00 -0.5426985E-16 -0.1000000E+01
  0.8844948E-01  0.5437520E-01 -0.4976940E-01   0.0000000E+00 -0.5426985E-16 -0.1000000E+01
  0.8844948E-01 -0.5437520E-01 -0.4976940E-01   0.0000000E+00 -0.5426985E-16 -0.1000000E+01
 -0.8844948E-01 -0.5437520E-01 -0.4976940E-01   0.0000000E+00 -0.5426985E-16 -0.1000000E+01
           6
  0.8844948E-01 -0.5437520E-01  0.4976940E-01   0.0000000E+00 -0.1000000E+01  0.2879941E-15
 -0.8844948E-01 -0.5437520E-01  0.4976940E-01   0.0000000E+00 -0.1000000E+01  0.2879941E-15
 -0.1002657E+00 -0.5437520E-01  0.1571907E-01   0.0000000E+00 -0.1000000E+01  0.2879941E-15
 -0.8844948E-01 -0.5437520E-01 -0.4976940E-01   0.0000000E+00 -0.1000000E+01  0.2879941E-15
  0.8844948E-01 -0.5437520E-01 -0.4976940E-01   0.0000000E+00 -0.1000000E+01  0.2879941E-15
  0.1002657E+00 -0.5437520E-01 -0.1571907E-01   0.0000000E+00 -0.1000000E+01  0.2879941E-15
           4
  0.8844948E-01  0.5437520E-01  0.4976940E-01   0.9841091E+00 -0.3370857E-15  0.1775651E+00
  0.8844948E-01 -0.5437520E-01  0.4976940E-01   0.9841091E+00 -0.3370857E-15  0.1775651E+00
  0.1002657E+00 -0.5437520E-01 -0.1571907E-01   0.9841091E+00 -0.3370857E-15  0.1775651E+00
  0.1002657E+00  0.5437520E-01 -0.1571907E-01   0.9841091E+00 -0.3370857E-15  0.1775651E+00
           4
 -0.8844948E-01  0.5437520E-01 -0.4976940E-01  -0.9841091E+00 -0.1498159E-15 -0.1775651E+00
 -0.8844948E-01 -0.5437520E-01 -0.4976940E-01  -0.9841091E+00 -0.1498159E-15 -0.1775651E+00
 -0.1002657E+00 -0.5437520E-01  0.1571907E-01  -0.9841091E+00 -0.1498159E-15 -0.1775651E+00
 -0.1002657E+00  0.5437520E-01  0.1571907E-01  -0.9841091E+00 -0.1498159E-15 -0.1775651E+00
           6
  0.1002657E+00  0.5437520E-01 -0.1571907E-01  -0.0000000E+00  0.1000000E+01  0.2879941E-15
  0.8844948E-01  0.5437520E-01 -0.4976940E-01  -0.0000000E+00  0.1000000E+01  0.2879941E-15
 -0.8844948E-01  0.5437520E-01 -0.4976940E-01  -0.0000000E+00  0.1000000E+01  0.2879941E-15
 -0.1002657E+00  0.5437520E-01  0.1571907E-01  -0.0000000E+00  0.1000000E+01  0.2879941E-15
 -0.8844948E-01  0.5437520E-01  0.4976940E-01  -0.0000000E+00  0.1000000E+01  0.2879941E-15
  0.8844948E-01  0.5437520E-01  0.4976940E-01  -0.0000000E+00  0.1000000E+01  0.2879941E-15
           4
  0.8844948E-01 -0.5437520E-01  0.4976940E-01  -0.0000000E+00 -0.0000000E+00  0.1000000E+01
  0.8844948E-01  0.5437520E-01  0.4976940E-01  -0.0000000E+00 -0.0000000E+00  0.1000000E+01
 -0.8844948E-01  0.5437520E-01  0.4976940E-01  -0.0000000E+00 -0.0000000E+00  0.1000000E+01
 -0.8844948E-01 -0.5437520E-01  0.4976940E-01  -0.0000000E+00 -0.0000000E+00  0.1000000E+01
           4
 -0.1002657E+00  0.5437520E-01  0.1571907E-01  -0.9447320E+00 -0.1383046E-15  0.3278435E+00
 -0.1002657E+00 -0.5437520E-01  0.1571907E-01  -0.9447320E+00 -0.1383046E-15  0.3278435E+00
 -0.8844948E-01 -0.5437520E-01  0.4976940E-01  -0.9447320E+00 -0.1383046E-15  0.3278435E+00
 -0.8844948E-01  0.5437520E-01  0.4976940E-01  -0.9447320E+00 -0.1383046E-15  0.3278435E+00
 BRILLOUIN-ZONE-CONVCELL_END
 ATOMS
   19    0.0000000000    4.5593888460    0.0000000000    0.0000000000   -0.0000153100    0.0000000000
   19    2.6494950310    0.0100021200    0.0000000000    0.0000000000    0.0000226700    0.0000000000
   12   -0.9063419100    0.0419145160    5.0231670320    0.0000000000   -0.0000341100    0.0000000000
   12   -0.9063419100    3.0643515630    5.0231670320    0.0000000000    0.0000616000    0.0000000000
   12   -0.9063419100    6.1162589120    5.0231670320    0.0000000000    0.0000569100    0.0000000000
   12    1.7431531220    4.5329989490    5.0231670320    0.0000000000   -0.0000257400    0.0000000000
   12    1.7431531220    7.6767609710    5.0231670320    0.0000000000    0.0000593000    0.0000000000
   12    1.7431531220    1.5852853180    5.0231670320    0.0000000000   -0.0000304800    0.0000000000
   14    0.0478419300    1.5180928310    2.2312630230    0.0000264100    0.0000429300   -0.0000071400
   14    3.4384641850    1.5180928310    7.8150713430   -0.0000264100    0.0000429300    0.0000071400
   14    3.5621317130    7.6729002340    7.7491909740   -0.0000201700    0.0000050300    0.0000167500
   14   -0.0758254700    7.6729002340    2.2971430910    0.0000201700    0.0000050300   -0.0000167500
   14    2.5704361050    6.1266959840    2.2760180710    0.0000130700   -0.0000230000    0.0000121300
   14    0.9158701650    6.1266959840    7.7703158430   -0.0000130700   -0.0000230000   -0.0000121300
   13    0.7852577580    3.0418527360    7.7984100360   -0.0000015300   -0.0000052100    0.0000145500
   13    2.7010484860    3.0418527360    2.2479240290    0.0000015300   -0.0000052100   -0.0000145500
    8   -0.0195648720    1.5057503780    3.8631335690   -0.0000483500   -0.0000133500   -0.0000226900
    8    3.5058709040    1.5057503780    6.1832007870    0.0000483500   -0.0000133500    0.0000226900
    8    3.5310383020    7.6623751980    6.1312364730   -0.0000313600   -0.0000267700    0.0000122000
    8   -0.0447320590    7.6623751980    3.9150975920    0.0000313600   -0.0000267700   -0.0000122000
    8    2.6061965580    6.1516002310    3.9009341320    0.0000490300    0.0000120500   -0.0000117700
    8    0.8801096860    6.1516002310    6.1453999330   -0.0000490300    0.0000120500    0.0000117700
    8    0.8180378830    3.0608625420    6.0681458470   -0.0000196600    0.0000375100    0.0000522500
    8    2.6682683600    3.0608625420    3.9781882170    0.0000196600    0.0000375100   -0.0000522500
    8    1.5349196460    1.8484436470    1.6587180210    0.0000497900   -0.0000279600    0.0000315400
    8    1.9513866520    1.8484436470    8.3876157420   -0.0000497900   -0.0000279600   -0.0000315400
    8    4.9704259890    9.1719306940    1.6787700390   -0.0000055800    0.0000409400    0.0000368000
    8   -1.4841197180    9.1719306940    8.3675638750    0.0000055800    0.0000409400   -0.0000368000
    8    2.1255743670    7.1192036100    8.3529553710   -0.0000330200    0.0000142000    0.0000481400
    8    1.3607318760    7.1192036100    1.6933786930    0.0000330200    0.0000142000   -0.0000481400
    8    4.0058736490    6.7372263900    1.6841561380   -0.0000105100    0.0000359100   -0.0000282400
    8   -0.5195674060    6.7372263900    8.3621779260    0.0000105100    0.0000359100    0.0000282400
    8    2.3352051650    4.6663529760    1.6230680420    0.0000097400   -0.0000463400    0.0000544700
    8    1.1511008920    4.6663529760    8.4232661730   -0.0000097400   -0.0000463400   -0.0000544700
    8   -0.7845710520    2.5574534320    8.4513391790   -0.0000124100    0.0000405900   -0.0000876200
    8    4.2708773750    2.5574534320    1.5949948850    0.0000124100    0.0000405900    0.0000876200
    8   -0.0228684870    4.6358186970    3.9573996260   -0.0000255600   -0.0000169800   -0.0000099300
    8    3.5091748100    4.6358186970    6.0889344380    0.0000255600   -0.0000169800    0.0000099300
    8    2.6312105330    9.1905996070    3.9913462460    0.0000164400   -0.0000659900   -0.0000367500
    8    0.8550957650    9.1905996070    6.0549875170   -0.0000164400   -0.0000659900    0.0000367500
    1   -0.0158311170    4.5350628550    2.9975148230   -0.0000365500    0.0000020500    0.0000368500
    1    3.5021375200    4.5350628550    7.0488192410    0.0000365500    0.0000020500   -0.0000368500
    1    2.5976980150    0.1533363690    3.0385002810    0.0000312700   -0.0000530400   -0.0000158400
    1    0.8886082280    0.1533363690    7.0078337840   -0.0000312700   -0.0000530400    0.0000158400
   19   -1.8126838200    4.5593888460   10.0463340640    0.0000000000   -0.0000153100    0.0000000000
   19    0.8368112110    0.0100021200   10.0463340640    0.0000000000    0.0000226700    0.0000000000
   19    5.2989900630    4.5593888460    0.0000000000    0.0000000000   -0.0000153100    0.0000000000
   12    4.3926481530    0.0419145160    5.0231670320    0.0000000000   -0.0000341100    0.0000000000
   12    4.3926481530    3.0643515630    5.0231670320    0.0000000000    0.0000616000    0.0000000000
   12    4.3926481530    6.1162589120    5.0231670320    0.0000000000    0.0000569100    0.0000000000
   19    3.4863062430    4.5593888460   10.0463340640    0.0000000000   -0.0000153100    0.0000000000
 FRAMES
1      0.0000000000    0.0000000000    0.0000000000      5.2989900630    0.0000000000    0.0000000000
1      0.0000000000    0.0000000000    0.0000000000      0.0000000000    9.1953692500    0.0000000000
1      0.0000000000    0.0000000000    0.0000000000     -1.8126838200    0.0000000000   10.0463340640
1     -1.8126838200    0.0000000000   10.0463340640      3.4863062430    0.0000000000   10.0463340640
1     -1.8126838200    0.0000000000   10.0463340640     -1.8126838200    9.1953692500   10.0463340640
1      0.0000000000    9.1953692500    0.0000000000      5.2989900630    9.1953692500    0.0000000000
1      0.0000000000    9.1953692500    0.0000000000     -1.8126838200    9.1953692500   10.0463340640
1     -1.8126838200    9.1953692500   10.0463340640      3.4863062430    9.1953692500   10.0463340640
1      5.2989900630    0.0000000000    0.0000000000      5.2989900630    9.1953692500    0.0000000000
1      5.2989900630    0.0000000000    0.0000000000      3.4863062430    0.0000000000   10.0463340640
1      3.4863062430    0.0000000000   10.0463340640      3.4863062430    9.1953692500   10.0463340640
1      5.2989900630    9.1953692500    0.0000000000      3.4863062430    9.1953692500   10.0463340640
