 INFO
nunit      1    1    1
unit   cell
celltype   primcell
shape   parapipedal
 END_INFO
 DIM-GROUP
           3           1
 PRIMVEC
    5.2989900630    0.0000000000    0.0000000000
    0.0000000000    9.1953692500    0.0000000000
   -1.8126838200    0.0000000000   10.0463340640
 CONVVEC
    5.2989900630    0.0000000000    0.0000000000
    0.0000000000    9.1953692500    0.0000000000
   -1.8126838200    0.0000000000   10.0463340640
 PRIMCOORD
          44           1
 19      0.0000000000     4.5590887510     0.0000000000     0.0000000000    -0.0000169700     0.0000000000
 19      2.6494950310     0.0103804910     0.0000000000     0.0000000000     0.0000163700     0.0000000000
 12     -0.9063419100     0.0418358750     5.0231670320     0.0000000000     0.0000023500     0.0000000000
 12     -0.9063419100     3.0643997660     5.0231670320     0.0000000000     0.0000273600     0.0000000000
 12     -0.9063419100     6.1163395200     5.0231670320     0.0000000000     0.0000419700     0.0000000000
 12      1.7431531220     4.5331561510     5.0231670320     0.0000000000    -0.0000696400     0.0000000000
 12      1.7431531220     7.6766353080     5.0231670320     0.0000000000     0.0000810000     0.0000000000
 12      1.7431531220     1.5852449100     5.0231670320     0.0000000000    -0.0000249000     0.0000000000
 14      0.0478139140     1.5180890730     2.2313468660     0.0000259400     0.0000503400     0.0000075100
 14      3.4384922010     1.5180890730     7.8149875000    -0.0000259400     0.0000503400    -0.0000075100
 14      3.5620592510     7.6728676410     7.7491018090    -0.0000155600     0.0000235900     0.0000180700
 14     -0.0757530080     7.6728676410     2.2972322550     0.0000155600     0.0000235900    -0.0000180700
 14      2.5704973150     6.1267124140     2.2760064830     0.0000129300    -0.0000254900     0.0000196000
 14      0.9158089550     6.1267124140     7.7703274310    -0.0000129300    -0.0000254900    -0.0000196000
 13      0.7852973740     3.0418698990     7.7983605370    -0.0000010200    -0.0000070100     0.0000125900
 13      2.7010088690     3.0418698990     2.2479735270     0.0000010200    -0.0000070100    -0.0000125900
  8     -0.0195919570     1.5057779790     3.8631722540    -0.0000344200    -0.0000161800     0.0000028300
  8      3.5058979890     1.5057779790     6.1831621010     0.0000344200    -0.0000161800    -0.0000028300
  8      3.5309877990     7.6623941670     6.1311705010    -0.0000324900    -0.0000522500     0.0000049100
  8     -0.0446815560     7.6623941670     3.9151635630     0.0000324900    -0.0000522500    -0.0000049100
  8      2.6062592260     6.1515368880     3.9009043400     0.0000366300     0.0000302600     0.0000077900
  8      0.8800470170     6.1515368880     6.1454297240    -0.0000366300     0.0000302600    -0.0000077900
  8      0.8180592610     3.0608993010     6.0681210340    -0.0000058100     0.0000394800     0.0000377000
  8      2.6682469820     3.0608993010     3.9782130310     0.0000058100     0.0000394800    -0.0000377000
  8      1.5347829410     1.8485790200     1.6586892890     0.0000506800    -0.0000316200     0.0000301000
  8      1.9515233570     1.8485790200     8.3876444740    -0.0000506800    -0.0000316200    -0.0000301000
  8      4.9705196040     9.1718856410     1.6789453820    -0.0000085300     0.0000601700     0.0000120800
  8     -1.4842133340     9.1718856410     8.3673885320     0.0000085300     0.0000601700    -0.0000120800
  8      2.1255220920     7.1192155130     8.3528853720    -0.0000263100     0.0000100700     0.0000427200
  8      1.3607841510     7.1192155130     1.6934486920     0.0000263100     0.0000100700    -0.0000427200
  8      4.0059004380     6.7373123930     1.6842397580     0.0000008000     0.0000194900    -0.0000332400
  8     -0.5195941940     6.7373123930     8.3620943060    -0.0000008000     0.0000194900     0.0000332400
  8      2.3352949810     4.6664082430     1.6230761280     0.0000054600    -0.0000474800     0.0000320600
  8      1.1510110770     4.6664082430     8.4232580870    -0.0000054600    -0.0000474800    -0.0000320600
  8     -0.7844876670     2.5573195460     8.4512956890    -0.0000081500     0.0000354400    -0.0000733000
  8      4.2707939900     2.5573195460     1.5950383760     0.0000081500     0.0000354400     0.0000733000
  8     -0.0229058570     4.6357683580     3.9574859250    -0.0000152400     0.0000048300    -0.0000104400
  8      3.5092121790     4.6357683580     6.0888481400     0.0000152400     0.0000048300     0.0000104400
  8      2.6311961380     9.1905756230     3.9914015530     0.0000053100    -0.0000690600    -0.0000387900
  8      0.8551101600     9.1905756230     6.0549322100    -0.0000053100    -0.0000690600     0.0000387900
  1     -0.0158447310     4.5351811480     2.9975606960    -0.0000347400    -0.0000021400     0.0000302500
  1      3.5021511330     4.5351811480     7.0487733690     0.0000347400    -0.0000021400    -0.0000302500
  1      2.5977912810     0.1531057780     3.0384875010     0.0000320900    -0.0000512200    -0.0000055400
  1      0.8885149620     0.1531057780     7.0078465640    -0.0000320900    -0.0000512200     0.0000055400
 CONVCOORD
          44           1
 19      0.0000000000     4.5590887510     0.0000000000
 19      2.6494950310     0.0103804910     0.0000000000
 12     -0.9063419100     0.0418358750     5.0231670320
 12     -0.9063419100     3.0643997660     5.0231670320
 12     -0.9063419100     6.1163395200     5.0231670320
 12      1.7431531220     4.5331561510     5.0231670320
 12      1.7431531220     7.6766353080     5.0231670320
 12      1.7431531220     1.5852449100     5.0231670320
 14      0.0478139140     1.5180890730     2.2313468660
 14      3.4384922010     1.5180890730     7.8149875000
 14      3.5620592510     7.6728676410     7.7491018090
 14     -0.0757530080     7.6728676410     2.2972322550
 14      2.5704973150     6.1267124140     2.2760064830
 14      0.9158089550     6.1267124140     7.7703274310
 13      0.7852973740     3.0418698990     7.7983605370
 13      2.7010088690     3.0418698990     2.2479735270
  8     -0.0195919570     1.5057779790     3.8631722540
  8      3.5058979890     1.5057779790     6.1831621010
  8      3.5309877990     7.6623941670     6.1311705010
  8     -0.0446815560     7.6623941670     3.9151635630
  8      2.6062592260     6.1515368880     3.9009043400
  8      0.8800470170     6.1515368880     6.1454297240
  8      0.8180592610     3.0608993010     6.0681210340
  8      2.6682469820     3.0608993010     3.9782130310
  8      1.5347829410     1.8485790200     1.6586892890
  8      1.9515233570     1.8485790200     8.3876444740
  8      4.9705196040     9.1718856410     1.6789453820
  8     -1.4842133340     9.1718856410     8.3673885320
  8      2.1255220920     7.1192155130     8.3528853720
  8      1.3607841510     7.1192155130     1.6934486920
  8      4.0059004380     6.7373123930     1.6842397580
  8     -0.5195941940     6.7373123930     8.3620943060
  8      2.3352949810     4.6664082430     1.6230761280
  8      1.1510110770     4.6664082430     8.4232580870
  8     -0.7844876670     2.5573195460     8.4512956890
  8      4.2707939900     2.5573195460     1.5950383760
  8     -0.0229058570     4.6357683580     3.9574859250
  8      3.5092121790     4.6357683580     6.0888481400
  8      2.6311961380     9.1905756230     3.9914015530
  8      0.8551101600     9.1905756230     6.0549322100
  1     -0.0158447310     4.5351811480     2.9975606960
  1      3.5021511330     4.5351811480     7.0487733690
  1      2.5977912810     0.1531057780     3.0384875010
  1      0.8885149620     0.1531057780     7.0078465640
 RECIP-PRIMVEC
    0.1887152057   -0.0000000000    0.0340503310

    0.0000000000    0.1087503909   -0.0000000000

    0.0000000000    0.0000000000    0.0995387963

 RECIP-CONVVEC
    0.1887152057   -0.0000000000    0.0340503310

    0.0000000000    0.1087503909   -0.0000000000

    0.0000000000    0.0000000000    0.0995387963

 WIGNER-SEITZ-PRIMCELL
           4
 -0.2649495E+01  0.4597685E+01 -0.4708646E+01  -0.3278435E+00 -0.1009766E-15 -0.9447320E+00
 -0.8368112E+00  0.4597685E+01 -0.5337688E+01  -0.3278435E+00 -0.1009766E-15 -0.9447320E+00
 -0.8368112E+00 -0.4597685E+01 -0.5337688E+01  -0.3278435E+00 -0.1009766E-15 -0.9447320E+00
 -0.2649495E+01 -0.4597685E+01 -0.4708646E+01  -0.3278435E+00 -0.1009766E-15 -0.9447320E+00
           4
 -0.2649495E+01  0.4597685E+01 -0.4708646E+01  -0.1000000E+01  0.4829488E-16  0.4554862E-32
 -0.2649495E+01 -0.4597685E+01 -0.4708646E+01  -0.1000000E+01  0.4829488E-16  0.4554862E-32
 -0.2649495E+01 -0.4597685E+01  0.4708646E+01  -0.1000000E+01  0.4829488E-16  0.4554862E-32
 -0.2649495E+01  0.4597685E+01  0.4708646E+01  -0.1000000E+01  0.4829488E-16  0.4554862E-32
           6
  0.2649495E+01 -0.4597685E+01  0.4708646E+01  -0.0000000E+00 -0.1000000E+01  0.1065828E-14
  0.8368112E+00 -0.4597685E+01  0.5337688E+01  -0.0000000E+00 -0.1000000E+01  0.1065828E-14
 -0.2649495E+01 -0.4597685E+01  0.4708646E+01  -0.0000000E+00 -0.1000000E+01  0.1065828E-14
 -0.2649495E+01 -0.4597685E+01 -0.4708646E+01  -0.0000000E+00 -0.1000000E+01  0.1065828E-14
 -0.8368112E+00 -0.4597685E+01 -0.5337688E+01  -0.0000000E+00 -0.1000000E+01  0.1065828E-14
  0.2649495E+01 -0.4597685E+01 -0.4708646E+01  -0.0000000E+00 -0.1000000E+01  0.1065828E-14
           4
  0.2649495E+01 -0.4597685E+01 -0.4708646E+01   0.1775651E+00 -0.2181216E-15 -0.9841091E+00
 -0.8368112E+00 -0.4597685E+01 -0.5337688E+01   0.1775651E+00 -0.2181216E-15 -0.9841091E+00
 -0.8368112E+00  0.4597685E+01 -0.5337688E+01   0.1775651E+00 -0.2181216E-15 -0.9841091E+00
  0.2649495E+01  0.4597685E+01 -0.4708646E+01   0.1775651E+00 -0.2181216E-15 -0.9841091E+00
           4
 -0.2649495E+01  0.4597685E+01  0.4708646E+01  -0.1775651E+00 -0.0000000E+00  0.9841091E+00
 -0.2649495E+01 -0.4597685E+01  0.4708646E+01  -0.1775651E+00 -0.0000000E+00  0.9841091E+00
  0.8368112E+00 -0.4597685E+01  0.5337688E+01  -0.1775651E+00 -0.0000000E+00  0.9841091E+00
  0.8368112E+00  0.4597685E+01  0.5337688E+01  -0.1775651E+00 -0.0000000E+00  0.9841091E+00
           6
  0.2649495E+01  0.4597685E+01 -0.4708646E+01   0.0000000E+00  0.1000000E+01  0.1065828E-14
 -0.8368112E+00  0.4597685E+01 -0.5337688E+01   0.0000000E+00  0.1000000E+01  0.1065828E-14
 -0.2649495E+01  0.4597685E+01 -0.4708646E+01   0.0000000E+00  0.1000000E+01  0.1065828E-14
 -0.2649495E+01  0.4597685E+01  0.4708646E+01   0.0000000E+00  0.1000000E+01  0.1065828E-14
  0.8368112E+00  0.4597685E+01  0.5337688E+01   0.0000000E+00  0.1000000E+01  0.1065828E-14
  0.2649495E+01  0.4597685E+01  0.4708646E+01   0.0000000E+00  0.1000000E+01  0.1065828E-14
           4
  0.2649495E+01  0.4597685E+01  0.4708646E+01   0.1000000E+01 -0.4829488E-16  0.0000000E+00
  0.2649495E+01 -0.4597685E+01  0.4708646E+01   0.1000000E+01 -0.4829488E-16  0.0000000E+00
  0.2649495E+01 -0.4597685E+01 -0.4708646E+01   0.1000000E+01 -0.4829488E-16  0.0000000E+00
  0.2649495E+01  0.4597685E+01 -0.4708646E+01   0.1000000E+01 -0.4829488E-16  0.0000000E+00
           4
  0.8368112E+00 -0.4597685E+01  0.5337688E+01   0.3278435E+00  0.3334111E-16  0.9447320E+00
  0.2649495E+01 -0.4597685E+01  0.4708646E+01   0.3278435E+00  0.3334111E-16  0.9447320E+00
  0.2649495E+01  0.4597685E+01  0.4708646E+01   0.3278435E+00  0.3334111E-16  0.9447320E+00
  0.8368112E+00  0.4597685E+01  0.5337688E+01   0.3278435E+00  0.3334111E-16  0.9447320E+00
 WIGNER-SEITZ-PRIMCELL_END
 WIGNER-SEITZ-CONVCELL
           4
 -0.2649495E+01  0.4597685E+01 -0.4708646E+01  -0.3278435E+00 -0.1009766E-15 -0.9447320E+00
 -0.8368112E+00  0.4597685E+01 -0.5337688E+01  -0.3278435E+00 -0.1009766E-15 -0.9447320E+00
 -0.8368112E+00 -0.4597685E+01 -0.5337688E+01  -0.3278435E+00 -0.1009766E-15 -0.9447320E+00
 -0.2649495E+01 -0.4597685E+01 -0.4708646E+01  -0.3278435E+00 -0.1009766E-15 -0.9447320E+00
           4
 -0.2649495E+01  0.4597685E+01 -0.4708646E+01  -0.1000000E+01  0.4829488E-16  0.4554862E-32
 -0.2649495E+01 -0.4597685E+01 -0.4708646E+01  -0.1000000E+01  0.4829488E-16  0.4554862E-32
 -0.2649495E+01 -0.4597685E+01  0.4708646E+01  -0.1000000E+01  0.4829488E-16  0.4554862E-32
 -0.2649495E+01  0.4597685E+01  0.4708646E+01  -0.1000000E+01  0.4829488E-16  0.4554862E-32
           6
  0.2649495E+01 -0.4597685E+01  0.4708646E+01  -0.0000000E+00 -0.1000000E+01  0.1065828E-14
  0.8368112E+00 -0.4597685E+01  0.5337688E+01  -0.0000000E+00 -0.1000000E+01  0.1065828E-14
 -0.2649495E+01 -0.4597685E+01  0.4708646E+01  -0.0000000E+00 -0.1000000E+01  0.1065828E-14
 -0.2649495E+01 -0.4597685E+01 -0.4708646E+01  -0.0000000E+00 -0.1000000E+01  0.1065828E-14
 -0.8368112E+00 -0.4597685E+01 -0.5337688E+01  -0.0000000E+00 -0.1000000E+01  0.1065828E-14
  0.2649495E+01 -0.4597685E+01 -0.4708646E+01  -0.0000000E+00 -0.1000000E+01  0.1065828E-14
           4
  0.2649495E+01 -0.4597685E+01 -0.4708646E+01   0.1775651E+00 -0.2181216E-15 -0.9841091E+00
 -0.8368112E+00 -0.4597685E+01 -0.5337688E+01   0.1775651E+00 -0.2181216E-15 -0.9841091E+00
 -0.8368112E+00  0.4597685E+01 -0.5337688E+01   0.1775651E+00 -0.2181216E-15 -0.9841091E+00
  0.2649495E+01  0.4597685E+01 -0.4708646E+01   0.1775651E+00 -0.2181216E-15 -0.9841091E+00
           4
 -0.2649495E+01  0.4597685E+01  0.4708646E+01  -0.1775651E+00 -0.0000000E+00  0.9841091E+00
 -0.2649495E+01 -0.4597685E+01  0.4708646E+01  -0.1775651E+00 -0.0000000E+00  0.9841091E+00
  0.8368112E+00 -0.4597685E+01  0.5337688E+01  -0.1775651E+00 -0.0000000E+00  0.9841091E+00
  0.8368112E+00  0.4597685E+01  0.5337688E+01  -0.1775651E+00 -0.0000000E+00  0.9841091E+00
           6
  0.2649495E+01  0.4597685E+01 -0.4708646E+01   0.0000000E+00  0.1000000E+01  0.1065828E-14
 -0.8368112E+00  0.4597685E+01 -0.5337688E+01   0.0000000E+00  0.1000000E+01  0.1065828E-14
 -0.2649495E+01  0.4597685E+01 -0.4708646E+01   0.0000000E+00  0.1000000E+01  0.1065828E-14
 -0.2649495E+01  0.4597685E+01  0.4708646E+01   0.0000000E+00  0.1000000E+01  0.1065828E-14
  0.8368112E+00  0.4597685E+01  0.5337688E+01   0.0000000E+00  0.1000000E+01  0.1065828E-14
  0.2649495E+01  0.4597685E+01  0.4708646E+01   0.0000000E+00  0.1000000E+01  0.1065828E-14
           4
  0.2649495E+01  0.4597685E+01  0.4708646E+01   0.1000000E+01 -0.4829488E-16  0.0000000E+00
  0.2649495E+01 -0.4597685E+01  0.4708646E+01   0.1000000E+01 -0.4829488E-16  0.0000000E+00
  0.2649495E+01 -0.4597685E+01 -0.4708646E+01   0.1000000E+01 -0.4829488E-16  0.0000000E+00
  0.2649495E+01  0.4597685E+01 -0.4708646E+01   0.1000000E+01 -0.4829488E-16  0.0000000E+00
           4
  0.8368112E+00 -0.4597685E+01  0.5337688E+01   0.3278435E+00  0.3334111E-16  0.9447320E+00
  0.2649495E+01 -0.4597685E+01  0.4708646E+01   0.3278435E+00  0.3334111E-16  0.9447320E+00
  0.2649495E+01  0.4597685E+01  0.4708646E+01   0.3278435E+00  0.3334111E-16  0.9447320E+00
  0.8368112E+00  0.4597685E+01  0.5337688E+01   0.3278435E+00  0.3334111E-16  0.9447320E+00
 WIGNER-SEITZ-CONVCELL_END
 BRILLOUIN-ZONE-PRIMCELL
           4
  0.1002657E+00  0.5437520E-01 -0.1571907E-01   0.9447320E+00  0.5532186E-16 -0.3278435E+00
  0.1002657E+00 -0.5437520E-01 -0.1571907E-01   0.9447320E+00  0.5532186E-16 -0.3278435E+00
  0.8844948E-01 -0.5437520E-01 -0.4976940E-01   0.9447320E+00  0.5532186E-16 -0.3278435E+00
  0.8844948E-01  0.5437520E-01 -0.4976940E-01   0.9447320E+00  0.5532186E-16 -0.3278435E+00
           4
 -0.8844948E-01  0.5437520E-01 -0.4976940E-01   0.0000000E+00 -0.5426985E-16 -0.1000000E+01
  0.8844948E-01  0.5437520E-01 -0.4976940E-01   0.0000000E+00 -0.5426985E-16 -0.1000000E+01
  0.8844948E-01 -0.5437520E-01 -0.4976940E-01   0.0000000E+00 -0.5426985E-16 -0.1000000E+01
 -0.8844948E-01 -0.5437520E-01 -0.4976940E-01   0.0000000E+00 -0.5426985E-16 -0.1000000E+01
           6
  0.8844948E-01 -0.5437520E-01  0.4976940E-01   0.0000000E+00 -0.1000000E+01  0.2879941E-15
 -0.8844948E-01 -0.5437520E-01  0.4976940E-01   0.0000000E+00 -0.1000000E+01  0.2879941E-15
 -0.1002657E+00 -0.5437520E-01  0.1571907E-01   0.0000000E+00 -0.1000000E+01  0.2879941E-15
 -0.8844948E-01 -0.5437520E-01 -0.4976940E-01   0.0000000E+00 -0.1000000E+01  0.2879941E-15
  0.8844948E-01 -0.5437520E-01 -0.4976940E-01   0.0000000E+00 -0.1000000E+01  0.2879941E-15
  0.1002657E+00 -0.5437520E-01 -0.1571907E-01   0.0000000E+00 -0.1000000E+01  0.2879941E-15
           4
  0.8844948E-01  0.5437520E-01  0.4976940E-01   0.9841091E+00 -0.3370857E-15  0.1775651E+00
  0.8844948E-01 -0.5437520E-01  0.4976940E-01   0.9841091E+00 -0.3370857E-15  0.1775651E+00
  0.1002657E+00 -0.5437520E-01 -0.1571907E-01   0.9841091E+00 -0.3370857E-15  0.1775651E+00
  0.1002657E+00  0.5437520E-01 -0.1571907E-01   0.9841091E+00 -0.3370857E-15  0.1775651E+00
           4
 -0.8844948E-01  0.5437520E-01 -0.4976940E-01  -0.9841091E+00 -0.1498159E-15 -0.1775651E+00
 -0.8844948E-01 -0.5437520E-01 -0.4976940E-01  -0.9841091E+00 -0.1498159E-15 -0.1775651E+00
 -0.1002657E+00 -0.5437520E-01  0.1571907E-01  -0.9841091E+00 -0.1498159E-15 -0.1775651E+00
 -0.1002657E+00  0.5437520E-01  0.1571907E-01  -0.9841091E+00 -0.1498159E-15 -0.1775651E+00
           6
  0.1002657E+00  0.5437520E-01 -0.1571907E-01  -0.0000000E+00  0.1000000E+01  0.2879941E-15
  0.8844948E-01  0.5437520E-01 -0.4976940E-01  -0.0000000E+00  0.1000000E+01  0.2879941E-15
 -0.8844948E-01  0.5437520E-01 -0.4976940E-01  -0.0000000E+00  0.1000000E+01  0.2879941E-15
 -0.1002657E+00  0.5437520E-01  0.1571907E-01  -0.0000000E+00  0.1000000E+01  0.2879941E-15
 -0.8844948E-01  0.5437520E-01  0.4976940E-01  -0.0000000E+00  0.1000000E+01  0.2879941E-15
  0.8844948E-01  0.5437520E-01  0.4976940E-01  -0.0000000E+00  0.1000000E+01  0.2879941E-15
           4
  0.8844948E-01 -0.5437520E-01  0.4976940E-01  -0.0000000E+00 -0.0000000E+00  0.1000000E+01
  0.8844948E-01  0.5437520E-01  0.4976940E-01  -0.0000000E+00 -0.0000000E+00  0.1000000E+01
 -0.8844948E-01  0.5437520E-01  0.4976940E-01  -0.0000000E+00 -0.0000000E+00  0.1000000E+01
 -0.8844948E-01 -0.5437520E-01  0.4976940E-01  -0.0000000E+00 -0.0000000E+00  0.1000000E+01
           4
 -0.1002657E+00  0.5437520E-01  0.1571907E-01  -0.9447320E+00 -0.1383046E-15  0.3278435E+00
 -0.1002657E+00 -0.5437520E-01  0.1571907E-01  -0.9447320E+00 -0.1383046E-15  0.3278435E+00
 -0.8844948E-01 -0.5437520E-01  0.4976940E-01  -0.9447320E+00 -0.1383046E-15  0.3278435E+00
 -0.8844948E-01  0.5437520E-01  0.4976940E-01  -0.9447320E+00 -0.1383046E-15  0.3278435E+00
 BRILLOUIN-ZONE-PRIMCELL_END
 BRILLOUIN-ZONE-CONVCELL
           4
  0.1002657E+00  0.5437520E-01 -0.1571907E-01   0.9447320E+00  0.5532186E-16 -0.3278435E+00
  0.1002657E+00 -0.5437520E-01 -0.1571907E-01   0.9447320E+00  0.5532186E-16 -0.3278435E+00
  0.8844948E-01 -0.5437520E-01 -0.4976940E-01   0.9447320E+00  0.5532186E-16 -0.3278435E+00
  0.8844948E-01  0.5437520E-01 -0.4976940E-01   0.9447320E+00  0.5532186E-16 -0.3278435E+00
           4
 -0.8844948E-01  0.5437520E-01 -0.4976940E-01   0.0000000E+00 -0.5426985E-16 -0.1000000E+01
  0.8844948E-01  0.5437520E-01 -0.4976940E-01   0.0000000E+00 -0.5426985E-16 -0.1000000E+01
  0.8844948E-01 -0.5437520E-01 -0.4976940E-01   0.0000000E+00 -0.5426985E-16 -0.1000000E+01
 -0.8844948E-01 -0.5437520E-01 -0.4976940E-01   0.0000000E+00 -0.5426985E-16 -0.1000000E+01
           6
  0.8844948E-01 -0.5437520E-01  0.4976940E-01   0.0000000E+00 -0.1000000E+01  0.2879941E-15
 -0.8844948E-01 -0.5437520E-01  0.4976940E-01   0.0000000E+00 -0.1000000E+01  0.2879941E-15
 -0.1002657E+00 -0.5437520E-01  0.1571907E-01   0.0000000E+00 -0.1000000E+01  0.2879941E-15
 -0.8844948E-01 -0.5437520E-01 -0.4976940E-01   0.0000000E+00 -0.1000000E+01  0.2879941E-15
  0.8844948E-01 -0.5437520E-01 -0.4976940E-01   0.0000000E+00 -0.1000000E+01  0.2879941E-15
  0.1002657E+00 -0.5437520E-01 -0.1571907E-01   0.0000000E+00 -0.1000000E+01  0.2879941E-15
           4
  0.8844948E-01  0.5437520E-01  0.4976940E-01   0.9841091E+00 -0.3370857E-15  0.1775651E+00
  0.8844948E-01 -0.5437520E-01  0.4976940E-01   0.9841091E+00 -0.3370857E-15  0.1775651E+00
  0.1002657E+00 -0.5437520E-01 -0.1571907E-01   0.9841091E+00 -0.3370857E-15  0.1775651E+00
  0.1002657E+00  0.5437520E-01 -0.1571907E-01   0.9841091E+00 -0.3370857E-15  0.1775651E+00
           4
 -0.8844948E-01  0.5437520E-01 -0.4976940E-01  -0.9841091E+00 -0.1498159E-15 -0.1775651E+00
 -0.8844948E-01 -0.5437520E-01 -0.4976940E-01  -0.9841091E+00 -0.1498159E-15 -0.1775651E+00
 -0.1002657E+00 -0.5437520E-01  0.1571907E-01  -0.9841091E+00 -0.1498159E-15 -0.1775651E+00
 -0.1002657E+00  0.5437520E-01  0.1571907E-01  -0.9841091E+00 -0.1498159E-15 -0.1775651E+00
           6
  0.1002657E+00  0.5437520E-01 -0.1571907E-01  -0.0000000E+00  0.1000000E+01  0.2879941E-15
  0.8844948E-01  0.5437520E-01 -0.4976940E-01  -0.0000000E+00  0.1000000E+01  0.2879941E-15
 -0.8844948E-01  0.5437520E-01 -0.4976940E-01  -0.0000000E+00  0.1000000E+01  0.2879941E-15
 -0.1002657E+00  0.5437520E-01  0.1571907E-01  -0.0000000E+00  0.1000000E+01  0.2879941E-15
 -0.8844948E-01  0.5437520E-01  0.4976940E-01  -0.0000000E+00  0.1000000E+01  0.2879941E-15
  0.8844948E-01  0.5437520E-01  0.4976940E-01  -0.0000000E+00  0.1000000E+01  0.2879941E-15
           4
  0.8844948E-01 -0.5437520E-01  0.4976940E-01  -0.0000000E+00 -0.0000000E+00  0.1000000E+01
  0.8844948E-01  0.5437520E-01  0.4976940E-01  -0.0000000E+00 -0.0000000E+00  0.1000000E+01
 -0.8844948E-01  0.5437520E-01  0.4976940E-01  -0.0000000E+00 -0.0000000E+00  0.1000000E+01
 -0.8844948E-01 -0.5437520E-01  0.4976940E-01  -0.0000000E+00 -0.0000000E+00  0.1000000E+01
           4
 -0.1002657E+00  0.5437520E-01  0.1571907E-01  -0.9447320E+00 -0.1383046E-15  0.3278435E+00
 -0.1002657E+00 -0.5437520E-01  0.1571907E-01  -0.9447320E+00 -0.1383046E-15  0.3278435E+00
 -0.8844948E-01 -0.5437520E-01  0.4976940E-01  -0.9447320E+00 -0.1383046E-15  0.3278435E+00
 -0.8844948E-01  0.5437520E-01  0.4976940E-01  -0.9447320E+00 -0.1383046E-15  0.3278435E+00
 BRILLOUIN-ZONE-CONVCELL_END
 ATOMS
   19    0.0000000000    4.5590887510    0.0000000000    0.0000000000   -0.0000169700    0.0000000000
   19    2.6494950310    0.0103804910    0.0000000000    0.0000000000    0.0000163700    0.0000000000
   12   -0.9063419100    0.0418358750    5.0231670320    0.0000000000    0.0000023500    0.0000000000
   12   -0.9063419100    3.0643997660    5.0231670320    0.0000000000    0.0000273600    0.0000000000
   12   -0.9063419100    6.1163395200    5.0231670320    0.0000000000    0.0000419700    0.0000000000
   12    1.7431531220    4.5331561510    5.0231670320    0.0000000000   -0.0000696400    0.0000000000
   12    1.7431531220    7.6766353080    5.0231670320    0.0000000000    0.0000810000    0.0000000000
   12    1.7431531220    1.5852449100    5.0231670320    0.0000000000   -0.0000249000    0.0000000000
   14    0.0478139140    1.5180890730    2.2313468660    0.0000259400    0.0000503400    0.0000075100
   14    3.4384922010    1.5180890730    7.8149875000   -0.0000259400    0.0000503400   -0.0000075100
   14    3.5620592510    7.6728676410    7.7491018090   -0.0000155600    0.0000235900    0.0000180700
   14   -0.0757530080    7.6728676410    2.2972322550    0.0000155600    0.0000235900   -0.0000180700
   14    2.5704973150    6.1267124140    2.2760064830    0.0000129300   -0.0000254900    0.0000196000
   14    0.9158089550    6.1267124140    7.7703274310   -0.0000129300   -0.0000254900   -0.0000196000
   13    0.7852973740    3.0418698990    7.7983605370   -0.0000010200   -0.0000070100    0.0000125900
   13    2.7010088690    3.0418698990    2.2479735270    0.0000010200   -0.0000070100   -0.0000125900
    8   -0.0195919570    1.5057779790    3.8631722540   -0.0000344200   -0.0000161800    0.0000028300
    8    3.5058979890    1.5057779790    6.1831621010    0.0000344200   -0.0000161800   -0.0000028300
    8    3.5309877990    7.6623941670    6.1311705010   -0.0000324900   -0.0000522500    0.0000049100
    8   -0.0446815560    7.6623941670    3.9151635630    0.0000324900   -0.0000522500   -0.0000049100
    8    2.6062592260    6.1515368880    3.9009043400    0.0000366300    0.0000302600    0.0000077900
    8    0.8800470170    6.1515368880    6.1454297240   -0.0000366300    0.0000302600   -0.0000077900
    8    0.8180592610    3.0608993010    6.0681210340   -0.0000058100    0.0000394800    0.0000377000
    8    2.6682469820    3.0608993010    3.9782130310    0.0000058100    0.0000394800   -0.0000377000
    8    1.5347829410    1.8485790200    1.6586892890    0.0000506800   -0.0000316200    0.0000301000
    8    1.9515233570    1.8485790200    8.3876444740   -0.0000506800   -0.0000316200   -0.0000301000
    8    4.9705196040    9.1718856410    1.6789453820   -0.0000085300    0.0000601700    0.0000120800
    8   -1.4842133340    9.1718856410    8.3673885320    0.0000085300    0.0000601700   -0.0000120800
    8    2.1255220920    7.1192155130    8.3528853720   -0.0000263100    0.0000100700    0.0000427200
    8    1.3607841510    7.1192155130    1.6934486920    0.0000263100    0.0000100700   -0.0000427200
    8    4.0059004380    6.7373123930    1.6842397580    0.0000008000    0.0000194900   -0.0000332400
    8   -0.5195941940    6.7373123930    8.3620943060   -0.0000008000    0.0000194900    0.0000332400
    8    2.3352949810    4.6664082430    1.6230761280    0.0000054600   -0.0000474800    0.0000320600
    8    1.1510110770    4.6664082430    8.4232580870   -0.0000054600   -0.0000474800   -0.0000320600
    8   -0.7844876670    2.5573195460    8.4512956890   -0.0000081500    0.0000354400   -0.0000733000
    8    4.2707939900    2.5573195460    1.5950383760    0.0000081500    0.0000354400    0.0000733000
    8   -0.0229058570    4.6357683580    3.9574859250   -0.0000152400    0.0000048300   -0.0000104400
    8    3.5092121790    4.6357683580    6.0888481400    0.0000152400    0.0000048300    0.0000104400
    8    2.6311961380    9.1905756230    3.9914015530    0.0000053100   -0.0000690600   -0.0000387900
    8    0.8551101600    9.1905756230    6.0549322100   -0.0000053100   -0.0000690600    0.0000387900
    1   -0.0158447310    4.5351811480    2.9975606960   -0.0000347400   -0.0000021400    0.0000302500
    1    3.5021511330    4.5351811480    7.0487733690    0.0000347400   -0.0000021400   -0.0000302500
    1    2.5977912810    0.1531057780    3.0384875010    0.0000320900   -0.0000512200   -0.0000055400
    1    0.8885149620    0.1531057780    7.0078465640   -0.0000320900   -0.0000512200    0.0000055400
   19   -1.8126838200    4.5590887510   10.0463340640    0.0000000000   -0.0000169700    0.0000000000
   19    0.8368112110    0.0103804910   10.0463340640    0.0000000000    0.0000163700    0.0000000000
   19    5.2989900630    4.5590887510    0.0000000000    0.0000000000   -0.0000169700    0.0000000000
   12    4.3926481530    0.0418358750    5.0231670320    0.0000000000    0.0000023500    0.0000000000
   12    4.3926481530    3.0643997660    5.0231670320    0.0000000000    0.0000273600    0.0000000000
   12    4.3926481530    6.1163395200    5.0231670320    0.0000000000    0.0000419700    0.0000000000
   19    3.4863062430    4.5590887510   10.0463340640    0.0000000000   -0.0000169700    0.0000000000
 FRAMES
1      0.0000000000    0.0000000000    0.0000000000      5.2989900630    0.0000000000    0.0000000000
1      0.0000000000    0.0000000000    0.0000000000      0.0000000000    9.1953692500    0.0000000000
1      0.0000000000    0.0000000000    0.0000000000     -1.8126838200    0.0000000000   10.0463340640
1     -1.8126838200    0.0000000000   10.0463340640      3.4863062430    0.0000000000   10.0463340640
1     -1.8126838200    0.0000000000   10.0463340640     -1.8126838200    9.1953692500   10.0463340640
1      0.0000000000    9.1953692500    0.0000000000      5.2989900630    9.1953692500    0.0000000000
1      0.0000000000    9.1953692500    0.0000000000     -1.8126838200    9.1953692500   10.0463340640
1     -1.8126838200    9.1953692500   10.0463340640      3.4863062430    9.1953692500   10.0463340640
1      5.2989900630    0.0000000000    0.0000000000      5.2989900630    9.1953692500    0.0000000000
1      5.2989900630    0.0000000000    0.0000000000      3.4863062430    0.0000000000   10.0463340640
1      3.4863062430    0.0000000000   10.0463340640      3.4863062430    9.1953692500   10.0463340640
1      5.2989900630    9.1953692500    0.0000000000      3.4863062430    9.1953692500   10.0463340640
