
     Program PWSCF v.7.3.1 starts on 21May2025 at 11:11:38 

     This program is part of the open-source Quantum ESPRESSO suite
     for quantum simulation of materials; please cite
         "P. Giannozzi et al., J. Phys.:Condens. Matter 21 395502 (2009);
         "P. Giannozzi et al., J. Phys.:Condens. Matter 29 465901 (2017);
         "P. Giannozzi et al., J. Chem. Phys. 152 154105 (2020);
          URL http://www.quantum-espresso.org", 
     in publications or presentations arising from this work. More details at
     http://www.quantum-espresso.org/quote

     Parallel version (MPI), running on     6 processors

     MPI processes distributed on     1 nodes
     2729 MiB available memory on the printing compute node when the environment starts

     Waiting for input...
     Reading input from standard input

     Current dimensions of program PWSCF are:
     Max number of different atomic species (ntypx) = 10
     Max number of k-points (npk) =  40000
     Max angular momentum in pseudopotentials (lmaxx) =  4
     file Al.pbe-n-kjpaw_psl.1.0.0.UPF: wavefunction(s)  3S 3P renormalized
     file H.pbe-kjpaw_psl.1.0.0.UPF: wavefunction(s)  1S renormalized
     file K.pbe-spn-kjpaw_psl.1.0.0.UPF: wavefunction(s)  3S renormalized
     file Mg.pbe-spnl-kjpaw_psl.1.0.0.UPF: wavefunction(s)  2P renormalized
     file O.pbe-n-kjpaw_psl.1.0.0.UPF: wavefunction(s)  2S 2P renormalized
     file Si.pbe-n-kjpaw_psl.1.0.0.UPF: wavefunction(s)  3S 3P renormalized

     R & G space division:  proc/nbgrp/npool/nimage =       6
     Subspace diagonalization in iterative solution of the eigenvalue problem:
     a serial algorithm will be used


     Parallelization info
     --------------------
     sticks:   dense  smooth     PW     G-vecs:    dense   smooth      PW
     Min        1200     600    163               110246    38994    5523
     Max        1201     601    164               110248    38995    5528
     Sum        7203    3603    981               661485   233967   33151

     Using Slab Decomposition



     bravais-lattice index     =          -12
     lattice parameter (alat)  =      10.0136  a.u.
     unit-cell volume          =    3303.4414 (a.u.)^3
     number of atoms/cell      =           44
     number of atomic types    =            6
     number of electrons       =       256.00
     number of Kohn-Sham states=          128
     kinetic-energy cutoff     =      65.0000  Ry
     charge density cutoff     =     520.0000  Ry
     scf convergence threshold =      1.0E-08
     mixing beta               =       0.7000
     number of iterations used =            8  plain     mixing
     energy convergence thresh.=      1.0E-05
     force convergence thresh. =      5.0E-04
     Exchange-correlation= SLA  PW   PBX  PBC
                           (   1   4   3   4   0   0   0)
     nstep                     =          100


     celldm(1)=  10.013640  celldm(2)=   1.735306  celldm(3)=   1.926511
     celldm(4)=   0.000000  celldm(5)=  -0.177565  celldm(6)=   0.000000

     crystal axes: (cart. coord. in units of alat)
               a(1) = (   1.000000   0.000000   0.000000 )  
               a(2) = (   0.000000   1.735306   0.000000 )  
               a(3) = (  -0.342081   0.000000   1.895896 )  

     reciprocal axes: (cart. coord. in units 2 pi/alat)
               b(1) = (  1.000000 -0.000000  0.180432 )  
               b(2) = (  0.000000  0.576267 -0.000000 )  
               b(3) = (  0.000000  0.000000  0.527455 )  


     PseudoPot. # 1 for Al read from file:
     ./../../pseudos/Al.pbe-n-kjpaw_psl.1.0.0.UPF
     MD5 check sum: 502b6b27b9c6270cab5dd1084b96fa6d
     Pseudo is Projector augmented-wave + core cor, Zval =  3.0
     Generated using &quot;atomic&quot; code by A. Dal Corso  v.6.3
     Shape of augmentation charge: PSQ
     Using radial grid of 1135 points,  6 beta functions with: 
                l(1) =   0
                l(2) =   0
                l(3) =   1
                l(4) =   1
                l(5) =   2
                l(6) =   2
     Q(r) pseudized with 0 coefficients 


     PseudoPot. # 2 for H  read from file:
     ./../../pseudos/H.pbe-kjpaw_psl.1.0.0.UPF
     MD5 check sum: d81a744832360e4a8af0b0b5b123bc2a
     Pseudo is Projector augmented-wave, Zval =  1.0
     Generated using &quot;atomic&quot; code by A. Dal Corso  v.6.3MaX
     Shape of augmentation charge: PSQ
     Using radial grid of  929 points,  2 beta functions with: 
                l(1) =   0
                l(2) =   0
     Q(r) pseudized with 0 coefficients 


     PseudoPot. # 3 for K  read from file:
     ./../../pseudos/K.pbe-spn-kjpaw_psl.1.0.0.UPF
     MD5 check sum: 34cc42130a09071ebe376fd42eb21491
     Pseudo is Projector augmented-wave + core cor, Zval =  9.0
     Generated using &quot;atomic&quot; code by A. Dal Corso  v.6.2.2
     Shape of augmentation charge: PSQ
     Using radial grid of 1165 points,  6 beta functions with: 
                l(1) =   0
                l(2) =   0
                l(3) =   1
                l(4) =   1
                l(5) =   2
                l(6) =   2
     Q(r) pseudized with 0 coefficients 


     PseudoPot. # 4 for Mg read from file:
     ./../../pseudos/Mg.pbe-spnl-kjpaw_psl.1.0.0.UPF
     MD5 check sum: fda14e0d92a6a9a5ebed782e5a4b3067
     Pseudo is Projector augmented-wave + core cor, Zval = 10.0
     Generated using &quot;atomic&quot; code by A. Dal Corso  v.6.3
     Shape of augmentation charge: PSQ
     Using radial grid of 1129 points,  4 beta functions with: 
                l(1) =   0
                l(2) =   0
                l(3) =   1
                l(4) =   1
     Q(r) pseudized with 0 coefficients 


     PseudoPot. # 5 for O  read from file:
     ./../../pseudos/O.pbe-n-kjpaw_psl.1.0.0.UPF
     MD5 check sum: e99d9cef9b487d1ca56f5b95ecd0fd7a
     Pseudo is Projector augmented-wave + core cor, Zval =  6.0
     Generated using &quot;atomic&quot; code by A. Dal Corso  v.6.3
     Shape of augmentation charge: PSQ
     Using radial grid of 1095 points,  4 beta functions with: 
                l(1) =   0
                l(2) =   0
                l(3) =   1
                l(4) =   1
     Q(r) pseudized with 0 coefficients 


     PseudoPot. # 6 for Si read from file:
     ./../../pseudos/Si.pbe-n-kjpaw_psl.1.0.0.UPF
     MD5 check sum: c39c59da582df4a0d9f10159256ea34e
     Pseudo is Projector augmented-wave + core cor, Zval =  4.0
     Generated using &quot;atomic&quot; code by A. Dal Corso  v.6.3
     Shape of augmentation charge: PSQ
     Using radial grid of 1141 points,  6 beta functions with: 
                l(1) =   0
                l(2) =   0
                l(3) =   1
                l(4) =   1
                l(5) =   2
                l(6) =   2
     Q(r) pseudized with 0 coefficients 


     atomic species   valence    mass     pseudopotential
     Al                3.00    26.98154     Al( 1.00)
     H                 1.00     1.00794     H ( 1.00)
     K                 9.00    39.09830     K ( 1.00)
     Mg               10.00    24.30500     Mg( 1.00)
     O                 6.00    15.99940     O ( 1.00)
     Si                4.00    28.08550     Si( 1.00)

      2 Sym. Ops. (no inversion) found


                                    s                        frac. trans.

      isym =  1     identity                                     

 cryst.   s( 1) = (     1          0          0      )
                  (     0          1          0      )
                  (     0          0          1      )

 cart.    s( 1) = (  1.0000000  0.0000000 -0.0000000 )
                  (  0.0000000  1.0000000  0.0000000 )
                  (  0.0000000  0.0000000  1.0000000 )


      isym =  2     180 deg rotation - cart. axis [0,1,0]        

 cryst.   s( 2) = (    -1          0          0      )
                  (     0          1          0      )
                  (     0          0         -1      )

 cart.    s( 2) = ( -1.0000000  0.0000000  0.0000000 )
                  (  0.0000000  1.0000000  0.0000000 )
                  (  0.0000000  0.0000000 -1.0000000 )


     point group C_2  (2)   
     there are  2 classes
     the character table:

       E     C2   
A      1.00  1.00
B      1.00 -1.00

     the symmetry operations in each class and the name of the first element:

     E        1
          identity                                               
     C2       2
          180 deg rotation - cart. axis [0,1,0]                  

   Cartesian axes

     site n.     atom                  positions (alat units)
         1        K      tau(   1) = (   0.0000000   0.8559224   0.0000000  )
         2        K      tau(   2) = (   0.5000000   0.0093568   0.0000000  )
         3        Mg     tau(   3) = (  -0.1710407   0.0067712   0.9479482  )
         4        Mg     tau(   4) = (  -0.1710407   0.5780843   0.9479482  )
         5        Mg     tau(   5) = (  -0.1710407   1.1543881   0.9479482  )
         6        Mg     tau(   6) = (   0.3289593   0.8562226   0.9479482  )
         7        Mg     tau(   7) = (   0.3289593   1.4480089   0.9479482  )
         8        Mg     tau(   8) = (   0.3289593   0.2986375   0.9479482  )
         9        Si     tau(   9) = (   0.0066674   0.2865251   0.4219393  )
        10        Si     tau(  10) = (   0.6512512   0.2865251   1.4739571  )
        11        Si     tau(  11) = (   0.6701371   1.4476688   1.4628623  )
        12        Si     tau(  12) = (  -0.0122184   1.4476688   0.4330341  )
        13        Si     tau(  13) = (   0.4872056   1.1568454   0.4292651  )
        14        Si     tau(  14) = (   0.1707131   1.1568454   1.4666313  )
        15        Al     tau(  15) = (   0.1506005   0.5746762   1.4713786  )
        16        Al     tau(  16) = (   0.5073182   0.5746762   0.4245178  )
        17        O      tau(  17) = (  -0.0043508   0.2833738   0.7297400  )
        18        O      tau(  18) = (   0.6622695   0.2833738   1.1661564  )
        19        O      tau(  19) = (   0.6658139   1.4451231   1.1576912  )
        20        O      tau(  20) = (  -0.0078952   1.4451231   0.7382052  )
        21        O      tau(  21) = (   0.4926234   1.1618863   0.7357690  )
        22        O      tau(  22) = (   0.1652953   1.1618863   1.1601274  )
        23        O      tau(  23) = (   0.1548298   0.5779784   1.1454267  )
        24        O      tau(  24) = (   0.5030889   0.5779784   0.7504697  )
        25        O      tau(  25) = (   0.2847398   0.3548857   0.3143567  )
        26        O      tau(  26) = (   0.3731789   0.3548857   1.5815397  )
        27        O      tau(  27) = (   0.9404978   1.7303189   0.3181314  )
        28        O      tau(  28) = (  -0.2825791   1.7303189   1.5777650  )
        29        O      tau(  29) = (   0.3988927   1.3439356   1.5754330  )
        30        O      tau(  30) = (   0.2590260   1.3439356   0.3204634  )
        31        O      tau(  31) = (   0.7582660   1.2710892   0.3185125  )
        32        O      tau(  32) = (  -0.1003473   1.2710892   1.5773839  )
        33        O      tau(  33) = (   0.4432368   0.8811364   0.3085875  )
        34        O      tau(  34) = (   0.2146819   0.8811364   1.5873090  )
        35        O      tau(  35) = (  -0.1423236   0.4782556   1.5925436  )
        36        O      tau(  36) = (   0.8002423   0.4782556   0.3033529  )
        37        O      tau(  37) = (  -0.0041068   0.8750247   0.7469263  )
        38        O      tau(  38) = (   0.6620255   0.8750247   1.1489701  )
        39        O      tau(  39) = (   0.4966158   1.7335917   0.7534577  )
        40        O      tau(  40) = (   0.1613029   1.7335917   1.1424387  )
        41        H      tau(  41) = (  -0.0032097   0.8603995   0.5673129  )
        42        H      tau(  42) = (   0.6611284   0.8603995   1.3285835  )
        43        H      tau(  43) = (   0.4926802   0.0219534   0.5746291  )
        44        H      tau(  44) = (   0.1652385   0.0219534   1.3212673  )

     --------------------------------------------
     DFT-D3 Dispersion Correction (3-body terms):
     --------------------------------------------
       Reference C6 values for interpolation: 

         atom   Coordination number   C6
         H          0.912             6.05
         H          0.000            15.18
         O          0.000            31.01
         O          0.993            25.63
         O          1.989            20.74
         Mg         0.000          1366.75
         Mg         0.963           902.54
         Mg         1.950           351.12
         Al         0.000          1081.08
         Al         0.965           875.51
         Al         1.931           513.50
         Al         2.915           307.19
         Si         0.000           635.71
         Si         0.951           540.53
         Si         1.944           466.25
         Si         2.941           443.01
         Si         3.868           299.55
         K          0.000          9967.00
         K          0.977           676.04

       Values used:

         atom   Coordination number  R0_AB[au]  C6      C8
         K         13.618            4.007    676.04 129074.98
         K         13.832            4.007    676.04 129074.98
         Mg        11.862            3.292    351.12  31436.69
         Mg        12.215            3.292    351.12  31436.69
         Mg        11.802            3.292    351.12  31436.69
         Mg        12.075            3.292    351.12  31436.69
         Mg        11.766            3.292    351.12  31436.69
         Mg        12.233            3.292    351.12  31436.69
         Si         6.969            3.583    299.55  21425.58
         Si         6.969            3.583    299.55  21425.58
         Si         6.546            3.583    299.55  21425.58
         Si         6.546            3.583    299.55  21425.58
         Si         6.597            3.583    299.55  21425.58
         Si         6.597            3.583    299.55  21425.58
         Al         7.870            3.789    307.19  29441.29
         Al         7.870            3.789    307.19  29441.29
         O          3.931            2.345     20.74    418.58
         O          3.931            2.345     20.74    418.58
         O          3.930            2.345     20.74    418.58
         O          3.930            2.345     20.74    418.58
         O          3.913            2.345     20.74    418.58
         O          3.913            2.345     20.74    418.58
         O          3.992            2.345     20.74    418.58
         O          3.992            2.345     20.74    418.58
         O          3.192            2.345     20.74    418.58
         O          3.192            2.345     20.74    418.58
         O          3.154            2.345     20.74    418.58
         O          3.154            2.345     20.74    418.58
         O          3.056            2.345     20.74    418.58
         O          3.056            2.345     20.74    418.58
         O          3.060            2.345     20.74    418.58
         O          3.060            2.345     20.74    418.58
         O          3.190            2.345     20.74    418.58
         O          3.190            2.345     20.74    418.58
         O          3.263            2.345     20.74    418.58
         O          3.263            2.345     20.74    418.58
         O          4.005            2.345     20.74    418.58
         O          4.005            2.345     20.74    418.58
         O          4.004            2.345     20.74    418.58
         O          4.004            2.345     20.74    418.58
         H          1.323            2.062      6.07     73.32
         H          1.323            2.062      6.07     73.32
         H          1.300            2.062      6.07     73.35
         H          1.300            2.062      6.07     73.35

         Molecular C6 ( Ry / a.u.^6 ) =    168241.01


   Crystallographic axes

     site n.     atom                  positions (cryst. coord.)
         1        K      tau(   1) = (  0.0000000  0.4932400  0.0000000  )
         2        K      tau(   2) = (  0.5000000  0.0053920  0.0000000  )
         3        Mg     tau(   3) = (  0.0000000  0.0039020  0.5000000  )
         4        Mg     tau(   4) = (  0.0000000  0.3331310  0.5000000  )
         5        Mg     tau(   5) = (  0.0000000  0.6652360  0.5000000  )
         6        Mg     tau(   6) = (  0.5000000  0.4934130  0.5000000  )
         7        Mg     tau(   7) = (  0.5000000  0.8344400  0.5000000  )
         8        Mg     tau(   8) = (  0.5000000  0.1720950  0.5000000  )
         9        Si     tau(   9) = (  0.0827990  0.1651150  0.2225540  )
        10        Si     tau(  10) = (  0.9172010  0.1651150  0.7774460  )
        11        Si     tau(  11) = (  0.9340850  0.8342440  0.7715940  )
        12        Si     tau(  12) = (  0.0659150  0.8342440  0.2284060  )
        13        Si     tau(  13) = (  0.5646590  0.6666520  0.2264180  )
        14        Si     tau(  14) = (  0.4353410  0.6666520  0.7735820  )
        15        Al     tau(  15) = (  0.4160850  0.3311670  0.7760860  )
        16        Al     tau(  16) = (  0.5839150  0.3311670  0.2239140  )
        17        O      tau(  17) = (  0.1273180  0.1632990  0.3849050  )
        18        O      tau(  18) = (  0.8726820  0.1632990  0.6150950  )
        19        O      tau(  19) = (  0.8746990  0.8327770  0.6106300  )
        20        O      tau(  20) = (  0.1253010  0.8327770  0.3893700  )
        21        O      tau(  21) = (  0.6253800  0.6695570  0.3880850  )
        22        O      tau(  22) = (  0.3746200  0.6695570  0.6119150  )
        23        O      tau(  23) = (  0.3615020  0.3330700  0.6041610  )
        24        O      tau(  24) = (  0.6384980  0.3330700  0.3958390  )
        25        O      tau(  25) = (  0.3414600  0.2045090  0.1658090  )
        26        O      tau(  26) = (  0.6585400  0.2045090  0.8341910  )
        27        O      tau(  27) = (  0.9978990  0.9971260  0.1678000  )
        28        O      tau(  28) = (  0.0021010  0.9971260  0.8322000  )
        29        O      tau(  29) = (  0.6831520  0.7744660  0.8309700  )
        30        O      tau(  30) = (  0.3168480  0.7744660  0.1690300  )
        31        O      tau(  31) = (  0.8157360  0.7324870  0.1680010  )
        32        O      tau(  32) = (  0.1842640  0.7324870  0.8319990  )
        33        O      tau(  33) = (  0.4989160  0.5077700  0.1627660  )
        34        O      tau(  34) = (  0.5010840  0.5077700  0.8372340  )
        35        O      tau(  35) = (  0.1450230  0.2756030  0.8399950  )
        36        O      tau(  36) = (  0.8549770  0.2756030  0.1600050  )
        37        O      tau(  37) = (  0.1306630  0.5042480  0.3939700  )
        38        O      tau(  38) = (  0.8693370  0.5042480  0.6060300  )
        39        O      tau(  39) = (  0.6325640  0.9990120  0.3974150  )
        40        O      tau(  40) = (  0.3674360  0.9990120  0.6025850  )
        41        H      tau(  41) = (  0.0991520  0.4958200  0.2992320  )
        42        H      tau(  42) = (  0.9008480  0.4958200  0.7007680  )
        43        H      tau(  43) = (  0.5963620  0.0126510  0.3030910  )
        44        H      tau(  44) = (  0.4036380  0.0126510  0.6969090  )

     number of k points=    20
                       cart. coord. in units 2pi/alat
        k(    1) = (   0.0000000   0.0000000   0.0000000), wk =   0.0370370
        k(    2) = (   0.0000000   0.0000000   0.1758183), wk =   0.0740741
        k(    3) = (   0.0000000   0.1920891   0.0000000), wk =   0.0740741
        k(    4) = (   0.0000000   0.1920891   0.1758183), wk =   0.1481481
        k(    5) = (   0.1666667   0.0000000   0.0300721), wk =   0.0740741
        k(    6) = (   0.1666667   0.0000000   0.2058904), wk =   0.0740741
        k(    7) = (   0.1666667   0.0000000  -0.1457462), wk =   0.0740741
        k(    8) = (   0.1666667   0.1920891   0.0300721), wk =   0.1481481
        k(    9) = (   0.1666667   0.1920891   0.2058904), wk =   0.1481481
        k(   10) = (   0.1666667   0.1920891  -0.1457462), wk =   0.1481481
        k(   11) = (   0.3333333   0.0000000   0.0601442), wk =   0.0740741
        k(   12) = (   0.3333333   0.0000000   0.2359625), wk =   0.0740741
        k(   13) = (   0.3333333   0.0000000  -0.1156742), wk =   0.0740741
        k(   14) = (   0.3333333   0.1920891   0.0601442), wk =   0.1481481
        k(   15) = (   0.3333333   0.1920891   0.2359625), wk =   0.1481481
        k(   16) = (   0.3333333   0.1920891  -0.1156742), wk =   0.1481481
        k(   17) = (  -0.5000000   0.0000000  -0.0902162), wk =   0.0370370
        k(   18) = (  -0.5000000   0.0000000   0.0856021), wk =   0.0740741
        k(   19) = (  -0.5000000   0.1920891  -0.0902162), wk =   0.0740741
        k(   20) = (  -0.5000000   0.1920891   0.0856021), wk =   0.1481481

                       cryst. coord.
        k(    1) = (   0.0000000   0.0000000   0.0000000), wk =   0.0370370
        k(    2) = (   0.0000000   0.0000000   0.3333333), wk =   0.0740741
        k(    3) = (   0.0000000   0.3333333   0.0000000), wk =   0.0740741
        k(    4) = (   0.0000000   0.3333333   0.3333333), wk =   0.1481481
        k(    5) = (   0.1666667   0.0000000  -0.0000000), wk =   0.0740741
        k(    6) = (   0.1666667   0.0000000   0.3333333), wk =   0.0740741
        k(    7) = (   0.1666667   0.0000000  -0.3333333), wk =   0.0740741
        k(    8) = (   0.1666667   0.3333333  -0.0000000), wk =   0.1481481
        k(    9) = (   0.1666667   0.3333333   0.3333333), wk =   0.1481481
        k(   10) = (   0.1666667   0.3333333  -0.3333333), wk =   0.1481481
        k(   11) = (   0.3333333   0.0000000  -0.0000000), wk =   0.0740741
        k(   12) = (   0.3333333   0.0000000   0.3333333), wk =   0.0740741
        k(   13) = (   0.3333333   0.0000000  -0.3333333), wk =   0.0740741
        k(   14) = (   0.3333333   0.3333333  -0.0000000), wk =   0.1481481
        k(   15) = (   0.3333333   0.3333333   0.3333333), wk =   0.1481481
        k(   16) = (   0.3333333   0.3333333  -0.3333333), wk =   0.1481481
        k(   17) = (  -0.5000000   0.0000000   0.0000000), wk =   0.0370370
        k(   18) = (  -0.5000000   0.0000000   0.3333333), wk =   0.0740741
        k(   19) = (  -0.5000000   0.3333333   0.0000000), wk =   0.0740741
        k(   20) = (  -0.5000000   0.3333333   0.3333333), wk =   0.1481481

     Dense  grid:   661485 G-vectors     FFT dimensions: (  75, 128, 144)

     Smooth grid:   233967 G-vectors     FFT dimensions: (  54,  90, 100)

     Dynamical RAM for                 wfc:       9.52 MB

     Dynamical RAM for     wfc (w. buffer):     199.83 MB

     Dynamical RAM for           str. fact:      10.09 MB

     Dynamical RAM for           local pot:       0.00 MB

     Dynamical RAM for          nlocal pot:      31.82 MB

     Dynamical RAM for                qrad:      10.98 MB

     Dynamical RAM for          rho,v,vnew:      10.32 MB

     Dynamical RAM for               rhoin:       3.44 MB

     Dynamical RAM for            rho*nmix:      26.92 MB

     Dynamical RAM for           G-vectors:       6.61 MB

     Dynamical RAM for          h,s,v(r/c):       3.00 MB

     Dynamical RAM for          <psi|beta>:       0.84 MB

     Dynamical RAM for                 psi:      19.03 MB

     Dynamical RAM for                hpsi:      19.03 MB

     Dynamical RAM for                spsi:      19.03 MB

     Dynamical RAM for      wfcinit/wfcrot:      27.19 MB

     Dynamical RAM for           addusdens:     353.27 MB

     Dynamical RAM for          addusforce:     431.59 MB

     Estimated static dynamical RAM per process >     293.65 MB

     Estimated max dynamical RAM per process >     752.16 MB

     Estimated total dynamical RAM >       4.41 GB

     Check: negative core charge=   -0.000003

     Initial potential from superposition of free atoms

     starting charge     255.9488, renormalised to     256.0000
     Starting wfcs are  178 randomized atomic wfcs
     Checking if some PAW data can be deallocated... 
       PAW data deallocated on    5 nodes for type:  1
       PAW data deallocated on    5 nodes for type:  2
       PAW data deallocated on    5 nodes for type:  3
       PAW data deallocated on    5 nodes for type:  4
       PAW data deallocated on    2 nodes for type:  5
       PAW data deallocated on    5 nodes for type:  6

     total cpu time spent up to now is      100.2 secs

     Self-consistent Calculation

     iteration #  1     ecut=    65.00 Ry     beta= 0.70
     Davidson diagonalization with overlap

---- Real-time Memory Report at c_bands before calling an iterative solver
           433 MiB given to the printing process from OS
             0 MiB allocation reported by mallinfo(arena+hblkhd)
           931 MiB available memory on the node where the printing process lives
------------------
     ethr =  1.00E-02,  avg # of iterations =  2.0

     total cpu time spent up to now is      308.4 secs

     total energy              =   -2435.65024321 Ry
     estimated scf accuracy    <      12.83692654 Ry

     iteration #  2     ecut=    65.00 Ry     beta= 0.70
     Davidson diagonalization with overlap

---- Real-time Memory Report at c_bands before calling an iterative solver
           674 MiB given to the printing process from OS
             0 MiB allocation reported by mallinfo(arena+hblkhd)
          1579 MiB available memory on the node where the printing process lives
------------------
     ethr =  5.01E-03,  avg # of iterations =  5.0

     total cpu time spent up to now is      654.6 secs

     total energy              =   -2442.11835884 Ry
     estimated scf accuracy    <      10.03726180 Ry

     iteration #  3     ecut=    65.00 Ry     beta= 0.70
     Davidson diagonalization with overlap

---- Real-time Memory Report at c_bands before calling an iterative solver
           676 MiB given to the printing process from OS
             0 MiB allocation reported by mallinfo(arena+hblkhd)
          1807 MiB available memory on the node where the printing process lives
------------------
     ethr =  3.92E-03,  avg # of iterations =  2.0

     total cpu time spent up to now is      840.2 secs

     total energy              =   -2441.31671509 Ry
     estimated scf accuracy    <       2.31227496 Ry

     iteration #  4     ecut=    65.00 Ry     beta= 0.70
     Davidson diagonalization with overlap

---- Real-time Memory Report at c_bands before calling an iterative solver
           677 MiB given to the printing process from OS
             0 MiB allocation reported by mallinfo(arena+hblkhd)
          1617 MiB available memory on the node where the printing process lives
------------------
     ethr =  9.03E-04,  avg # of iterations =  8.0

     total cpu time spent up to now is     1339.4 secs

     total energy              =   -2443.85265591 Ry
     estimated scf accuracy    <       2.73511788 Ry

     iteration #  5     ecut=    65.00 Ry     beta= 0.70
     Davidson diagonalization with overlap

---- Real-time Memory Report at c_bands before calling an iterative solver
           679 MiB given to the printing process from OS
             0 MiB allocation reported by mallinfo(arena+hblkhd)
          1678 MiB available memory on the node where the printing process lives
------------------
     ethr =  9.03E-04,  avg # of iterations =  1.0

     total cpu time spent up to now is     1493.2 secs

     total energy              =   -2443.25655252 Ry
     estimated scf accuracy    <       1.47132379 Ry

     iteration #  6     ecut=    65.00 Ry     beta= 0.70
     Davidson diagonalization with overlap

---- Real-time Memory Report at c_bands before calling an iterative solver
           680 MiB given to the printing process from OS
             0 MiB allocation reported by mallinfo(arena+hblkhd)
          1304 MiB available memory on the node where the printing process lives
------------------
     ethr =  5.75E-04,  avg # of iterations =  4.2

     total cpu time spent up to now is     1730.8 secs

     total energy              =   -2443.58253779 Ry
     estimated scf accuracy    <       0.08677608 Ry

     iteration #  7     ecut=    65.00 Ry     beta= 0.70
     Davidson diagonalization with overlap

---- Real-time Memory Report at c_bands before calling an iterative solver
           681 MiB given to the printing process from OS
             0 MiB allocation reported by mallinfo(arena+hblkhd)
          1705 MiB available memory on the node where the printing process lives
------------------
     ethr =  3.39E-05,  avg # of iterations =  7.0

     total cpu time spent up to now is     2160.0 secs

     total energy              =   -2443.71102144 Ry
     estimated scf accuracy    <       0.00650347 Ry

     iteration #  8     ecut=    65.00 Ry     beta= 0.70
     Davidson diagonalization with overlap

---- Real-time Memory Report at c_bands before calling an iterative solver
           682 MiB given to the printing process from OS
             0 MiB allocation reported by mallinfo(arena+hblkhd)
          1476 MiB available memory on the node where the printing process lives
------------------
     ethr =  2.54E-06,  avg # of iterations =  9.3

     total cpu time spent up to now is     2585.7 secs

     total energy              =   -2443.71247531 Ry
     estimated scf accuracy    <       0.01098108 Ry

     iteration #  9     ecut=    65.00 Ry     beta= 0.70
     Davidson diagonalization with overlap

---- Real-time Memory Report at c_bands before calling an iterative solver
           684 MiB given to the printing process from OS
             0 MiB allocation reported by mallinfo(arena+hblkhd)
          1667 MiB available memory on the node where the printing process lives
------------------
     ethr =  2.54E-06,  avg # of iterations =  2.5

     total cpu time spent up to now is     2782.4 secs

     total energy              =   -2443.71080930 Ry
     estimated scf accuracy    <       0.00358227 Ry

     iteration # 10     ecut=    65.00 Ry     beta= 0.70
     Davidson diagonalization with overlap

---- Real-time Memory Report at c_bands before calling an iterative solver
           685 MiB given to the printing process from OS
             0 MiB allocation reported by mallinfo(arena+hblkhd)
          1646 MiB available memory on the node where the printing process lives
------------------
     ethr =  1.40E-06,  avg # of iterations =  7.8

     total cpu time spent up to now is     3266.2 secs

     total energy              =   -2443.71444256 Ry
     estimated scf accuracy    <       0.00370938 Ry

     iteration # 11     ecut=    65.00 Ry     beta= 0.70
     Davidson diagonalization with overlap

---- Real-time Memory Report at c_bands before calling an iterative solver
           685 MiB given to the printing process from OS
             0 MiB allocation reported by mallinfo(arena+hblkhd)
          1963 MiB available memory on the node where the printing process lives
------------------
     ethr =  1.40E-06,  avg # of iterations =  1.5

     total cpu time spent up to now is     3429.9 secs

     total energy              =   -2443.71280681 Ry
     estimated scf accuracy    <       0.00241722 Ry

     iteration # 12     ecut=    65.00 Ry     beta= 0.70
     Davidson diagonalization with overlap

---- Real-time Memory Report at c_bands before calling an iterative solver
           685 MiB given to the printing process from OS
             0 MiB allocation reported by mallinfo(arena+hblkhd)
          1857 MiB available memory on the node where the printing process lives
------------------
     ethr =  9.44E-07,  avg # of iterations =  6.0

     total cpu time spent up to now is     3794.5 secs

     total energy              =   -2443.71387656 Ry
     estimated scf accuracy    <       0.00103684 Ry

     iteration # 13     ecut=    65.00 Ry     beta= 0.70
     Davidson diagonalization with overlap

---- Real-time Memory Report at c_bands before calling an iterative solver
           685 MiB given to the printing process from OS
             0 MiB allocation reported by mallinfo(arena+hblkhd)
          1856 MiB available memory on the node where the printing process lives
------------------
     ethr =  4.05E-07,  avg # of iterations =  2.1

     total cpu time spent up to now is     3998.5 secs

     total energy              =   -2443.71391826 Ry
     estimated scf accuracy    <       0.00015549 Ry

     iteration # 14     ecut=    65.00 Ry     beta= 0.70
     Davidson diagonalization with overlap

---- Real-time Memory Report at c_bands before calling an iterative solver
           685 MiB given to the printing process from OS
             0 MiB allocation reported by mallinfo(arena+hblkhd)
          1941 MiB available memory on the node where the printing process lives
------------------
     ethr =  6.07E-08,  avg # of iterations =  9.2

     total cpu time spent up to now is     4481.1 secs

     total energy              =   -2443.71420333 Ry
     estimated scf accuracy    <       0.00012045 Ry

     iteration # 15     ecut=    65.00 Ry     beta= 0.70
     Davidson diagonalization with overlap

---- Real-time Memory Report at c_bands before calling an iterative solver
           685 MiB given to the printing process from OS
             0 MiB allocation reported by mallinfo(arena+hblkhd)
          1869 MiB available memory on the node where the printing process lives
------------------
     ethr =  4.71E-08,  avg # of iterations =  1.9

     total cpu time spent up to now is     4657.5 secs

     total energy              =   -2443.71410943 Ry
     estimated scf accuracy    <       0.00018984 Ry

     iteration # 16     ecut=    65.00 Ry     beta= 0.70
     Davidson diagonalization with overlap

---- Real-time Memory Report at c_bands before calling an iterative solver
           685 MiB given to the printing process from OS
             0 MiB allocation reported by mallinfo(arena+hblkhd)
          1666 MiB available memory on the node where the printing process lives
------------------
     ethr =  4.71E-08,  avg # of iterations =  3.0

     total cpu time spent up to now is     4883.2 secs

     total energy              =   -2443.71413006 Ry
     estimated scf accuracy    <       0.00002833 Ry

     iteration # 17     ecut=    65.00 Ry     beta= 0.70
     Davidson diagonalization with overlap

---- Real-time Memory Report at c_bands before calling an iterative solver
           685 MiB given to the printing process from OS
             0 MiB allocation reported by mallinfo(arena+hblkhd)
          1730 MiB available memory on the node where the printing process lives
------------------
     ethr =  1.11E-08,  avg # of iterations =  6.7

     total cpu time spent up to now is     5201.2 secs

     total energy              =   -2443.71414490 Ry
     estimated scf accuracy    <       0.00000572 Ry

     iteration # 18     ecut=    65.00 Ry     beta= 0.70
     Davidson diagonalization with overlap

---- Real-time Memory Report at c_bands before calling an iterative solver
           685 MiB given to the printing process from OS
             0 MiB allocation reported by mallinfo(arena+hblkhd)
          1898 MiB available memory on the node where the printing process lives
------------------
     ethr =  2.23E-09,  avg # of iterations =  8.4

     total cpu time spent up to now is     5529.5 secs

     total energy              =   -2443.71414920 Ry
     estimated scf accuracy    <       0.00000352 Ry

     iteration # 19     ecut=    65.00 Ry     beta= 0.70
     Davidson diagonalization with overlap

---- Real-time Memory Report at c_bands before calling an iterative solver
           685 MiB given to the printing process from OS
             0 MiB allocation reported by mallinfo(arena+hblkhd)
          1830 MiB available memory on the node where the printing process lives
------------------
     ethr =  1.38E-09,  avg # of iterations =  2.0

     total cpu time spent up to now is     5711.5 secs

     total energy              =   -2443.71415193 Ry
     estimated scf accuracy    <       0.00000559 Ry

     iteration # 20     ecut=    65.00 Ry     beta= 0.70
     Davidson diagonalization with overlap

---- Real-time Memory Report at c_bands before calling an iterative solver
           685 MiB given to the printing process from OS
             0 MiB allocation reported by mallinfo(arena+hblkhd)
          2199 MiB available memory on the node where the printing process lives
------------------
     ethr =  1.38E-09,  avg # of iterations =  3.4

     total cpu time spent up to now is     5978.4 secs

     total energy              =   -2443.71415526 Ry
     estimated scf accuracy    <       0.00001374 Ry

     iteration # 21     ecut=    65.00 Ry     beta= 0.70
     Davidson diagonalization with overlap

---- Real-time Memory Report at c_bands before calling an iterative solver
           685 MiB given to the printing process from OS
             0 MiB allocation reported by mallinfo(arena+hblkhd)
          1839 MiB available memory on the node where the printing process lives
------------------
     ethr =  1.38E-09,  avg # of iterations =  4.8

     total cpu time spent up to now is     6220.9 secs

     total energy              =   -2443.71414988 Ry
     estimated scf accuracy    <       0.00002537 Ry

     iteration # 22     ecut=    65.00 Ry     beta= 0.70
     Davidson diagonalization with overlap

---- Real-time Memory Report at c_bands before calling an iterative solver
           685 MiB given to the printing process from OS
             0 MiB allocation reported by mallinfo(arena+hblkhd)
          1796 MiB available memory on the node where the printing process lives
------------------
     ethr =  1.38E-09,  avg # of iterations =  2.2

     total cpu time spent up to now is     6425.6 secs

     total energy              =   -2443.71413894 Ry
     estimated scf accuracy    <       0.00001460 Ry

     iteration # 23     ecut=    65.00 Ry     beta= 0.70
     Davidson diagonalization with overlap

---- Real-time Memory Report at c_bands before calling an iterative solver
           685 MiB given to the printing process from OS
             0 MiB allocation reported by mallinfo(arena+hblkhd)
          2076 MiB available memory on the node where the printing process lives
------------------
     ethr =  1.38E-09,  avg # of iterations = 13.8

     total cpu time spent up to now is     7285.4 secs

     total energy              =   -2443.71414506 Ry
     estimated scf accuracy    <       0.00002314 Ry

     iteration # 24     ecut=    65.00 Ry     beta= 0.70
     Davidson diagonalization with overlap

---- Real-time Memory Report at c_bands before calling an iterative solver
           685 MiB given to the printing process from OS
             0 MiB allocation reported by mallinfo(arena+hblkhd)
          2065 MiB available memory on the node where the printing process lives
------------------
     ethr =  1.38E-09,  avg # of iterations =  6.0

     total cpu time spent up to now is     7688.4 secs

     total energy              =   -2443.71414709 Ry
     estimated scf accuracy    <       0.00000172 Ry

     iteration # 25     ecut=    65.00 Ry     beta= 0.70
     Davidson diagonalization with overlap

---- Real-time Memory Report at c_bands before calling an iterative solver
           685 MiB given to the printing process from OS
             0 MiB allocation reported by mallinfo(arena+hblkhd)
          1817 MiB available memory on the node where the printing process lives
------------------
     ethr =  6.70E-10,  avg # of iterations =  5.3

     total cpu time spent up to now is     7924.6 secs

     total energy              =   -2443.71414789 Ry
     estimated scf accuracy    <       0.00000005 Ry

     iteration # 26     ecut=    65.00 Ry     beta= 0.70
     Davidson diagonalization with overlap

---- Real-time Memory Report at c_bands before calling an iterative solver
           685 MiB given to the printing process from OS
             0 MiB allocation reported by mallinfo(arena+hblkhd)
          1524 MiB available memory on the node where the printing process lives
------------------
     c_bands:  2 eigenvalues not converged
     c_bands:  4 eigenvalues not converged
     c_bands:  2 eigenvalues not converged
     c_bands:  2 eigenvalues not converged
     c_bands:  3 eigenvalues not converged
     c_bands:  2 eigenvalues not converged
     c_bands:  3 eigenvalues not converged
     c_bands:  4 eigenvalues not converged
     c_bands:  4 eigenvalues not converged
     c_bands:  3 eigenvalues not converged
     c_bands:  3 eigenvalues not converged
     c_bands:  1 eigenvalues not converged
     c_bands:  3 eigenvalues not converged
     c_bands:  2 eigenvalues not converged
     c_bands:  2 eigenvalues not converged
     c_bands:  1 eigenvalues not converged
     c_bands:  2 eigenvalues not converged
     ethr =  1.84E-11,  avg # of iterations = 20.1

     total cpu time spent up to now is     9207.7 secs

     total energy              =   -2443.71414851 Ry
     estimated scf accuracy    <       0.00000339 Ry

     iteration # 27     ecut=    65.00 Ry     beta= 0.70
     Davidson diagonalization with overlap

---- Real-time Memory Report at c_bands before calling an iterative solver
           685 MiB given to the printing process from OS
             0 MiB allocation reported by mallinfo(arena+hblkhd)
          1867 MiB available memory on the node where the printing process lives
------------------
     ethr =  1.84E-11,  avg # of iterations =  5.9

     total cpu time spent up to now is     9563.5 secs

     total energy              =   -2443.71414768 Ry
     estimated scf accuracy    <       0.00000222 Ry

     iteration # 28     ecut=    65.00 Ry     beta= 0.70
     Davidson diagonalization with overlap

---- Real-time Memory Report at c_bands before calling an iterative solver
           685 MiB given to the printing process from OS
             0 MiB allocation reported by mallinfo(arena+hblkhd)
          1993 MiB available memory on the node where the printing process lives
------------------
     ethr =  1.84E-11,  avg # of iterations = 16.1

     total cpu time spent up to now is    10526.1 secs

     total energy              =   -2443.71414789 Ry
     estimated scf accuracy    <       0.00000012 Ry

     iteration # 29     ecut=    65.00 Ry     beta= 0.70
     Davidson diagonalization with overlap

---- Real-time Memory Report at c_bands before calling an iterative solver
           685 MiB given to the printing process from OS
             0 MiB allocation reported by mallinfo(arena+hblkhd)
          1839 MiB available memory on the node where the printing process lives
------------------
     ethr =  1.84E-11,  avg # of iterations =  4.8

     total cpu time spent up to now is    10780.0 secs

     total energy              =   -2443.71414790 Ry
     estimated scf accuracy    <       0.00000002 Ry

     iteration # 30     ecut=    65.00 Ry     beta= 0.70
     Davidson diagonalization with overlap

---- Real-time Memory Report at c_bands before calling an iterative solver
           685 MiB given to the printing process from OS
             0 MiB allocation reported by mallinfo(arena+hblkhd)
          1957 MiB available memory on the node where the printing process lives
------------------
     ethr =  7.59E-12,  avg # of iterations =  5.0

     total cpu time spent up to now is    11053.3 secs

     End of self-consistent calculation

          k = 0.0000 0.0000 0.0000 ( 29219 PWs)   bands (ev):

   -67.6830 -67.6805 -67.5684 -67.1997 -67.1073 -67.1002 -34.4631 -34.4444
   -34.4400 -34.4334 -34.4247 -34.4224 -34.3345 -34.3319 -34.3060 -33.9609
   -33.9550 -33.9529 -33.8840 -33.8832 -33.8694 -33.8510 -33.8432 -33.8242
   -23.2036 -23.1847 -15.2402 -15.1874 -14.2954 -14.2508 -13.7846 -13.7611
   -13.5410 -13.4335 -13.3945 -13.2182 -13.0219 -12.9783 -12.9722 -12.9624
   -12.8829 -12.7744 -12.6098 -12.5348 -12.4314 -12.4035 -12.3353 -12.1988
   -11.1749 -10.9304  -6.7750  -6.7489  -6.6968  -6.6894  -6.6617  -6.6575
    -4.4411  -4.3828  -2.5690  -2.4734  -1.9367  -1.4524  -1.2993  -1.2933
    -1.2457  -1.1609  -0.7795  -0.7048  -0.5881  -0.4984  -0.4976  -0.2906
    -0.1001  -0.0046   0.1201   0.3618   0.4419   0.4687   0.5680   0.7452
     0.7764   1.0186   1.2006   1.2166   1.2826   1.4052   1.4287   1.5294
     1.7500   1.7529   1.8692   1.9550   1.9580   2.1126   2.1382   2.1998
     2.3144   2.3640   2.5043   2.5168   2.5941   2.6329   2.7391   2.7792
     2.7952   2.8883   2.9079   2.9935   3.1159   3.1792   3.2177   3.2917
     3.3370   3.3852   3.4687   3.4837   3.5408   3.6522   3.7179   3.7246
     3.7850   3.8282   3.8323   4.0169   4.0466   4.2164   4.3818   4.4994

     occupation numbers 
     1.0000   1.0000   1.0000   1.0000   1.0000   1.0000   1.0000   1.0000
     1.0000   1.0000   1.0000   1.0000   1.0000   1.0000   1.0000   1.0000
     1.0000   1.0000   1.0000   1.0000   1.0000   1.0000   1.0000   1.0000
     1.0000   1.0000   1.0000   1.0000   1.0000   1.0000   1.0000   1.0000
     1.0000   1.0000   1.0000   1.0000   1.0000   1.0000   1.0000   1.0000
     1.0000   1.0000   1.0000   1.0000   1.0000   1.0000   1.0000   1.0000
     1.0000   1.0000   1.0000   1.0000   1.0000   1.0000   1.0000   1.0000
     1.0000   1.0000   1.0000   1.0000   1.0000   1.0000   1.0000   1.0000
     1.0000   1.0000   1.0000   1.0000   1.0000   1.0000   1.0000   1.0000
     1.0000   1.0000   1.0000   1.0000   1.0000   1.0000   1.0000   1.0000
     1.0000   1.0000   1.0000   1.0000   1.0000   1.0000   1.0000   1.0000
     1.0000   1.0000   1.0000   1.0000   1.0000   1.0000   1.0000   1.0000
     1.0000   1.0000   1.0000   1.0000   1.0000   1.0000   1.0000   1.0000
     1.0000   1.0000   1.0000   1.0000   1.0000   1.0000   1.0000   1.0000
     1.0000   1.0000   1.0000   1.0000   1.0000   1.0000   1.0000   1.0000
     1.0000   1.0000   1.0000   1.0000   1.0000   1.0000   1.0000   1.0000

          k = 0.0000 0.0000 0.1758 ( 29216 PWs)   bands (ev):

   -67.6830 -67.6805 -67.5684 -67.1997 -67.1073 -67.1002 -34.4630 -34.4445
   -34.4401 -34.4334 -34.4247 -34.4225 -34.3345 -34.3319 -34.3060 -33.9609
   -33.9550 -33.9529 -33.8840 -33.8832 -33.8693 -33.8510 -33.8432 -33.8242
   -23.2036 -23.1847 -15.2274 -15.2010 -14.2849 -14.2618 -13.7850 -13.7606
   -13.5290 -13.4539 -13.3871 -13.2141 -13.0233 -12.9831 -12.9714 -12.9612
   -12.8769 -12.7786 -12.6030 -12.5414 -12.4340 -12.4001 -12.3292 -12.2053
   -11.1746 -10.9311  -6.7750  -6.7489  -6.6968  -6.6893  -6.6616  -6.6575
    -4.4371  -4.3873  -2.5470  -2.4993  -1.9040  -1.4378  -1.3220  -1.2677
    -1.2376  -1.1847  -0.7539  -0.7175  -0.6196  -0.5070  -0.4740  -0.3900
    -0.0706   0.0239   0.0677   0.3122   0.4332   0.4374   0.5933   0.7740
     0.8157   1.0977   1.1286   1.2421   1.3100   1.3560   1.4636   1.5913
     1.7626   1.7797   1.9428   1.9540   2.0018   2.1169   2.1497   2.1942
     2.2744   2.3259   2.4855   2.5080   2.5660   2.6121   2.6871   2.7258
     2.7554   2.9551   2.9899   2.9986   3.0229   3.1912   3.2339   3.2834
     3.3146   3.3321   3.4610   3.5665   3.6055   3.6402   3.7039   3.7317
     3.7536   3.7874   3.8097   4.0406   4.0550   4.2193   4.3802   4.5023

     occupation numbers 
     1.0000   1.0000   1.0000   1.0000   1.0000   1.0000   1.0000   1.0000
     1.0000   1.0000   1.0000   1.0000   1.0000   1.0000   1.0000   1.0000
     1.0000   1.0000   1.0000   1.0000   1.0000   1.0000   1.0000   1.0000
     1.0000   1.0000   1.0000   1.0000   1.0000   1.0000   1.0000   1.0000
     1.0000   1.0000   1.0000   1.0000   1.0000   1.0000   1.0000   1.0000
     1.0000   1.0000   1.0000   1.0000   1.0000   1.0000   1.0000   1.0000
     1.0000   1.0000   1.0000   1.0000   1.0000   1.0000   1.0000   1.0000
     1.0000   1.0000   1.0000   1.0000   1.0000   1.0000   1.0000   1.0000
     1.0000   1.0000   1.0000   1.0000   1.0000   1.0000   1.0000   1.0000
     1.0000   1.0000   1.0000   1.0000   1.0000   1.0000   1.0000   1.0000
     1.0000   1.0000   1.0000   1.0000   1.0000   1.0000   1.0000   1.0000
     1.0000   1.0000   1.0000   1.0000   1.0000   1.0000   1.0000   1.0000
     1.0000   1.0000   1.0000   1.0000   1.0000   1.0000   1.0000   1.0000
     1.0000   1.0000   1.0000   1.0000   1.0000   1.0000   1.0000   1.0000
     1.0000   1.0000   1.0000   1.0000   1.0000   1.0000   1.0000   1.0000
     1.0000   1.0000   1.0000   1.0000   1.0000   1.0000   1.0000   1.0000

          k = 0.0000 0.1921 0.0000 ( 29220 PWs)   bands (ev):

   -67.6830 -67.6805 -67.5684 -67.1997 -67.1073 -67.1002 -34.4631 -34.4444
   -34.4401 -34.4334 -34.4247 -34.4224 -34.3344 -34.3319 -34.3060 -33.9609
   -33.9550 -33.9528 -33.8840 -33.8832 -33.8693 -33.8510 -33.8432 -33.8242
   -23.2035 -23.1847 -15.2352 -15.1825 -14.3287 -14.2809 -13.7847 -13.7612
   -13.4543 -13.3774 -13.3288 -13.2381 -13.0810 -13.0449 -13.0138 -12.9532
   -12.8892 -12.7713 -12.6002 -12.5308 -12.4310 -12.4033 -12.3298 -12.1956
   -11.1737 -10.9299  -6.7712  -6.7530  -6.6963  -6.6872  -6.6634  -6.6583
    -4.4015  -4.3424  -2.7163  -2.6129  -1.8869  -1.4941  -1.2391  -1.2361
    -1.1279  -1.0812  -0.8581  -0.7737  -0.6038  -0.4316  -0.4114  -0.2727
    -0.1936   0.0352   0.1038   0.3291   0.3987   0.4481   0.5762   0.7519
     0.7825   1.0291   1.0940   1.2022   1.2807   1.4150   1.4519   1.5822
     1.8035   1.8038   1.8342   1.9452   2.0282   2.1098   2.2100   2.2727
     2.2840   2.3623   2.4284   2.5440   2.5822   2.6772   2.7391   2.7727
     2.8303   2.8975   2.9462   3.0099   3.1413   3.1844   3.2617   3.2744
     3.3477   3.3640   3.3733   3.4769   3.5536   3.5833   3.6980   3.7140
     3.7972   3.8046   3.8320   3.9981   4.0557   4.1848   4.1999   4.4966

     occupation numbers 
     1.0000   1.0000   1.0000   1.0000   1.0000   1.0000   1.0000   1.0000
     1.0000   1.0000   1.0000   1.0000   1.0000   1.0000   1.0000   1.0000
     1.0000   1.0000   1.0000   1.0000   1.0000   1.0000   1.0000   1.0000
     1.0000   1.0000   1.0000   1.0000   1.0000   1.0000   1.0000   1.0000
     1.0000   1.0000   1.0000   1.0000   1.0000   1.0000   1.0000   1.0000
     1.0000   1.0000   1.0000   1.0000   1.0000   1.0000   1.0000   1.0000
     1.0000   1.0000   1.0000   1.0000   1.0000   1.0000   1.0000   1.0000
     1.0000   1.0000   1.0000   1.0000   1.0000   1.0000   1.0000   1.0000
     1.0000   1.0000   1.0000   1.0000   1.0000   1.0000   1.0000   1.0000
     1.0000   1.0000   1.0000   1.0000   1.0000   1.0000   1.0000   1.0000
     1.0000   1.0000   1.0000   1.0000   1.0000   1.0000   1.0000   1.0000
     1.0000   1.0000   1.0000   1.0000   1.0000   1.0000   1.0000   1.0000
     1.0000   1.0000   1.0000   1.0000   1.0000   1.0000   1.0000   1.0000
     1.0000   1.0000   1.0000   1.0000   1.0000   1.0000   1.0000   1.0000
     1.0000   1.0000   1.0000   1.0000   1.0000   1.0000   1.0000   1.0000
     1.0000   1.0000   1.0000   1.0000   1.0000   1.0000   1.0000   1.0000

          k = 0.0000 0.1921 0.1758 ( 29224 PWs)   bands (ev):

   -67.6830 -67.6805 -67.5684 -67.1997 -67.1073 -67.1002 -34.4631 -34.4445
   -34.4401 -34.4334 -34.4246 -34.4225 -34.3344 -34.3319 -34.3060 -33.9609
   -33.9550 -33.9529 -33.8840 -33.8832 -33.8693 -33.8510 -33.8432 -33.8242
   -23.2035 -23.1847 -15.2225 -15.1961 -14.3171 -14.2933 -13.7852 -13.7607
   -13.4471 -13.3706 -13.3469 -13.2287 -13.0960 -13.0293 -13.0152 -12.9558
   -12.8860 -12.7757 -12.5937 -12.5373 -12.4338 -12.3999 -12.3233 -12.2020
   -11.1733 -10.9305  -6.7712  -6.7530  -6.6963  -6.6871  -6.6633  -6.6583
    -4.3948  -4.3494  -2.6930  -2.6386  -1.8587  -1.4822  -1.2386  -1.2337
    -1.1274  -1.0868  -0.8386  -0.7945  -0.6196  -0.4585  -0.4002  -0.3479
    -0.1474   0.0291   0.0484   0.3148   0.3981   0.4057   0.6147   0.7507
     0.8411   0.9982   1.0753   1.2597   1.3295   1.4148   1.5478   1.6099
     1.7509   1.8320   1.8872   1.9292   2.0057   2.1422   2.2107   2.2511
     2.3060   2.3434   2.4001   2.5062   2.5847   2.6423   2.7027   2.7506
     2.8204   2.9289   2.9494   3.0635   3.0923   3.1324   3.2450   3.2853
     3.3041   3.3523   3.4294   3.5043   3.5421   3.6372   3.6796   3.7176
     3.7596   3.7958   3.8190   3.9916   4.0649   4.1982   4.2188   4.5000

     occupation numbers 
     1.0000   1.0000   1.0000   1.0000   1.0000   1.0000   1.0000   1.0000
     1.0000   1.0000   1.0000   1.0000   1.0000   1.0000   1.0000   1.0000
     1.0000   1.0000   1.0000   1.0000   1.0000   1.0000   1.0000   1.0000
     1.0000   1.0000   1.0000   1.0000   1.0000   1.0000   1.0000   1.0000
     1.0000   1.0000   1.0000   1.0000   1.0000   1.0000   1.0000   1.0000
     1.0000   1.0000   1.0000   1.0000   1.0000   1.0000   1.0000   1.0000
     1.0000   1.0000   1.0000   1.0000   1.0000   1.0000   1.0000   1.0000
     1.0000   1.0000   1.0000   1.0000   1.0000   1.0000   1.0000   1.0000
     1.0000   1.0000   1.0000   1.0000   1.0000   1.0000   1.0000   1.0000
     1.0000   1.0000   1.0000   1.0000   1.0000   1.0000   1.0000   1.0000
     1.0000   1.0000   1.0000   1.0000   1.0000   1.0000   1.0000   1.0000
     1.0000   1.0000   1.0000   1.0000   1.0000   1.0000   1.0000   1.0000
     1.0000   1.0000   1.0000   1.0000   1.0000   1.0000   1.0000   1.0000
     1.0000   1.0000   1.0000   1.0000   1.0000   1.0000   1.0000   1.0000
     1.0000   1.0000   1.0000   1.0000   1.0000   1.0000   1.0000   1.0000
     1.0000   1.0000   1.0000   1.0000   1.0000   1.0000   1.0000   1.0000

          k = 0.1667 0.0000 0.0301 ( 29224 PWs)   bands (ev):

   -67.6829 -67.6806 -67.5684 -67.1997 -67.1073 -67.1003 -34.4623 -34.4466
   -34.4388 -34.4332 -34.4247 -34.4225 -34.3344 -34.3319 -34.3060 -33.9607
   -33.9552 -33.9528 -33.8864 -33.8801 -33.8699 -33.8505 -33.8435 -33.8247
   -23.2034 -23.1846 -15.1818 -15.1301 -14.3147 -14.2727 -13.8957 -13.8654
   -13.4738 -13.3719 -13.3403 -13.2031 -13.0313 -13.0092 -12.9663 -12.9524
   -12.8754 -12.7818 -12.6270 -12.5525 -12.4917 -12.4423 -12.3157 -12.1878
   -11.1716 -10.9352  -6.7748  -6.7531  -6.6954  -6.6877  -6.6619  -6.6543
    -4.2839  -4.2223  -2.5369  -2.4403  -1.9415  -1.5870  -1.5375  -1.4173
    -1.0343  -0.9592  -0.7959  -0.7564  -0.5797  -0.4766  -0.4503  -0.2856
    -0.0960   0.0051   0.1013   0.3461   0.3812   0.5024   0.5161   0.6506
     0.9363   1.0564   1.1535   1.2210   1.2436   1.3451   1.4367   1.5057
     1.6360   1.7799   1.8104   1.9123   1.9561   2.1437   2.1772   2.2562
     2.3268   2.3828   2.4934   2.5525   2.5785   2.5976   2.7435   2.7497
     2.8253   2.8627   2.9505   3.0302   3.0788   3.1114   3.2180   3.2406
     3.3260   3.3872   3.4486   3.5265   3.5531   3.6353   3.6741   3.7251
     3.7437   3.7879   3.8366   3.9527   4.0154   4.2227   4.3716   4.4106

     occupation numbers 
     1.0000   1.0000   1.0000   1.0000   1.0000   1.0000   1.0000   1.0000
     1.0000   1.0000   1.0000   1.0000   1.0000   1.0000   1.0000   1.0000
     1.0000   1.0000   1.0000   1.0000   1.0000   1.0000   1.0000   1.0000
     1.0000   1.0000   1.0000   1.0000   1.0000   1.0000   1.0000   1.0000
     1.0000   1.0000   1.0000   1.0000   1.0000   1.0000   1.0000   1.0000
     1.0000   1.0000   1.0000   1.0000   1.0000   1.0000   1.0000   1.0000
     1.0000   1.0000   1.0000   1.0000   1.0000   1.0000   1.0000   1.0000
     1.0000   1.0000   1.0000   1.0000   1.0000   1.0000   1.0000   1.0000
     1.0000   1.0000   1.0000   1.0000   1.0000   1.0000   1.0000   1.0000
     1.0000   1.0000   1.0000   1.0000   1.0000   1.0000   1.0000   1.0000
     1.0000   1.0000   1.0000   1.0000   1.0000   1.0000   1.0000   1.0000
     1.0000   1.0000   1.0000   1.0000   1.0000   1.0000   1.0000   1.0000
     1.0000   1.0000   1.0000   1.0000   1.0000   1.0000   1.0000   1.0000
     1.0000   1.0000   1.0000   1.0000   1.0000   1.0000   1.0000   1.0000
     1.0000   1.0000   1.0000   1.0000   1.0000   1.0000   1.0000   1.0000
     1.0000   1.0000   1.0000   1.0000   1.0000   1.0000   1.0000   1.0000

          k = 0.1667 0.0000 0.2059 ( 29222 PWs)   bands (ev):

   -67.6829 -67.6806 -67.5684 -67.1997 -67.1073 -67.1003 -34.4624 -34.4466
   -34.4388 -34.4332 -34.4247 -34.4225 -34.3344 -34.3319 -34.3061 -33.9608
   -33.9552 -33.9528 -33.8864 -33.8801 -33.8699 -33.8504 -33.8435 -33.8247
   -23.2034 -23.1846 -15.1658 -15.1470 -14.3058 -14.2822 -13.8924 -13.8688
   -13.4622 -13.3888 -13.3366 -13.1981 -13.0313 -13.0050 -12.9823 -12.9442
   -12.8699 -12.7860 -12.6207 -12.5612 -12.4832 -12.4489 -12.3066 -12.1958
   -11.1712 -10.9360  -6.7748  -6.7531  -6.6954  -6.6876  -6.6617  -6.6543
    -4.2852  -4.2214  -2.5172  -2.4645  -1.9062  -1.6270  -1.5033  -1.4045
    -1.0323  -0.9632  -0.8008  -0.7492  -0.5839  -0.4745  -0.4445  -0.3985
    -0.0531   0.0402   0.0517   0.2789   0.3682   0.4843   0.5008   0.7113
     0.9965   1.0742   1.1260   1.2310   1.2605   1.3459   1.4633   1.5268
     1.6933   1.7634   1.8265   1.9129   2.0532   2.1583   2.1894   2.2508
     2.2949   2.3825   2.4447   2.4781   2.5562   2.6027   2.7080   2.7217
     2.7899   2.8896   2.9951   3.0491   3.0747   3.1162   3.1580   3.2142
     3.3322   3.3707   3.4462   3.5769   3.5978   3.6435   3.6729   3.7050
     3.7435   3.7547   3.7949   3.9645   4.0481   4.2121   4.3724   4.4297

     occupation numbers 
     1.0000   1.0000   1.0000   1.0000   1.0000   1.0000   1.0000   1.0000
     1.0000   1.0000   1.0000   1.0000   1.0000   1.0000   1.0000   1.0000
     1.0000   1.0000   1.0000   1.0000   1.0000   1.0000   1.0000   1.0000
     1.0000   1.0000   1.0000   1.0000   1.0000   1.0000   1.0000   1.0000
     1.0000   1.0000   1.0000   1.0000   1.0000   1.0000   1.0000   1.0000
     1.0000   1.0000   1.0000   1.0000   1.0000   1.0000   1.0000   1.0000
     1.0000   1.0000   1.0000   1.0000   1.0000   1.0000   1.0000   1.0000
     1.0000   1.0000   1.0000   1.0000   1.0000   1.0000   1.0000   1.0000
     1.0000   1.0000   1.0000   1.0000   1.0000   1.0000   1.0000   1.0000
     1.0000   1.0000   1.0000   1.0000   1.0000   1.0000   1.0000   1.0000
     1.0000   1.0000   1.0000   1.0000   1.0000   1.0000   1.0000   1.0000
     1.0000   1.0000   1.0000   1.0000   1.0000   1.0000   1.0000   1.0000
     1.0000   1.0000   1.0000   1.0000   1.0000   1.0000   1.0000   1.0000
     1.0000   1.0000   1.0000   1.0000   1.0000   1.0000   1.0000   1.0000
     1.0000   1.0000   1.0000   1.0000   1.0000   1.0000   1.0000   1.0000
     1.0000   1.0000   1.0000   1.0000   1.0000   1.0000   1.0000   1.0000

          k = 0.1667 0.0000-0.1457 ( 29244 PWs)   bands (ev):

   -67.6829 -67.6806 -67.5684 -67.1997 -67.1073 -67.1003 -34.4624 -34.4466
   -34.4388 -34.4332 -34.4247 -34.4225 -34.3344 -34.3319 -34.3061 -33.9608
   -33.9552 -33.9528 -33.8864 -33.8801 -33.8699 -33.8505 -33.8435 -33.8247
   -23.2034 -23.1846 -15.1727 -15.1398 -14.3066 -14.2813 -13.8913 -13.8700
   -13.4670 -13.3743 -13.3470 -13.1991 -13.0314 -13.0032 -12.9817 -12.9436
   -12.8725 -12.7863 -12.6172 -12.5638 -12.4734 -12.4591 -12.3069 -12.1947
   -11.1710 -10.9360  -6.7749  -6.7531  -6.6954  -6.6876  -6.6617  -6.6543
    -4.2683  -4.2386  -2.5136  -2.4664  -1.9201  -1.6205  -1.5068  -1.4079
    -1.0171  -0.9828  -0.7709  -0.7456  -0.6020  -0.4747  -0.4601  -0.3683
    -0.0915   0.0410   0.0658   0.2929   0.3978   0.4828   0.5536   0.6927
     0.9453   1.0624   1.1025   1.2258   1.2875   1.3766   1.4635   1.4934
     1.6890   1.7476   1.8629   1.8745   2.0040   2.1231   2.1988   2.2300
     2.3105   2.3854   2.4598   2.5293   2.5439   2.6280   2.6856   2.7732
     2.8021   2.8799   2.9916   3.0442   3.0947   3.1129   3.1696   3.2840
     3.3441   3.3568   3.4662   3.5150   3.5907   3.5974   3.6348   3.7157
     3.7439   3.7636   3.8053   3.9489   4.0729   4.2113   4.3764   4.4219

     occupation numbers 
     1.0000   1.0000   1.0000   1.0000   1.0000   1.0000   1.0000   1.0000
     1.0000   1.0000   1.0000   1.0000   1.0000   1.0000   1.0000   1.0000
     1.0000   1.0000   1.0000   1.0000   1.0000   1.0000   1.0000   1.0000
     1.0000   1.0000   1.0000   1.0000   1.0000   1.0000   1.0000   1.0000
     1.0000   1.0000   1.0000   1.0000   1.0000   1.0000   1.0000   1.0000
     1.0000   1.0000   1.0000   1.0000   1.0000   1.0000   1.0000   1.0000
     1.0000   1.0000   1.0000   1.0000   1.0000   1.0000   1.0000   1.0000
     1.0000   1.0000   1.0000   1.0000   1.0000   1.0000   1.0000   1.0000
     1.0000   1.0000   1.0000   1.0000   1.0000   1.0000   1.0000   1.0000
     1.0000   1.0000   1.0000   1.0000   1.0000   1.0000   1.0000   1.0000
     1.0000   1.0000   1.0000   1.0000   1.0000   1.0000   1.0000   1.0000
     1.0000   1.0000   1.0000   1.0000   1.0000   1.0000   1.0000   1.0000
     1.0000   1.0000   1.0000   1.0000   1.0000   1.0000   1.0000   1.0000
     1.0000   1.0000   1.0000   1.0000   1.0000   1.0000   1.0000   1.0000
     1.0000   1.0000   1.0000   1.0000   1.0000   1.0000   1.0000   1.0000
     1.0000   1.0000   1.0000   1.0000   1.0000   1.0000   1.0000   1.0000

          k = 0.1667 0.1921 0.0301 ( 29221 PWs)   bands (ev):

   -67.6829 -67.6806 -67.5684 -67.1997 -67.1073 -67.1003 -34.4624 -34.4466
   -34.4388 -34.4332 -34.4247 -34.4225 -34.3344 -34.3319 -34.3061 -33.9607
   -33.9552 -33.9528 -33.8864 -33.8801 -33.8699 -33.8504 -33.8435 -33.8247
   -23.2034 -23.1846 -15.1771 -15.1254 -14.3438 -14.2987 -13.8838 -13.8565
   -13.4178 -13.3493 -13.2769 -13.2041 -13.0654 -13.0456 -13.0248 -12.9535
   -12.8906 -12.7785 -12.6205 -12.5408 -12.4873 -12.4459 -12.3128 -12.1860
   -11.1706 -10.9349  -6.7719  -6.7565  -6.6952  -6.6860  -6.6630  -6.6547
    -4.2474  -4.1851  -2.6970  -2.5944  -1.8663  -1.4701  -1.4469  -1.4120
    -1.0250  -0.9633  -0.8875  -0.7227  -0.5840  -0.4091  -0.3874  -0.2539
    -0.1433   0.0025   0.0750   0.3058   0.3645   0.4725   0.5330   0.6226
     0.9529   0.9894   1.1493   1.2008   1.2580   1.3396   1.4169   1.5418
     1.6584   1.7616   1.7848   1.9468   2.0322   2.1561   2.2007   2.2557
     2.3321   2.3827   2.4428   2.5893   2.5938   2.7058   2.7254   2.7957
     2.8425   2.8986   2.9898   3.0353   3.0864   3.1450   3.2071   3.2531
     3.3077   3.3458   3.4145   3.4949   3.5535   3.5688   3.6357   3.6989
     3.7241   3.7535   3.8556   3.9659   3.9997   4.1800   4.2564   4.4430

     occupation numbers 
     1.0000   1.0000   1.0000   1.0000   1.0000   1.0000   1.0000   1.0000
     1.0000   1.0000   1.0000   1.0000   1.0000   1.0000   1.0000   1.0000
     1.0000   1.0000   1.0000   1.0000   1.0000   1.0000   1.0000   1.0000
     1.0000   1.0000   1.0000   1.0000   1.0000   1.0000   1.0000   1.0000
     1.0000   1.0000   1.0000   1.0000   1.0000   1.0000   1.0000   1.0000
     1.0000   1.0000   1.0000   1.0000   1.0000   1.0000   1.0000   1.0000
     1.0000   1.0000   1.0000   1.0000   1.0000   1.0000   1.0000   1.0000
     1.0000   1.0000   1.0000   1.0000   1.0000   1.0000   1.0000   1.0000
     1.0000   1.0000   1.0000   1.0000   1.0000   1.0000   1.0000   1.0000
     1.0000   1.0000   1.0000   1.0000   1.0000   1.0000   1.0000   1.0000
     1.0000   1.0000   1.0000   1.0000   1.0000   1.0000   1.0000   1.0000
     1.0000   1.0000   1.0000   1.0000   1.0000   1.0000   1.0000   1.0000
     1.0000   1.0000   1.0000   1.0000   1.0000   1.0000   1.0000   1.0000
     1.0000   1.0000   1.0000   1.0000   1.0000   1.0000   1.0000   1.0000
     1.0000   1.0000   1.0000   1.0000   1.0000   1.0000   1.0000   1.0000
     1.0000   1.0000   1.0000   1.0000   1.0000   1.0000   1.0000   1.0000

          k = 0.1667 0.1921 0.2059 ( 29189 PWs)   bands (ev):

   -67.6829 -67.6806 -67.5684 -67.1997 -67.1073 -67.1003 -34.4623 -34.4466
   -34.4388 -34.4332 -34.4247 -34.4225 -34.3344 -34.3319 -34.3060 -33.9607
   -33.9551 -33.9528 -33.8864 -33.8801 -33.8699 -33.8504 -33.8435 -33.8247
   -23.2034 -23.1846 -15.1611 -15.1423 -14.3324 -14.3109 -13.8823 -13.8581
   -13.4110 -13.3424 -13.2969 -13.1919 -13.0810 -13.0312 -13.0270 -12.9528
   -12.8881 -12.7831 -12.6152 -12.5488 -12.4818 -12.4495 -12.3037 -12.1938
   -11.1702 -10.9356  -6.7719  -6.7565  -6.6952  -6.6859  -6.6629  -6.6547
    -4.2456  -4.1871  -2.6728  -2.6214  -1.8391  -1.4725  -1.4549  -1.3900
    -1.0305  -0.9578  -0.8881  -0.7176  -0.5883  -0.4701  -0.3654  -0.3123
    -0.1012  -0.0126   0.0566   0.2737   0.3410   0.4552   0.5156   0.6742
     0.9582   0.9962   1.1260   1.2705   1.2832   1.3591   1.4652   1.6035
     1.6789   1.7279   1.7892   1.9276   2.0609   2.1494   2.2311   2.2778
     2.3400   2.3767   2.4028   2.5069   2.5935   2.6765   2.7157   2.7559
     2.8442   2.9098   3.0111   3.0319   3.0925   3.1220   3.1800   3.2382
     3.2794   3.3650   3.4524   3.4862   3.5400   3.6041   3.6313   3.6830
     3.7097   3.7830   3.8188   3.9763   4.0191   4.1806   4.2658   4.4552

     occupation numbers 
     1.0000   1.0000   1.0000   1.0000   1.0000   1.0000   1.0000   1.0000
     1.0000   1.0000   1.0000   1.0000   1.0000   1.0000   1.0000   1.0000
     1.0000   1.0000   1.0000   1.0000   1.0000   1.0000   1.0000   1.0000
     1.0000   1.0000   1.0000   1.0000   1.0000   1.0000   1.0000   1.0000
     1.0000   1.0000   1.0000   1.0000   1.0000   1.0000   1.0000   1.0000
     1.0000   1.0000   1.0000   1.0000   1.0000   1.0000   1.0000   1.0000
     1.0000   1.0000   1.0000   1.0000   1.0000   1.0000   1.0000   1.0000
     1.0000   1.0000   1.0000   1.0000   1.0000   1.0000   1.0000   1.0000
     1.0000   1.0000   1.0000   1.0000   1.0000   1.0000   1.0000   1.0000
     1.0000   1.0000   1.0000   1.0000   1.0000   1.0000   1.0000   1.0000
     1.0000   1.0000   1.0000   1.0000   1.0000   1.0000   1.0000   1.0000
     1.0000   1.0000   1.0000   1.0000   1.0000   1.0000   1.0000   1.0000
     1.0000   1.0000   1.0000   1.0000   1.0000   1.0000   1.0000   1.0000
     1.0000   1.0000   1.0000   1.0000   1.0000   1.0000   1.0000   1.0000
     1.0000   1.0000   1.0000   1.0000   1.0000   1.0000   1.0000   1.0000
     1.0000   1.0000   1.0000   1.0000   1.0000   1.0000   1.0000   1.0000

          k = 0.1667 0.1921-0.1457 ( 29213 PWs)   bands (ev):

   -67.6829 -67.6806 -67.5684 -67.1997 -67.1073 -67.1003 -34.4624 -34.4466
   -34.4388 -34.4332 -34.4247 -34.4225 -34.3344 -34.3319 -34.3061 -33.9607
   -33.9552 -33.9528 -33.8864 -33.8801 -33.8699 -33.8505 -33.8435 -33.8247
   -23.2034 -23.1846 -15.1680 -15.1351 -14.3348 -14.3084 -13.8798 -13.8606
   -13.4140 -13.3417 -13.2918 -13.1969 -13.0775 -13.0360 -13.0241 -12.9548
   -12.8874 -12.7828 -12.6112 -12.5510 -12.4739 -12.4587 -12.3040 -12.1929
   -11.1700 -10.9356  -6.7720  -6.7566  -6.6952  -6.6859  -6.6629  -6.6547
    -4.2299  -4.2031  -2.6730  -2.6206  -1.8492  -1.4775  -1.4544  -1.3887
    -1.0079  -0.9840  -0.8551  -0.7297  -0.6130  -0.4318  -0.3729  -0.3075
    -0.1322  -0.0008   0.0413   0.3046   0.3639   0.4485   0.5701   0.6605
     0.9395   0.9646   1.1130   1.2391   1.2886   1.3831   1.4617   1.5680
     1.6872   1.7283   1.7863   1.9491   2.0429   2.1116   2.2190   2.2712
     2.3180   2.3831   2.4161   2.5347   2.6399   2.6650   2.6854   2.7839
     2.8674   2.9285   2.9933   3.0585   3.0848   3.1184   3.1983   3.2700
     3.3094   3.3551   3.4331   3.4909   3.5361   3.5959   3.6249   3.6686
     3.7183   3.7588   3.7886   3.9739   4.0420   4.1732   4.2649   4.4486

     occupation numbers 
     1.0000   1.0000   1.0000   1.0000   1.0000   1.0000   1.0000   1.0000
     1.0000   1.0000   1.0000   1.0000   1.0000   1.0000   1.0000   1.0000
     1.0000   1.0000   1.0000   1.0000   1.0000   1.0000   1.0000   1.0000
     1.0000   1.0000   1.0000   1.0000   1.0000   1.0000   1.0000   1.0000
     1.0000   1.0000   1.0000   1.0000   1.0000   1.0000   1.0000   1.0000
     1.0000   1.0000   1.0000   1.0000   1.0000   1.0000   1.0000   1.0000
     1.0000   1.0000   1.0000   1.0000   1.0000   1.0000   1.0000   1.0000
     1.0000   1.0000   1.0000   1.0000   1.0000   1.0000   1.0000   1.0000
     1.0000   1.0000   1.0000   1.0000   1.0000   1.0000   1.0000   1.0000
     1.0000   1.0000   1.0000   1.0000   1.0000   1.0000   1.0000   1.0000
     1.0000   1.0000   1.0000   1.0000   1.0000   1.0000   1.0000   1.0000
     1.0000   1.0000   1.0000   1.0000   1.0000   1.0000   1.0000   1.0000
     1.0000   1.0000   1.0000   1.0000   1.0000   1.0000   1.0000   1.0000
     1.0000   1.0000   1.0000   1.0000   1.0000   1.0000   1.0000   1.0000
     1.0000   1.0000   1.0000   1.0000   1.0000   1.0000   1.0000   1.0000
     1.0000   1.0000   1.0000   1.0000   1.0000   1.0000   1.0000   1.0000

          k = 0.3333 0.0000 0.0601 ( 29248 PWs)   bands (ev):

   -67.6827 -67.6808 -67.5684 -67.1996 -67.1072 -67.1004 -34.4607 -34.4500
   -34.4373 -34.4326 -34.4247 -34.4229 -34.3343 -34.3321 -34.3061 -33.9604
   -33.9556 -33.9528 -33.8876 -33.8771 -33.8713 -33.8490 -33.8447 -33.8256
   -23.2031 -23.1843 -15.0212 -14.9733 -14.4389 -14.4015 -14.0134 -13.9782
   -13.3720 -13.2749 -13.2110 -13.1777 -13.0662 -13.0560 -12.9851 -12.9547
   -12.8812 -12.7884 -12.6844 -12.6241 -12.5642 -12.4803 -12.2957 -12.1790
   -11.1657 -10.9454  -6.7745  -6.7618  -6.6923  -6.6843  -6.6623  -6.6476
    -3.8735  -3.8014  -2.6757  -2.5658  -1.9485  -1.8037  -1.5243  -1.3621
    -0.9874  -0.8707  -0.8452  -0.8147  -0.5020  -0.4286  -0.3403  -0.2538
    -0.1932   0.0152   0.1241   0.3055   0.3655   0.4941   0.5272   0.5970
     0.8935   0.9992   1.1186   1.1769   1.2891   1.3315   1.4507   1.4875
     1.5181   1.5708   1.6701   1.8712   1.9604   2.1860   2.2167   2.2722
     2.3245   2.4266   2.5409   2.5727   2.6345   2.6568   2.7255   2.7962
     2.8454   2.8686   2.9832   3.0453   3.0538   3.1016   3.1054   3.1522
     3.3339   3.3663   3.4400   3.4695   3.5060   3.5600   3.6200   3.6457
     3.6786   3.7318   3.8878   3.9118   3.9582   4.2370   4.3169   4.3454

     occupation numbers 
     1.0000   1.0000   1.0000   1.0000   1.0000   1.0000   1.0000   1.0000
     1.0000   1.0000   1.0000   1.0000   1.0000   1.0000   1.0000   1.0000
     1.0000   1.0000   1.0000   1.0000   1.0000   1.0000   1.0000   1.0000
     1.0000   1.0000   1.0000   1.0000   1.0000   1.0000   1.0000   1.0000
     1.0000   1.0000   1.0000   1.0000   1.0000   1.0000   1.0000   1.0000
     1.0000   1.0000   1.0000   1.0000   1.0000   1.0000   1.0000   1.0000
     1.0000   1.0000   1.0000   1.0000   1.0000   1.0000   1.0000   1.0000
     1.0000   1.0000   1.0000   1.0000   1.0000   1.0000   1.0000   1.0000
     1.0000   1.0000   1.0000   1.0000   1.0000   1.0000   1.0000   1.0000
     1.0000   1.0000   1.0000   1.0000   1.0000   1.0000   1.0000   1.0000
     1.0000   1.0000   1.0000   1.0000   1.0000   1.0000   1.0000   1.0000
     1.0000   1.0000   1.0000   1.0000   1.0000   1.0000   1.0000   1.0000
     1.0000   1.0000   1.0000   1.0000   1.0000   1.0000   1.0000   1.0000
     1.0000   1.0000   1.0000   1.0000   1.0000   1.0000   1.0000   1.0000
     1.0000   1.0000   1.0000   1.0000   1.0000   1.0000   1.0000   1.0000
     1.0000   1.0000   1.0000   1.0000   1.0000   1.0000   1.0000   1.0000

          k = 0.3333 0.0000 0.2360 ( 29246 PWs)   bands (ev):

   -67.6827 -67.6808 -67.5684 -67.1996 -67.1072 -67.1004 -34.4607 -34.4500
   -34.4373 -34.4326 -34.4247 -34.4229 -34.3343 -34.3321 -34.3062 -33.9604
   -33.9556 -33.9528 -33.8876 -33.8770 -33.8713 -33.8489 -33.8447 -33.8256
   -23.2031 -23.1843 -15.0037 -14.9917 -14.4370 -14.4035 -14.0073 -13.9846
   -13.3649 -13.2762 -13.2238 -13.1712 -13.0599 -13.0523 -13.0008 -12.9475
   -12.8796 -12.7914 -12.6769 -12.6353 -12.5490 -12.4909 -12.2860 -12.1878
   -11.1649 -10.9463  -6.7747  -6.7618  -6.6922  -6.6843  -6.6622  -6.6475
    -3.8748  -3.8003  -2.6492  -2.5958  -1.9197  -1.8406  -1.4956  -1.3526
    -0.9895  -0.8791  -0.8371  -0.8028  -0.4720  -0.4295  -0.3743  -0.3423
    -0.1374  -0.0342   0.1387   0.2660   0.3747   0.4709   0.5041   0.6560
     0.9422   1.0184   1.0833   1.1792   1.2205   1.3822   1.4688   1.5136
     1.5740   1.6001   1.6152   1.9246   2.0015   2.1464   2.2217   2.2671
     2.3031   2.3698   2.5254   2.6031   2.6408   2.6589   2.7183   2.7593
     2.8013   2.9067   2.9339   3.0344   3.0441   3.0870   3.1601   3.1979
     3.3431   3.3884   3.4344   3.4633   3.4980   3.5531   3.5755   3.6444
     3.7044   3.7476   3.8036   3.8975   4.0369   4.2163   4.3388   4.3593

     occupation numbers 
     1.0000   1.0000   1.0000   1.0000   1.0000   1.0000   1.0000   1.0000
     1.0000   1.0000   1.0000   1.0000   1.0000   1.0000   1.0000   1.0000
     1.0000   1.0000   1.0000   1.0000   1.0000   1.0000   1.0000   1.0000
     1.0000   1.0000   1.0000   1.0000   1.0000   1.0000   1.0000   1.0000
     1.0000   1.0000   1.0000   1.0000   1.0000   1.0000   1.0000   1.0000
     1.0000   1.0000   1.0000   1.0000   1.0000   1.0000   1.0000   1.0000
     1.0000   1.0000   1.0000   1.0000   1.0000   1.0000   1.0000   1.0000
     1.0000   1.0000   1.0000   1.0000   1.0000   1.0000   1.0000   1.0000
     1.0000   1.0000   1.0000   1.0000   1.0000   1.0000   1.0000   1.0000
     1.0000   1.0000   1.0000   1.0000   1.0000   1.0000   1.0000   1.0000
     1.0000   1.0000   1.0000   1.0000   1.0000   1.0000   1.0000   1.0000
     1.0000   1.0000   1.0000   1.0000   1.0000   1.0000   1.0000   1.0000
     1.0000   1.0000   1.0000   1.0000   1.0000   1.0000   1.0000   1.0000
     1.0000   1.0000   1.0000   1.0000   1.0000   1.0000   1.0000   1.0000
     1.0000   1.0000   1.0000   1.0000   1.0000   1.0000   1.0000   1.0000
     1.0000   1.0000   1.0000   1.0000   1.0000   1.0000   1.0000   1.0000

          k = 0.3333 0.0000-0.1157 ( 29244 PWs)   bands (ev):

   -67.6827 -67.6808 -67.5684 -67.1996 -67.1072 -67.1004 -34.4607 -34.4500
   -34.4373 -34.4326 -34.4247 -34.4229 -34.3343 -34.3321 -34.3061 -33.9604
   -33.9556 -33.9528 -33.8876 -33.8770 -33.8713 -33.8490 -33.8447 -33.8256
   -23.2031 -23.1843 -15.0160 -14.9789 -14.4314 -14.4094 -14.0084 -13.9834
   -13.3708 -13.2618 -13.2314 -13.1746 -13.0573 -13.0517 -13.0051 -12.9432
   -12.8797 -12.7930 -12.6730 -12.6403 -12.5444 -12.4942 -12.2871 -12.1863
   -11.1648 -10.9463  -6.7747  -6.7619  -6.6922  -6.6843  -6.6622  -6.6475
    -3.8408  -3.8351  -2.6641  -2.5796  -1.9335  -1.8212  -1.5181  -1.3561
    -0.9788  -0.8630  -0.8245  -0.8152  -0.5093  -0.4132  -0.3715  -0.3022
    -0.1954  -0.0149   0.1605   0.2685   0.3926   0.4651   0.5621   0.6109
     0.9385   0.9921   1.1015   1.1792   1.2598   1.3374   1.4614   1.5101
     1.5180   1.5770   1.6754   1.8863   1.9683   2.1431   2.2079   2.2515
     2.3030   2.4362   2.5770   2.5906   2.6037   2.6835   2.7010   2.7856
     2.8265   2.8688   2.9602   3.0138   3.0540   3.1342   3.1859   3.2310
     3.3415   3.3628   3.4374   3.4662   3.4943   3.5335   3.5500   3.6250
     3.6905   3.7377   3.8348   3.8782   4.0364   4.2272   4.3276   4.3611

     occupation numbers 
     1.0000   1.0000   1.0000   1.0000   1.0000   1.0000   1.0000   1.0000
     1.0000   1.0000   1.0000   1.0000   1.0000   1.0000   1.0000   1.0000
     1.0000   1.0000   1.0000   1.0000   1.0000   1.0000   1.0000   1.0000
     1.0000   1.0000   1.0000   1.0000   1.0000   1.0000   1.0000   1.0000
     1.0000   1.0000   1.0000   1.0000   1.0000   1.0000   1.0000   1.0000
     1.0000   1.0000   1.0000   1.0000   1.0000   1.0000   1.0000   1.0000
     1.0000   1.0000   1.0000   1.0000   1.0000   1.0000   1.0000   1.0000
     1.0000   1.0000   1.0000   1.0000   1.0000   1.0000   1.0000   1.0000
     1.0000   1.0000   1.0000   1.0000   1.0000   1.0000   1.0000   1.0000
     1.0000   1.0000   1.0000   1.0000   1.0000   1.0000   1.0000   1.0000
     1.0000   1.0000   1.0000   1.0000   1.0000   1.0000   1.0000   1.0000
     1.0000   1.0000   1.0000   1.0000   1.0000   1.0000   1.0000   1.0000
     1.0000   1.0000   1.0000   1.0000   1.0000   1.0000   1.0000   1.0000
     1.0000   1.0000   1.0000   1.0000   1.0000   1.0000   1.0000   1.0000
     1.0000   1.0000   1.0000   1.0000   1.0000   1.0000   1.0000   1.0000
     1.0000   1.0000   1.0000   1.0000   1.0000   1.0000   1.0000   1.0000

          k = 0.3333 0.1921 0.0601 ( 29237 PWs)   bands (ev):

   -67.6827 -67.6808 -67.5684 -67.1996 -67.1072 -67.1004 -34.4606 -34.4500
   -34.4373 -34.4326 -34.4247 -34.4229 -34.3342 -34.3321 -34.3061 -33.9604
   -33.9556 -33.9528 -33.8876 -33.8770 -33.8713 -33.8490 -33.8447 -33.8256
   -23.2031 -23.1843 -15.0177 -14.9696 -14.4502 -14.4113 -14.0100 -13.9771
   -13.3442 -13.2822 -13.1882 -13.1403 -13.0857 -13.0646 -13.0298 -12.9583
   -12.8908 -12.7901 -12.6773 -12.6098 -12.5646 -12.4868 -12.2943 -12.1787
   -11.1652 -10.9453  -6.7735  -6.7639  -6.6925  -6.6835  -6.6621  -6.6477
    -3.8509  -3.7791  -2.7791  -2.6781  -1.8643  -1.6960  -1.4736  -1.3852
    -1.0004  -0.8994  -0.8540  -0.7664  -0.5027  -0.3796  -0.3268  -0.2274
    -0.1670  -0.0292   0.1048   0.2913   0.3712   0.4695   0.5044   0.5485
     0.8589   0.9274   1.1709   1.2195   1.2758   1.3455   1.4037   1.4848
     1.5197   1.5827   1.6811   1.8141   2.0186   2.1659   2.2226   2.2718
     2.3204   2.4249   2.5089   2.5790   2.6439   2.7036   2.7660   2.8231
     2.8532   2.9389   2.9860   3.0208   3.0999   3.1198   3.1874   3.2121
     3.2771   3.3333   3.3667   3.4566   3.4752   3.5168   3.5824   3.6211
     3.7187   3.7616   3.8583   3.9271   3.9600   4.2048   4.2759   4.3394

     occupation numbers 
     1.0000   1.0000   1.0000   1.0000   1.0000   1.0000   1.0000   1.0000
     1.0000   1.0000   1.0000   1.0000   1.0000   1.0000   1.0000   1.0000
     1.0000   1.0000   1.0000   1.0000   1.0000   1.0000   1.0000   1.0000
     1.0000   1.0000   1.0000   1.0000   1.0000   1.0000   1.0000   1.0000
     1.0000   1.0000   1.0000   1.0000   1.0000   1.0000   1.0000   1.0000
     1.0000   1.0000   1.0000   1.0000   1.0000   1.0000   1.0000   1.0000
     1.0000   1.0000   1.0000   1.0000   1.0000   1.0000   1.0000   1.0000
     1.0000   1.0000   1.0000   1.0000   1.0000   1.0000   1.0000   1.0000
     1.0000   1.0000   1.0000   1.0000   1.0000   1.0000   1.0000   1.0000
     1.0000   1.0000   1.0000   1.0000   1.0000   1.0000   1.0000   1.0000
     1.0000   1.0000   1.0000   1.0000   1.0000   1.0000   1.0000   1.0000
     1.0000   1.0000   1.0000   1.0000   1.0000   1.0000   1.0000   1.0000
     1.0000   1.0000   1.0000   1.0000   1.0000   1.0000   1.0000   1.0000
     1.0000   1.0000   1.0000   1.0000   1.0000   1.0000   1.0000   1.0000
     1.0000   1.0000   1.0000   1.0000   1.0000   1.0000   1.0000   1.0000
     1.0000   1.0000   1.0000   1.0000   1.0000   1.0000   1.0000   1.0000

          k = 0.3333 0.1921 0.2360 ( 29239 PWs)   bands (ev):

   -67.6827 -67.6808 -67.5684 -67.1996 -67.1072 -67.1004 -34.4607 -34.4500
   -34.4373 -34.4326 -34.4247 -34.4229 -34.3342 -34.3321 -34.3061 -33.9604
   -33.9556 -33.9528 -33.8876 -33.8770 -33.8713 -33.8489 -33.8447 -33.8256
   -23.2031 -23.1843 -15.0005 -14.9877 -14.4465 -14.4151 -14.0043 -13.9832
   -13.3400 -13.2744 -13.2075 -13.1320 -13.0865 -13.0608 -13.0350 -12.9542
   -12.8894 -12.7940 -12.6688 -12.6253 -12.5494 -12.4953 -12.2847 -12.1872
   -11.1645 -10.9462  -6.7736  -6.7640  -6.6924  -6.6835  -6.6620  -6.6476
    -3.8495  -3.7804  -2.7457  -2.7150  -1.8447  -1.7231  -1.4483  -1.3742
    -0.9944  -0.9257  -0.8045  -0.7848  -0.4741  -0.4316  -0.3378  -0.2563
    -0.1430  -0.0716   0.1409   0.2438   0.3559   0.4446   0.4957   0.5969
     0.8553   0.9573   1.1521   1.2075   1.2947   1.3375   1.4569   1.4978
     1.5584   1.6345   1.6611   1.8144   2.0509   2.1164   2.2352   2.2635
     2.2934   2.4310   2.4829   2.5949   2.6480   2.6696   2.7384   2.7942
     2.8545   2.9168   2.9882   3.0373   3.0723   3.1222   3.1898   3.2458
     3.2847   3.3699   3.4026   3.4476   3.4665   3.5148   3.5469   3.6030
     3.7387   3.7833   3.8135   3.8800   4.0310   4.1774   4.2891   4.3618

     occupation numbers 
     1.0000   1.0000   1.0000   1.0000   1.0000   1.0000   1.0000   1.0000
     1.0000   1.0000   1.0000   1.0000   1.0000   1.0000   1.0000   1.0000
[...]
     atom   16 type  1   force =     0.00063788   -0.00218703    0.01062155
     atom   17 type  5   force =    -0.00016776    0.00021937    0.00644476
     atom   18 type  5   force =     0.00016775    0.00021937   -0.00644476
     atom   19 type  5   force =    -0.00011220    0.00006599   -0.00697305
     atom   20 type  5   force =     0.00011220    0.00006599    0.00697305
     atom   21 type  5   force =     0.00008702   -0.00019754    0.00684208
     atom   22 type  5   force =    -0.00008702   -0.00019754   -0.00684208
     atom   23 type  5   force =     0.00008080    0.00005532   -0.00319786
     atom   24 type  5   force =    -0.00008080    0.00005532    0.00319786
     atom   25 type  5   force =     0.00470421   -0.00198277   -0.00578944
     atom   26 type  5   force =    -0.00470422   -0.00198276    0.00578941
     atom   27 type  5   force =    -0.00370642    0.00082632   -0.00709302
     atom   28 type  5   force =     0.00370643    0.00082632    0.00709301
     atom   29 type  5   force =    -0.00174388    0.00252262    0.00727437
     atom   30 type  5   force =     0.00174388    0.00252262   -0.00727437
     atom   31 type  5   force =     0.00101314   -0.00238843   -0.00745296
     atom   32 type  5   force =    -0.00101314   -0.00238843    0.00745296
     atom   33 type  5   force =    -0.00266538   -0.00348813   -0.00652159
     atom   34 type  5   force =     0.00266536   -0.00348813    0.00652161
     atom   35 type  5   force =     0.00096394    0.00433427    0.00643744
     atom   36 type  5   force =    -0.00096393    0.00433427   -0.00643744
     atom   37 type  5   force =    -0.00000872    0.00072135    0.01125807
     atom   38 type  5   force =     0.00000873    0.00072134   -0.01125807
     atom   39 type  5   force =     0.00011872   -0.00158651    0.01097590
     atom   40 type  5   force =    -0.00011872   -0.00158650   -0.01097587
     atom   41 type  2   force =     0.00000000    0.00000000    0.00000000
     atom   42 type  2   force =     0.00000000    0.00000000    0.00000000
     atom   43 type  2   force =     0.00000000    0.00000000    0.00000000
     atom   44 type  2   force =     0.00000000    0.00000000    0.00000000
     The Hubbard contrib.    to forces
     atom    1 type  3   force =     0.00000000    0.00000000    0.00000000
     atom    2 type  3   force =     0.00000000    0.00000000    0.00000000
     atom    3 type  4   force =     0.00000000    0.00000000    0.00000000
     atom    4 type  4   force =     0.00000000    0.00000000    0.00000000
     atom    5 type  4   force =     0.00000000    0.00000000    0.00000000
     atom    6 type  4   force =     0.00000000    0.00000000    0.00000000
     atom    7 type  4   force =     0.00000000    0.00000000    0.00000000
     atom    8 type  4   force =     0.00000000    0.00000000    0.00000000
     atom    9 type  6   force =     0.00000000    0.00000000    0.00000000
     atom   10 type  6   force =     0.00000000    0.00000000    0.00000000
     atom   11 type  6   force =     0.00000000    0.00000000    0.00000000
     atom   12 type  6   force =     0.00000000    0.00000000    0.00000000
     atom   13 type  6   force =     0.00000000    0.00000000    0.00000000
     atom   14 type  6   force =     0.00000000    0.00000000    0.00000000
     atom   15 type  1   force =     0.00000000    0.00000000    0.00000000
     atom   16 type  1   force =     0.00000000    0.00000000    0.00000000
     atom   17 type  5   force =     0.00000000    0.00000000    0.00000000
     atom   18 type  5   force =     0.00000000    0.00000000    0.00000000
     atom   19 type  5   force =     0.00000000    0.00000000    0.00000000
     atom   20 type  5   force =     0.00000000    0.00000000    0.00000000
     atom   21 type  5   force =     0.00000000    0.00000000    0.00000000
     atom   22 type  5   force =     0.00000000    0.00000000    0.00000000
     atom   23 type  5   force =     0.00000000    0.00000000    0.00000000
     atom   24 type  5   force =     0.00000000    0.00000000    0.00000000
     atom   25 type  5   force =     0.00000000    0.00000000    0.00000000
     atom   26 type  5   force =     0.00000000    0.00000000    0.00000000
     atom   27 type  5   force =     0.00000000    0.00000000    0.00000000
     atom   28 type  5   force =     0.00000000    0.00000000    0.00000000
     atom   29 type  5   force =     0.00000000    0.00000000    0.00000000
     atom   30 type  5   force =     0.00000000    0.00000000    0.00000000
     atom   31 type  5   force =     0.00000000    0.00000000    0.00000000
     atom   32 type  5   force =     0.00000000    0.00000000    0.00000000
     atom   33 type  5   force =     0.00000000    0.00000000    0.00000000
     atom   34 type  5   force =     0.00000000    0.00000000    0.00000000
     atom   35 type  5   force =     0.00000000    0.00000000    0.00000000
     atom   36 type  5   force =     0.00000000    0.00000000    0.00000000
     atom   37 type  5   force =     0.00000000    0.00000000    0.00000000
     atom   38 type  5   force =     0.00000000    0.00000000    0.00000000
     atom   39 type  5   force =     0.00000000    0.00000000    0.00000000
     atom   40 type  5   force =     0.00000000    0.00000000    0.00000000
     atom   41 type  2   force =     0.00000000    0.00000000    0.00000000
     atom   42 type  2   force =     0.00000000    0.00000000    0.00000000
     atom   43 type  2   force =     0.00000000    0.00000000    0.00000000
     atom   44 type  2   force =     0.00000000    0.00000000    0.00000000
     The SCF correction term to forces
     atom    1 type  3   force =     0.00000000   -0.00000091    0.00000000
     atom    2 type  3   force =    -0.00000000    0.00000275   -0.00000000
     atom    3 type  4   force =     0.00000000   -0.00000024    0.00000000
     atom    4 type  4   force =    -0.00000000   -0.00000769    0.00000000
     atom    5 type  4   force =    -0.00000000    0.00000909   -0.00000000
     atom    6 type  4   force =     0.00000000    0.00000254    0.00000000
     atom    7 type  4   force =    -0.00000000    0.00000310    0.00000000
     atom    8 type  4   force =     0.00000000   -0.00000247    0.00000000
     atom    9 type  6   force =     0.00000120    0.00000093   -0.00000166
     atom   10 type  6   force =    -0.00000120    0.00000093    0.00000166
     atom   11 type  6   force =     0.00000028   -0.00000028   -0.00000017
     atom   12 type  6   force =    -0.00000028   -0.00000028    0.00000017
     atom   13 type  6   force =     0.00000034   -0.00000119   -0.00000102
     atom   14 type  6   force =    -0.00000034   -0.00000119    0.00000102
     atom   15 type  1   force =     0.00000068   -0.00000011    0.00000146
     atom   16 type  1   force =    -0.00000068   -0.00000011   -0.00000146
     atom   17 type  5   force =     0.00000013   -0.00000039    0.00000219
     atom   18 type  5   force =    -0.00000013   -0.00000039   -0.00000219
     atom   19 type  5   force =     0.00000017    0.00000198    0.00000015
     atom   20 type  5   force =    -0.00000017    0.00000198   -0.00000015
     atom   21 type  5   force =    -0.00000208    0.00000103    0.00000103
     atom   22 type  5   force =     0.00000208    0.00000103   -0.00000103
     atom   23 type  5   force =     0.00000113   -0.00000179    0.00000195
     atom   24 type  5   force =    -0.00000113   -0.00000179   -0.00000195
     atom   25 type  5   force =    -0.00000211    0.00000220   -0.00000251
     atom   26 type  5   force =     0.00000211    0.00000220    0.00000251
     atom   27 type  5   force =     0.00000124    0.00000028   -0.00000343
     atom   28 type  5   force =    -0.00000124    0.00000028    0.00000343
     atom   29 type  5   force =     0.00000056    0.00000254    0.00000121
     atom   30 type  5   force =    -0.00000056    0.00000254   -0.00000121
     atom   31 type  5   force =     0.00000380   -0.00000314   -0.00000155
     atom   32 type  5   force =    -0.00000380   -0.00000314    0.00000155
     atom   33 type  5   force =    -0.00000080    0.00000014   -0.00000356
     atom   34 type  5   force =     0.00000080    0.00000014    0.00000356
     atom   35 type  5   force =    -0.00000068   -0.00000079    0.00000386
     atom   36 type  5   force =     0.00000068   -0.00000079   -0.00000386
     atom   37 type  5   force =     0.00000221   -0.00000176   -0.00000621
     atom   38 type  5   force =    -0.00000221   -0.00000176    0.00000621
     atom   39 type  5   force =     0.00000099   -0.00000110    0.00000130
     atom   40 type  5   force =    -0.00000099   -0.00000110   -0.00000130
     atom   41 type  2   force =     0.00000020   -0.00000019   -0.00000134
     atom   42 type  2   force =    -0.00000020   -0.00000019    0.00000134
     atom   43 type  2   force =    -0.00000001   -0.00000002    0.00000000
     atom   44 type  2   force =     0.00000001   -0.00000002   -0.00000000

     DFT-D3 dispersion contribution to forces:
     atom    1 type  3   force =    -0.00000000    0.00053427    0.00000000
     atom    2 type  3   force =     0.00000000   -0.00030167    0.00000000
     atom    3 type  4   force =     0.00000000    0.00029294   -0.00000000
     atom    4 type  4   force =     0.00000000    0.00072154   -0.00000000
     atom    5 type  4   force =    -0.00000000   -0.00112951   -0.00000000
     atom    6 type  4   force =     0.00000000   -0.00061112    0.00000000
     atom    7 type  4   force =    -0.00000000    0.00113236    0.00000000
     atom    8 type  4   force =     0.00000000   -0.00020593   -0.00000000
     atom    9 type  6   force =     0.00005156   -0.00007841   -0.00029910
     atom   10 type  6   force =    -0.00005156   -0.00007841    0.00029910
     atom   11 type  6   force =     0.00005915    0.00006690    0.00024502
     atom   12 type  6   force =    -0.00005915    0.00006690   -0.00024502
     atom   13 type  6   force =    -0.00004407    0.00015871   -0.00022542
     atom   14 type  6   force =     0.00004407    0.00015871    0.00022542
     atom   15 type  1   force =     0.00003437    0.00005159   -0.00108617
     atom   16 type  1   force =    -0.00003437    0.00005159    0.00108617
     atom   17 type  5   force =    -0.00000498    0.00004684    0.00044787
     atom   18 type  5   force =     0.00000498    0.00004684   -0.00044788
     atom   19 type  5   force =    -0.00000218    0.00001235   -0.00034758
     atom   20 type  5   force =     0.00000218    0.00001235    0.00034758
     atom   21 type  5   force =    -0.00001341   -0.00005510    0.00037253
     atom   22 type  5   force =     0.00001341   -0.00005510   -0.00037253
     atom   23 type  5   force =    -0.00002143   -0.00001473    0.00009312
     atom   24 type  5   force =     0.00002143   -0.00001473   -0.00009312
     atom   25 type  5   force =    -0.00018353    0.00101638    0.00012456
     atom   26 type  5   force =     0.00018353    0.00101638   -0.00012456
     atom   27 type  5   force =     0.00080581    0.00007591    0.00017081
     atom   28 type  5   force =    -0.00080581    0.00007591   -0.00017080
     atom   29 type  5   force =     0.00043265   -0.00063208   -0.00015203
     atom   30 type  5   force =    -0.00043265   -0.00063208    0.00015203
     atom   31 type  5   force =    -0.00027669    0.00043566    0.00018317
     atom   32 type  5   force =     0.00027669    0.00043566   -0.00018317
     atom   33 type  5   force =     0.00087896   -0.00042679    0.00037995
     atom   34 type  5   force =    -0.00087896   -0.00042679   -0.00037995
     atom   35 type  5   force =     0.00063714   -0.00051994   -0.00032845
     atom   36 type  5   force =    -0.00063714   -0.00051994    0.00032845
     atom   37 type  5   force =    -0.00001675   -0.00005249   -0.00050146
     atom   38 type  5   force =     0.00001675   -0.00005249    0.00050146
     atom   39 type  5   force =     0.00001193    0.00004815   -0.00053123
     atom   40 type  5   force =    -0.00001193    0.00004815    0.00053123
     atom   41 type  2   force =     0.00001214    0.00012776   -0.00030052
     atom   42 type  2   force =    -0.00001214    0.00012776    0.00030052
     atom   43 type  2   force =     0.00010249   -0.00047714   -0.00025782
     atom   44 type  2   force =    -0.00010249   -0.00047714    0.00025782

     Total force =     0.001909     Total SCF correction =     0.000023

     DFT-D3 dispersion Force =     0.004334
     Energy error            =      6.7E-06 Ry
     Gradient error          =      4.3E-04 Ry/Bohr

     bfgs converged in  17 scf cycles and  16 bfgs steps
     (criteria: energy <  1.0E-05 Ry, force <  5.0E-04 Ry/Bohr)

     End of BFGS Geometry Optimization

     Final energy             =   -2443.7162081724 Ry

     File ./temp/phl-fe0-dftd3.bfgs deleted, as requested
Begin final coordinates

ATOMIC_POSITIONS (crystal)
K                0.0000000000        0.4941137688        0.0000000000
K                0.5000000000        0.0023605060        0.0000000000
Mg              -0.0000000000        0.0043993711        0.5000000000
Mg              -0.0000000000        0.3333224399        0.5000000000
Mg              -0.0000000000        0.6653312841        0.5000000000
Mg               0.5000000000        0.4929817611        0.5000000000
Mg               0.5000000000        0.8347745120        0.5000000000
Mg               0.5000000000        0.1723499624        0.5000000000
Si               0.0839851963        0.1650783316        0.2221111388
Si               0.9160147897        0.1650783316        0.7778888912
Si               0.9354743662        0.8343248611        0.7714397986
Si               0.0645256338        0.8343248611        0.2285602014
Si               0.5631324965        0.6664053002        0.2264981074
Si               0.4368675035        0.6664053002        0.7735018776
Al               0.4148704893        0.3309372309        0.7761827627
Al               0.5851295107        0.3309372309        0.2238172373
O                0.1275208216        0.1638019091        0.3845239750
O                0.8724791484        0.1638019091        0.6154760540
O                0.8750814258        0.8332179162        0.6103943177
O                0.1249185742        0.8332179162        0.3896056823
O                0.6248676998        0.6690923006        0.3882391919
O                0.3751323002        0.6690923006        0.6117608081
O                0.3611099265        0.3328971734        0.6039942394
O                0.6388900735        0.3328971734        0.3960057606
O                0.3446805697        0.2014268262        0.1649026644
O                0.6553194303        0.2014268262        0.8350973056
O                0.9942700364        0.9973046511        0.1672812994
O                0.0057299636        0.9973046511        0.8327186856
O                0.6838375128        0.7752915361        0.8313451507
O                0.3161624872        0.7752915361        0.1686548493
O                0.8149600163        0.7316529748        0.1677111335
O                0.1850399837        0.7316529748        0.8322888665
O                0.4948280126        0.5076850681        0.1616252697
O                0.5051719574        0.5076850681        0.8383747453
O                0.1413001875        0.2777306608        0.8412512695
O                0.8586998275        0.2777306608        0.1587487305
O                0.1305324713        0.5041354097        0.3941318788
O                0.8694675437        0.5041354097        0.6058681212
O                0.6325219990        0.9994565880        0.3975590587
O                0.3674780010        0.9994565880        0.6024409113
H                0.0992806369        0.4941553029        0.2985073483
H                0.9007193931        0.4941553029        0.7014926517
H                0.5946079973        0.0155866830        0.3025603303
H                0.4053920027        0.0155866830        0.6974396697
End final coordinates



     Writing all to output data dir ./temp/phl-fe0-dftd3.save/ :
     XML data file, charge density, pseudopotentials, collected wavefunctions

     init_run     :     98.53s CPU     99.53s WALL (       1 calls)
     electrons    :  75364.79s CPU  75936.08s WALL (      17 calls)
     update_pot   :     21.44s CPU     21.57s WALL (      16 calls)
     forces       :   1017.80s CPU   1027.02s WALL (      17 calls)
     force_dftd3  :     72.11s CPU     72.25s WALL (      17 calls)

     Called by init_run:
     wfcinit      :     92.11s CPU     92.63s WALL (       1 calls)
     wfcinit:atom :      0.14s CPU      0.14s WALL (      20 calls)
     wfcinit:wfcr :     90.80s CPU     91.31s WALL (      20 calls)
     potinit      :      1.60s CPU      1.63s WALL (       1 calls)
     hinit0       :      1.10s CPU      1.12s WALL (       1 calls)

     Called by electrons:
     c_bands      :  70193.79s CPU  70524.76s WALL (     215 calls)
     sum_band     :   4382.42s CPU   4538.03s WALL (     215 calls)
     v_of_rho     :     40.23s CPU     41.64s WALL (     218 calls)
     v_h          :      2.88s CPU      3.06s WALL (     218 calls)
     v_xc         :     40.31s CPU     41.64s WALL (     235 calls)
     newd         :    520.02s CPU    609.49s WALL (     218 calls)
     PAW_pot      :    240.34s CPU    240.41s WALL (     234 calls)
     mix_rho      :      6.22s CPU      6.50s WALL (     215 calls)
     energy_dftd3 :     56.02s CPU     56.04s WALL (      17 calls)

     Called by c_bands:
     init_us_2    :    168.68s CPU    168.94s WALL (    9280 calls)
     cegterg      :  69858.31s CPU  70188.77s WALL (    4302 calls)

     Called by sum_band:
     sum_band:wei :      0.01s CPU      0.00s WALL (     215 calls)
     sum_band:loo :   3680.13s CPU   3728.16s WALL (     215 calls)
     sum_band:buf :     17.19s CPU     17.25s WALL (    4300 calls)
     sum_band:ini :     78.08s CPU     78.18s WALL (    4300 calls)
     sum_band:cal :   2803.57s CPU   2805.74s WALL (    4620 calls)
     sum_band:bec :      6.13s CPU      6.15s WALL (    4620 calls)
     addusdens    :    694.70s CPU    801.77s WALL (     215 calls)
                                        0.00s GPU  (     215 calls)
     addusd:skk   :      5.56s CPU      8.77s WALL (    1290 calls)
                                        0.00s GPU  (    1290 calls)

     Called by *egterg:
     cdiaghg      :   2203.77s CPU   2204.20s WALL (   33263 calls)
     cegterg:over :   8539.30s CPU   8549.07s WALL (   29561 calls)
     cegterg:upda :   5118.50s CPU   5125.77s WALL (   29561 calls)
     cegterg:last :  14298.03s CPU  14302.26s WALL (   17171 calls)
     h_psi        :  27222.04s CPU  27504.61s WALL (   33883 calls)
     s_psi        :  10718.43s CPU  10721.75s WALL (   33883 calls)
     g_psi        :     58.57s CPU     58.70s WALL (   29561 calls)

     Called by h_psi:
     h_psi:calbec :  10554.83s CPU  10564.39s WALL (   33883 calls)
     vloc_psi     :   5876.06s CPU   6137.72s WALL (   33883 calls)
     add_vuspsi   :  10724.86s CPU  10728.24s WALL (   33883 calls)

     General routines
     calbec       :  14184.00s CPU  14196.48s WALL (   39863 calls)
     fft          :     24.67s CPU     26.97s WALL (    3017 calls)
     ffts         :      0.79s CPU      0.87s WALL (     433 calls)
     fftw         :   4952.21s CPU   5138.66s WALL ( 5047036 calls)
     interpolate  :      2.76s CPU      2.96s WALL (     218 calls)

     Parallel routines

     PAW routines
     PAW_pot      :    240.34s CPU    240.41s WALL (     234 calls)
     PAW_symme    :      0.12s CPU      0.12s WALL (     449 calls)

     PWSCF        :     21h19m CPU     21h29m WALL


   This run was terminated on:   8:40:49  22May2025            

=------------------------------------------------------------------------------=
   JOB DONE.
=------------------------------------------------------------------------------=
