
     Program PWSCF v.7.3.1 starts on 28Nov2025 at 18:53: 8 

     This program is part of the open-source Quantum ESPRESSO suite
     for quantum simulation of materials; please cite
         "P. Giannozzi et al., J. Phys.:Condens. Matter 21 395502 (2009);
         "P. Giannozzi et al., J. Phys.:Condens. Matter 29 465901 (2017);
         "P. Giannozzi et al., J. Chem. Phys. 152 154105 (2020);
          URL http://www.quantum-espresso.org", 
     in publications or presentations arising from this work. More details at
     http://www.quantum-espresso.org/quote

     Parallel version (MPI), running on    14 processors

     MPI processes distributed on     1 nodes
     22739 MiB available memory on the printing compute node when the environment starts

     Reading input from relax.in

     Current dimensions of program PWSCF are:
     Max number of different atomic species (ntypx) = 10
     Max number of k-points (npk) =  40000
     Max angular momentum in pseudopotentials (lmaxx) =  4
     file Al.pbe-n-kjpaw_psl.1.0.0.UPF: wavefunction(s)  3S 3P renormalized
     file H.pbe-kjpaw_psl.1.0.0.UPF: wavefunction(s)  1S renormalized
     file K.pbe-spn-kjpaw_psl.1.0.0.UPF: wavefunction(s)  3S renormalized
     file Mg.pbe-spnl-kjpaw_psl.1.0.0.UPF: wavefunction(s)  2P renormalized
     file O.pbe-n-kjpaw_psl.1.0.0.UPF: wavefunction(s)  2S 2P renormalized
     file Si.pbe-n-kjpaw_psl.1.0.0.UPF: wavefunction(s)  3S 3P renormalized

     R & G space division:  proc/nbgrp/npool/nimage =      14
     Subspace diagonalization in iterative solution of the eigenvalue problem:
     a serial algorithm will be used


     Parallelization info
     --------------------
     sticks:   dense  smooth     PW     G-vecs:    dense   smooth      PW
     Min         553     277     74                52810    18675    2627
     Max         554     278     75                52816    18679    2628
     Sum        7753    3889   1047               739393   261477   36787

     Using Slab Decomposition



     bravais-lattice index     =          -12
     lattice parameter (alat)  =      10.0136  a.u.
     unit-cell volume          =    3303.4414 (a.u.)^3
     number of atoms/cell      =           44
     number of atomic types    =            6
     number of electrons       =       256.00
     number of Kohn-Sham states=          128
     kinetic-energy cutoff     =      70.0000  Ry
     charge density cutoff     =     560.0000  Ry
     scf convergence threshold =      1.0E-08
     mixing beta               =       0.7000
     number of iterations used =            8  plain     mixing
     energy convergence thresh.=      1.0E-05
     force convergence thresh. =      1.0E-04
     Exchange-correlation= SLA  PW   PBX  PBC
                           (   1   4   3   4   0   0   0)
     nstep                     =          100


     celldm(1)=  10.013640  celldm(2)=   1.735306  celldm(3)=   1.926511
     celldm(4)=   0.000000  celldm(5)=  -0.177565  celldm(6)=   0.000000

     crystal axes: (cart. coord. in units of alat)
               a(1) = (   1.000000   0.000000   0.000000 )  
               a(2) = (   0.000000   1.735306   0.000000 )  
               a(3) = (  -0.342081   0.000000   1.895896 )  

     reciprocal axes: (cart. coord. in units 2 pi/alat)
               b(1) = (  1.000000 -0.000000  0.180432 )  
               b(2) = (  0.000000  0.576267 -0.000000 )  
               b(3) = (  0.000000  0.000000  0.527455 )  


     PseudoPot. # 1 for Al read from file:
     ./../../pseudos/Al.pbe-n-kjpaw_psl.1.0.0.UPF
     MD5 check sum: 502b6b27b9c6270cab5dd1084b96fa6d
     Pseudo is Projector augmented-wave + core cor, Zval =  3.0
     Generated using &quot;atomic&quot; code by A. Dal Corso  v.6.3
     Shape of augmentation charge: PSQ
     Using radial grid of 1135 points,  6 beta functions with: 
                l(1) =   0
                l(2) =   0
                l(3) =   1
                l(4) =   1
                l(5) =   2
                l(6) =   2
     Q(r) pseudized with 0 coefficients 


     PseudoPot. # 2 for H  read from file:
     ./../../pseudos/H.pbe-kjpaw_psl.1.0.0.UPF
     MD5 check sum: d81a744832360e4a8af0b0b5b123bc2a
     Pseudo is Projector augmented-wave, Zval =  1.0
     Generated using &quot;atomic&quot; code by A. Dal Corso  v.6.3MaX
     Shape of augmentation charge: PSQ
     Using radial grid of  929 points,  2 beta functions with: 
                l(1) =   0
                l(2) =   0
     Q(r) pseudized with 0 coefficients 


     PseudoPot. # 3 for K  read from file:
     ./../../pseudos/K.pbe-spn-kjpaw_psl.1.0.0.UPF
     MD5 check sum: 34cc42130a09071ebe376fd42eb21491
     Pseudo is Projector augmented-wave + core cor, Zval =  9.0
     Generated using &quot;atomic&quot; code by A. Dal Corso  v.6.2.2
     Shape of augmentation charge: PSQ
     Using radial grid of 1165 points,  6 beta functions with: 
                l(1) =   0
                l(2) =   0
                l(3) =   1
                l(4) =   1
                l(5) =   2
                l(6) =   2
     Q(r) pseudized with 0 coefficients 


     PseudoPot. # 4 for Mg read from file:
     ./../../pseudos/Mg.pbe-spnl-kjpaw_psl.1.0.0.UPF
     MD5 check sum: fda14e0d92a6a9a5ebed782e5a4b3067
     Pseudo is Projector augmented-wave + core cor, Zval = 10.0
     Generated using &quot;atomic&quot; code by A. Dal Corso  v.6.3
     Shape of augmentation charge: PSQ
     Using radial grid of 1129 points,  4 beta functions with: 
                l(1) =   0
                l(2) =   0
                l(3) =   1
                l(4) =   1
     Q(r) pseudized with 0 coefficients 


     PseudoPot. # 5 for O  read from file:
     ./../../pseudos/O.pbe-n-kjpaw_psl.1.0.0.UPF
     MD5 check sum: e99d9cef9b487d1ca56f5b95ecd0fd7a
     Pseudo is Projector augmented-wave + core cor, Zval =  6.0
     Generated using &quot;atomic&quot; code by A. Dal Corso  v.6.3
     Shape of augmentation charge: PSQ
     Using radial grid of 1095 points,  4 beta functions with: 
                l(1) =   0
                l(2) =   0
                l(3) =   1
                l(4) =   1
     Q(r) pseudized with 0 coefficients 


     PseudoPot. # 6 for Si read from file:
     ./../../pseudos/Si.pbe-n-kjpaw_psl.1.0.0.UPF
     MD5 check sum: c39c59da582df4a0d9f10159256ea34e
     Pseudo is Projector augmented-wave + core cor, Zval =  4.0
     Generated using &quot;atomic&quot; code by A. Dal Corso  v.6.3
     Shape of augmentation charge: PSQ
     Using radial grid of 1141 points,  6 beta functions with: 
                l(1) =   0
                l(2) =   0
                l(3) =   1
                l(4) =   1
                l(5) =   2
                l(6) =   2
     Q(r) pseudized with 0 coefficients 


     atomic species   valence    mass     pseudopotential
     Al                3.00    26.98154     Al( 1.00)
     H                 1.00     1.00794     H ( 1.00)
     K                 9.00    39.09830     K ( 1.00)
     Mg               10.00    24.30500     Mg( 1.00)
     O                 6.00    15.99940     O ( 1.00)
     Si                4.00    28.08550     Si( 1.00)

      2 Sym. Ops. (no inversion) found


                                    s                        frac. trans.

      isym =  1     identity                                     

 cryst.   s( 1) = (     1          0          0      )
                  (     0          1          0      )
                  (     0          0          1      )

 cart.    s( 1) = (  1.0000000  0.0000000 -0.0000000 )
                  (  0.0000000  1.0000000  0.0000000 )
                  (  0.0000000  0.0000000  1.0000000 )


      isym =  2     180 deg rotation - cart. axis [0,1,0]        

 cryst.   s( 2) = (    -1          0          0      )
                  (     0          1          0      )
                  (     0          0         -1      )

 cart.    s( 2) = ( -1.0000000  0.0000000  0.0000000 )
                  (  0.0000000  1.0000000  0.0000000 )
                  (  0.0000000  0.0000000 -1.0000000 )


     point group C_2  (2)   
     there are  2 classes
     the character table:

       E     C2   
A      1.00  1.00
B      1.00 -1.00

     the symmetry operations in each class and the name of the first element:

     E        1
          identity                                               
     C2       2
          180 deg rotation - cart. axis [0,1,0]                  

   Cartesian axes

     site n.     atom                  positions (alat units)
         1        K      tau(   1) = (   0.0000000   0.8559224   0.0000000  )
         2        K      tau(   2) = (   0.5000000   0.0093568   0.0000000  )
         3        Mg     tau(   3) = (  -0.1710407   0.0067712   0.9479482  )
         4        Mg     tau(   4) = (  -0.1710407   0.5780843   0.9479482  )
         5        Mg     tau(   5) = (  -0.1710407   1.1543881   0.9479482  )
         6        Mg     tau(   6) = (   0.3289593   0.8562226   0.9479482  )
         7        Mg     tau(   7) = (   0.3289593   1.4480089   0.9479482  )
         8        Mg     tau(   8) = (   0.3289593   0.2986375   0.9479482  )
         9        Si     tau(   9) = (   0.0066674   0.2865251   0.4219393  )
        10        Si     tau(  10) = (   0.6512512   0.2865251   1.4739571  )
        11        Si     tau(  11) = (   0.6701371   1.4476688   1.4628623  )
        12        Si     tau(  12) = (  -0.0122184   1.4476688   0.4330341  )
        13        Si     tau(  13) = (   0.4872056   1.1568454   0.4292651  )
        14        Si     tau(  14) = (   0.1707131   1.1568454   1.4666313  )
        15        Al     tau(  15) = (   0.1506005   0.5746762   1.4713786  )
        16        Al     tau(  16) = (   0.5073182   0.5746762   0.4245178  )
        17        O      tau(  17) = (  -0.0043508   0.2833738   0.7297400  )
        18        O      tau(  18) = (   0.6622695   0.2833738   1.1661564  )
        19        O      tau(  19) = (   0.6658139   1.4451231   1.1576912  )
        20        O      tau(  20) = (  -0.0078952   1.4451231   0.7382052  )
        21        O      tau(  21) = (   0.4926234   1.1618863   0.7357690  )
        22        O      tau(  22) = (   0.1652953   1.1618863   1.1601274  )
        23        O      tau(  23) = (   0.1548298   0.5779784   1.1454267  )
        24        O      tau(  24) = (   0.5030889   0.5779784   0.7504697  )
        25        O      tau(  25) = (   0.2847398   0.3548857   0.3143567  )
        26        O      tau(  26) = (   0.3731789   0.3548857   1.5815397  )
        27        O      tau(  27) = (   0.9404978   1.7303189   0.3181314  )
        28        O      tau(  28) = (  -0.2825791   1.7303189   1.5777650  )
        29        O      tau(  29) = (   0.3988927   1.3439356   1.5754330  )
        30        O      tau(  30) = (   0.2590260   1.3439356   0.3204634  )
        31        O      tau(  31) = (   0.7582660   1.2710892   0.3185125  )
        32        O      tau(  32) = (  -0.1003473   1.2710892   1.5773839  )
        33        O      tau(  33) = (   0.4432368   0.8811364   0.3085875  )
        34        O      tau(  34) = (   0.2146819   0.8811364   1.5873090  )
        35        O      tau(  35) = (  -0.1423236   0.4782556   1.5925436  )
        36        O      tau(  36) = (   0.8002423   0.4782556   0.3033529  )
        37        O      tau(  37) = (  -0.0041068   0.8750247   0.7469263  )
        38        O      tau(  38) = (   0.6620255   0.8750247   1.1489701  )
        39        O      tau(  39) = (   0.4966158   1.7335917   0.7534577  )
        40        O      tau(  40) = (   0.1613029   1.7335917   1.1424387  )
        41        H      tau(  41) = (  -0.0032097   0.8603995   0.5673129  )
        42        H      tau(  42) = (   0.6611284   0.8603995   1.3285835  )
        43        H      tau(  43) = (   0.4926802   0.0219534   0.5746291  )
        44        H      tau(  44) = (   0.1652385   0.0219534   1.3212673  )

     --------------------------------------------
     DFT-D3 Dispersion Correction (3-body terms):
     --------------------------------------------
       Reference C6 values for interpolation: 

         atom   Coordination number   C6
         H          0.912             6.05
         H          0.000            15.18
         O          0.000            31.01
         O          0.993            25.63
         O          1.989            20.74
         Mg         0.000          1366.75
         Mg         0.963           902.54
         Mg         1.950           351.12
         Al         0.000          1081.08
         Al         0.965           875.51
         Al         1.931           513.50
         Al         2.915           307.19
         Si         0.000           635.71
         Si         0.951           540.53
         Si         1.944           466.25
         Si         2.941           443.01
         Si         3.868           299.55
         K          0.000          9967.00
         K          0.977           676.04

       Values used:

         atom   Coordination number  R0_AB[au]  C6      C8
         K         13.618            4.007    676.04 129074.98
         K         13.832            4.007    676.04 129074.98
         Mg        11.862            3.292    351.12  31436.69
         Mg        12.215            3.292    351.12  31436.69
         Mg        11.802            3.292    351.12  31436.69
         Mg        12.075            3.292    351.12  31436.69
         Mg        11.766            3.292    351.12  31436.69
         Mg        12.233            3.292    351.12  31436.69
         Si         6.969            3.583    299.55  21425.58
         Si         6.969            3.583    299.55  21425.58
         Si         6.546            3.583    299.55  21425.58
         Si         6.546            3.583    299.55  21425.58
         Si         6.597            3.583    299.55  21425.58
         Si         6.597            3.583    299.55  21425.58
         Al         7.870            3.789    307.19  29441.29
         Al         7.870            3.789    307.19  29441.29
         O          3.931            2.345     20.74    418.58
         O          3.931            2.345     20.74    418.58
         O          3.930            2.345     20.74    418.58
         O          3.930            2.345     20.74    418.58
         O          3.913            2.345     20.74    418.58
         O          3.913            2.345     20.74    418.58
         O          3.992            2.345     20.74    418.58
         O          3.992            2.345     20.74    418.58
         O          3.192            2.345     20.74    418.58
         O          3.192            2.345     20.74    418.58
         O          3.154            2.345     20.74    418.58
         O          3.154            2.345     20.74    418.58
         O          3.056            2.345     20.74    418.58
         O          3.056            2.345     20.74    418.58
         O          3.060            2.345     20.74    418.58
         O          3.060            2.345     20.74    418.58
         O          3.190            2.345     20.74    418.58
         O          3.190            2.345     20.74    418.58
         O          3.263            2.345     20.74    418.58
         O          3.263            2.345     20.74    418.58
         O          4.005            2.345     20.74    418.58
         O          4.005            2.345     20.74    418.58
         O          4.004            2.345     20.74    418.58
         O          4.004            2.345     20.74    418.58
         H          1.323            2.062      6.07     73.32
         H          1.323            2.062      6.07     73.32
         H          1.300            2.062      6.07     73.35
         H          1.300            2.062      6.07     73.35

         Molecular C6 ( Ry / a.u.^6 ) =    168241.01


   Crystallographic axes

     site n.     atom                  positions (cryst. coord.)
         1        K      tau(   1) = (  0.0000000  0.4932400  0.0000000  )
         2        K      tau(   2) = (  0.5000000  0.0053920  0.0000000  )
         3        Mg     tau(   3) = (  0.0000000  0.0039020  0.5000000  )
         4        Mg     tau(   4) = (  0.0000000  0.3331310  0.5000000  )
         5        Mg     tau(   5) = (  0.0000000  0.6652360  0.5000000  )
         6        Mg     tau(   6) = (  0.5000000  0.4934130  0.5000000  )
         7        Mg     tau(   7) = (  0.5000000  0.8344400  0.5000000  )
         8        Mg     tau(   8) = (  0.5000000  0.1720950  0.5000000  )
         9        Si     tau(   9) = (  0.0827990  0.1651150  0.2225540  )
        10        Si     tau(  10) = (  0.9172010  0.1651150  0.7774460  )
        11        Si     tau(  11) = (  0.9340850  0.8342440  0.7715940  )
        12        Si     tau(  12) = (  0.0659150  0.8342440  0.2284060  )
        13        Si     tau(  13) = (  0.5646590  0.6666520  0.2264180  )
        14        Si     tau(  14) = (  0.4353410  0.6666520  0.7735820  )
        15        Al     tau(  15) = (  0.4160850  0.3311670  0.7760860  )
        16        Al     tau(  16) = (  0.5839150  0.3311670  0.2239140  )
        17        O      tau(  17) = (  0.1273180  0.1632990  0.3849050  )
        18        O      tau(  18) = (  0.8726820  0.1632990  0.6150950  )
        19        O      tau(  19) = (  0.8746990  0.8327770  0.6106300  )
        20        O      tau(  20) = (  0.1253010  0.8327770  0.3893700  )
        21        O      tau(  21) = (  0.6253800  0.6695570  0.3880850  )
        22        O      tau(  22) = (  0.3746200  0.6695570  0.6119150  )
        23        O      tau(  23) = (  0.3615020  0.3330700  0.6041610  )
        24        O      tau(  24) = (  0.6384980  0.3330700  0.3958390  )
        25        O      tau(  25) = (  0.3414600  0.2045090  0.1658090  )
        26        O      tau(  26) = (  0.6585400  0.2045090  0.8341910  )
        27        O      tau(  27) = (  0.9978990  0.9971260  0.1678000  )
        28        O      tau(  28) = (  0.0021010  0.9971260  0.8322000  )
        29        O      tau(  29) = (  0.6831520  0.7744660  0.8309700  )
        30        O      tau(  30) = (  0.3168480  0.7744660  0.1690300  )
        31        O      tau(  31) = (  0.8157360  0.7324870  0.1680010  )
        32        O      tau(  32) = (  0.1842640  0.7324870  0.8319990  )
        33        O      tau(  33) = (  0.4989160  0.5077700  0.1627660  )
        34        O      tau(  34) = (  0.5010840  0.5077700  0.8372340  )
        35        O      tau(  35) = (  0.1450230  0.2756030  0.8399950  )
        36        O      tau(  36) = (  0.8549770  0.2756030  0.1600050  )
        37        O      tau(  37) = (  0.1306630  0.5042480  0.3939700  )
        38        O      tau(  38) = (  0.8693370  0.5042480  0.6060300  )
        39        O      tau(  39) = (  0.6325640  0.9990120  0.3974150  )
        40        O      tau(  40) = (  0.3674360  0.9990120  0.6025850  )
        41        H      tau(  41) = (  0.0991520  0.4958200  0.2992320  )
        42        H      tau(  42) = (  0.9008480  0.4958200  0.7007680  )
        43        H      tau(  43) = (  0.5963620  0.0126510  0.3030910  )
        44        H      tau(  44) = (  0.4036380  0.0126510  0.6969090  )

     number of k points=    20
                       cart. coord. in units 2pi/alat
        k(    1) = (   0.0000000   0.0000000   0.0000000), wk =   0.0370370
        k(    2) = (   0.0000000   0.0000000   0.1758183), wk =   0.0740741
        k(    3) = (   0.0000000   0.1920891   0.0000000), wk =   0.0740741
        k(    4) = (   0.0000000   0.1920891   0.1758183), wk =   0.1481481
        k(    5) = (   0.1666667   0.0000000   0.0300721), wk =   0.0740741
        k(    6) = (   0.1666667   0.0000000   0.2058904), wk =   0.0740741
        k(    7) = (   0.1666667   0.0000000  -0.1457462), wk =   0.0740741
        k(    8) = (   0.1666667   0.1920891   0.0300721), wk =   0.1481481
        k(    9) = (   0.1666667   0.1920891   0.2058904), wk =   0.1481481
        k(   10) = (   0.1666667   0.1920891  -0.1457462), wk =   0.1481481
        k(   11) = (   0.3333333   0.0000000   0.0601442), wk =   0.0740741
        k(   12) = (   0.3333333   0.0000000   0.2359625), wk =   0.0740741
        k(   13) = (   0.3333333   0.0000000  -0.1156742), wk =   0.0740741
        k(   14) = (   0.3333333   0.1920891   0.0601442), wk =   0.1481481
        k(   15) = (   0.3333333   0.1920891   0.2359625), wk =   0.1481481
        k(   16) = (   0.3333333   0.1920891  -0.1156742), wk =   0.1481481
        k(   17) = (  -0.5000000   0.0000000  -0.0902162), wk =   0.0370370
        k(   18) = (  -0.5000000   0.0000000   0.0856021), wk =   0.0740741
        k(   19) = (  -0.5000000   0.1920891  -0.0902162), wk =   0.0740741
        k(   20) = (  -0.5000000   0.1920891   0.0856021), wk =   0.1481481

                       cryst. coord.
        k(    1) = (   0.0000000   0.0000000   0.0000000), wk =   0.0370370
        k(    2) = (   0.0000000   0.0000000   0.3333333), wk =   0.0740741
        k(    3) = (   0.0000000   0.3333333   0.0000000), wk =   0.0740741
        k(    4) = (   0.0000000   0.3333333   0.3333333), wk =   0.1481481
        k(    5) = (   0.1666667   0.0000000  -0.0000000), wk =   0.0740741
        k(    6) = (   0.1666667   0.0000000   0.3333333), wk =   0.0740741
        k(    7) = (   0.1666667   0.0000000  -0.3333333), wk =   0.0740741
        k(    8) = (   0.1666667   0.3333333  -0.0000000), wk =   0.1481481
        k(    9) = (   0.1666667   0.3333333   0.3333333), wk =   0.1481481
        k(   10) = (   0.1666667   0.3333333  -0.3333333), wk =   0.1481481
        k(   11) = (   0.3333333   0.0000000  -0.0000000), wk =   0.0740741
        k(   12) = (   0.3333333   0.0000000   0.3333333), wk =   0.0740741
        k(   13) = (   0.3333333   0.0000000  -0.3333333), wk =   0.0740741
        k(   14) = (   0.3333333   0.3333333  -0.0000000), wk =   0.1481481
        k(   15) = (   0.3333333   0.3333333   0.3333333), wk =   0.1481481
        k(   16) = (   0.3333333   0.3333333  -0.3333333), wk =   0.1481481
        k(   17) = (  -0.5000000   0.0000000   0.0000000), wk =   0.0370370
        k(   18) = (  -0.5000000   0.0000000   0.3333333), wk =   0.0740741
        k(   19) = (  -0.5000000   0.3333333   0.0000000), wk =   0.0740741
        k(   20) = (  -0.5000000   0.3333333   0.3333333), wk =   0.1481481

     Dense  grid:   739393 G-vectors     FFT dimensions: (  75, 135, 150)

     Smooth grid:   261477 G-vectors     FFT dimensions: (  54,  96, 108)

     Dynamical RAM for                 wfc:       4.56 MB

     Dynamical RAM for     wfc (w. buffer):      95.69 MB

     Dynamical RAM for           str. fact:       4.84 MB

     Dynamical RAM for           local pot:       0.00 MB

     Dynamical RAM for          nlocal pot:      15.24 MB

     Dynamical RAM for                qrad:      11.39 MB

     Dynamical RAM for          rho,v,vnew:       4.97 MB

     Dynamical RAM for               rhoin:       1.66 MB

     Dynamical RAM for            rho*nmix:      12.89 MB

     Dynamical RAM for           G-vectors:       3.16 MB

     Dynamical RAM for          h,s,v(r/c):       3.00 MB

     Dynamical RAM for          <psi|beta>:       0.84 MB

     Dynamical RAM for                 psi:       9.11 MB

     Dynamical RAM for                hpsi:       9.11 MB

     Dynamical RAM for                spsi:       9.11 MB

     Dynamical RAM for      wfcinit/wfcrot:       9.49 MB

     Dynamical RAM for           addusdens:     169.24 MB

     Dynamical RAM for          addusforce:     206.81 MB

     Estimated static dynamical RAM per process >     146.83 MB

     Estimated max dynamical RAM per process >     366.53 MB

     Estimated total dynamical RAM >       5.01 GB

     Atomic positions and unit cell read from directory:
     ./temp/phl-fe0-dftd3.save/
     Atomic positions from file used, from input discarded


     Check: negative core charge=   -0.000001

     The initial density is read from file :
     ./temp/phl-fe0-dftd3.save/charge-density

     Cannot read wfcs: file not found
     Starting wfcs are  178 randomized atomic wfcs
     Checking if some PAW data can be deallocated... 
       PAW data deallocated on   13 nodes for type:  1
       PAW data deallocated on   12 nodes for type:  2
       PAW data deallocated on   13 nodes for type:  3
       PAW data deallocated on   12 nodes for type:  4
       PAW data deallocated on    5 nodes for type:  5
       PAW data deallocated on   12 nodes for type:  6

     total cpu time spent up to now is       71.1 secs

     Self-consistent Calculation

     iteration #  1     ecut=    70.00 Ry     beta= 0.70
     Davidson diagonalization with overlap

---- Real-time Memory Report at c_bands before calling an iterative solver
           280 MiB given to the printing process from OS
             0 MiB allocation reported by mallinfo(arena+hblkhd)
         20945 MiB available memory on the node where the printing process lives
------------------
     c_bands:  1 eigenvalues not converged
     c_bands:  4 eigenvalues not converged
     c_bands:  4 eigenvalues not converged
     c_bands:  3 eigenvalues not converged
     c_bands:  5 eigenvalues not converged
     ethr =  1.00E-05,  avg # of iterations = 20.5

     total cpu time spent up to now is     1327.7 secs

     total energy              =   -2443.72125544 Ry
     estimated scf accuracy    <       0.01549171 Ry

     iteration #  2     ecut=    70.00 Ry     beta= 0.70
     Davidson diagonalization with overlap

---- Real-time Memory Report at c_bands before calling an iterative solver
           401 MiB given to the printing process from OS
             0 MiB allocation reported by mallinfo(arena+hblkhd)
         18383 MiB available memory on the node where the printing process lives
------------------
     ethr =  6.05E-06,  avg # of iterations =  5.6

     total cpu time spent up to now is     1561.6 secs

     total energy              =   -2443.72611265 Ry
     estimated scf accuracy    <       0.00603055 Ry

     iteration #  3     ecut=    70.00 Ry     beta= 0.70
     Davidson diagonalization with overlap

---- Real-time Memory Report at c_bands before calling an iterative solver
           402 MiB given to the printing process from OS
             0 MiB allocation reported by mallinfo(arena+hblkhd)
         18625 MiB available memory on the node where the printing process lives
------------------
     ethr =  2.36E-06,  avg # of iterations =  4.7

     total cpu time spent up to now is     1785.2 secs

     total energy              =   -2443.72810029 Ry
     estimated scf accuracy    <       0.00013925 Ry

     iteration #  4     ecut=    70.00 Ry     beta= 0.70
     Davidson diagonalization with overlap

---- Real-time Memory Report at c_bands before calling an iterative solver
           403 MiB given to the printing process from OS
             0 MiB allocation reported by mallinfo(arena+hblkhd)
         18166 MiB available memory on the node where the printing process lives
------------------
     c_bands:  1 eigenvalues not converged
     c_bands:  3 eigenvalues not converged
     c_bands:  1 eigenvalues not converged
     c_bands:  5 eigenvalues not converged
     c_bands:  1 eigenvalues not converged
     c_bands:  1 eigenvalues not converged
     c_bands:  2 eigenvalues not converged
     c_bands:  2 eigenvalues not converged
     ethr =  5.44E-08,  avg # of iterations = 19.2

     total cpu time spent up to now is     2680.2 secs

     total energy              =   -2443.72890479 Ry
     estimated scf accuracy    <       0.00027819 Ry

     iteration #  5     ecut=    70.00 Ry     beta= 0.70
     Davidson diagonalization with overlap

---- Real-time Memory Report at c_bands before calling an iterative solver
           403 MiB given to the printing process from OS
             0 MiB allocation reported by mallinfo(arena+hblkhd)
         18619 MiB available memory on the node where the printing process lives
------------------
     ethr =  5.44E-08,  avg # of iterations =  5.5

     total cpu time spent up to now is     2923.6 secs

     total energy              =   -2443.72897632 Ry
     estimated scf accuracy    <       0.00000949 Ry

     iteration #  6     ecut=    70.00 Ry     beta= 0.70
     Davidson diagonalization with overlap

---- Real-time Memory Report at c_bands before calling an iterative solver
           404 MiB given to the printing process from OS
             0 MiB allocation reported by mallinfo(arena+hblkhd)
         18785 MiB available memory on the node where the printing process lives
------------------
     ethr =  3.71E-09,  avg # of iterations = 10.8

     total cpu time spent up to now is     3399.5 secs

     total energy              =   -2443.72898227 Ry
     estimated scf accuracy    <       0.00002246 Ry

     iteration #  7     ecut=    70.00 Ry     beta= 0.70
     Davidson diagonalization with overlap

---- Real-time Memory Report at c_bands before calling an iterative solver
           404 MiB given to the printing process from OS
             0 MiB allocation reported by mallinfo(arena+hblkhd)
         18737 MiB available memory on the node where the printing process lives
------------------
     ethr =  3.71E-09,  avg # of iterations =  4.3

     total cpu time spent up to now is     3629.6 secs

     total energy              =   -2443.72898651 Ry
     estimated scf accuracy    <       0.00000043 Ry

     iteration #  8     ecut=    70.00 Ry     beta= 0.70
     Davidson diagonalization with overlap

---- Real-time Memory Report at c_bands before calling an iterative solver
           405 MiB given to the printing process from OS
             0 MiB allocation reported by mallinfo(arena+hblkhd)
         18649 MiB available memory on the node where the printing process lives
------------------
     ethr =  1.67E-10,  avg # of iterations = 14.6

     total cpu time spent up to now is     4312.0 secs

     total energy              =   -2443.72898785 Ry
     estimated scf accuracy    <       0.00000190 Ry

     iteration #  9     ecut=    70.00 Ry     beta= 0.70
     Davidson diagonalization with overlap

---- Real-time Memory Report at c_bands before calling an iterative solver
           406 MiB given to the printing process from OS
             0 MiB allocation reported by mallinfo(arena+hblkhd)
         18406 MiB available memory on the node where the printing process lives
------------------
     ethr =  1.67E-10,  avg # of iterations =  6.0

     total cpu time spent up to now is     4551.3 secs

     total energy              =   -2443.72898793 Ry
     estimated scf accuracy    <       0.00000031 Ry

     iteration # 10     ecut=    70.00 Ry     beta= 0.70
     Davidson diagonalization with overlap

---- Real-time Memory Report at c_bands before calling an iterative solver
           406 MiB given to the printing process from OS
             0 MiB allocation reported by mallinfo(arena+hblkhd)
         18115 MiB available memory on the node where the printing process lives
------------------
     ethr =  1.22E-10,  avg # of iterations =  4.7

     total cpu time spent up to now is     4747.9 secs

     total energy              =   -2443.72898802 Ry
     estimated scf accuracy    <       0.00000002 Ry

     iteration # 11     ecut=    70.00 Ry     beta= 0.70
     Davidson diagonalization with overlap

---- Real-time Memory Report at c_bands before calling an iterative solver
           407 MiB given to the printing process from OS
             0 MiB allocation reported by mallinfo(arena+hblkhd)
         18069 MiB available memory on the node where the printing process lives
------------------
     ethr =  7.31E-12,  avg # of iterations = 15.1

     total cpu time spent up to now is     5357.5 secs

     total energy              =   -2443.72898806 Ry
     estimated scf accuracy    <       0.00000006 Ry

     iteration # 12     ecut=    70.00 Ry     beta= 0.70
     Davidson diagonalization with overlap

---- Real-time Memory Report at c_bands before calling an iterative solver
           407 MiB given to the printing process from OS
             0 MiB allocation reported by mallinfo(arena+hblkhd)
         18539 MiB available memory on the node where the printing process lives
------------------
     ethr =  7.31E-12,  avg # of iterations =  2.2

     total cpu time spent up to now is     5522.2 secs

     total energy              =   -2443.72898805 Ry
     estimated scf accuracy    <       0.00000003 Ry

     iteration # 13     ecut=    70.00 Ry     beta= 0.70
     Davidson diagonalization with overlap

---- Real-time Memory Report at c_bands before calling an iterative solver
           407 MiB given to the printing process from OS
             0 MiB allocation reported by mallinfo(arena+hblkhd)
         18271 MiB available memory on the node where the printing process lives
------------------
     ethr =  7.31E-12,  avg # of iterations =  8.3

     total cpu time spent up to now is     5899.7 secs

     total energy              =   -2443.72898807 Ry
     estimated scf accuracy    <       0.00000003 Ry

     iteration # 14     ecut=    70.00 Ry     beta= 0.70
     Davidson diagonalization with overlap

---- Real-time Memory Report at c_bands before calling an iterative solver
           407 MiB given to the printing process from OS
             0 MiB allocation reported by mallinfo(arena+hblkhd)
         18612 MiB available memory on the node where the printing process lives
------------------
     ethr =  7.31E-12,  avg # of iterations =  1.1

     total cpu time spent up to now is     6024.6 secs

     total energy              =   -2443.72898806 Ry
     estimated scf accuracy    <       0.00000001 Ry

     iteration # 15     ecut=    70.00 Ry     beta= 0.70
     Davidson diagonalization with overlap

---- Real-time Memory Report at c_bands before calling an iterative solver
           407 MiB given to the printing process from OS
             0 MiB allocation reported by mallinfo(arena+hblkhd)
         18584 MiB available memory on the node where the printing process lives
------------------
     ethr =  5.47E-12,  avg # of iterations =  5.0

     total cpu time spent up to now is     6233.0 secs

     End of self-consistent calculation

          k = 0.0000 0.0000 0.0000 ( 32713 PWs)   bands (ev):

   -67.7137 -67.7088 -67.5993 -67.2250 -67.1323 -67.1279 -34.4971 -34.4772
   -34.4727 -34.4673 -34.4591 -34.4548 -34.3694 -34.3666 -34.3403 -33.9901
   -33.9844 -33.9824 -33.9138 -33.9128 -33.8990 -33.8826 -33.8745 -33.8541
   -23.1300 -23.1114 -15.2055 -15.1511 -14.2575 -14.2114 -13.7495 -13.7256
   -13.5091 -13.3942 -13.3727 -13.1818 -12.9687 -12.9450 -12.9366 -12.9303
   -12.8732 -12.7791 -12.6148 -12.5433 -12.3883 -12.3725 -12.3389 -12.2197
   -11.2379 -10.9908  -6.7055  -6.6796  -6.6251  -6.6175  -6.5894  -6.5852
    -4.4004  -4.3411  -2.5224  -2.4230  -1.9348  -1.4356  -1.2557  -1.2504
    -1.2043  -1.1097  -0.7602  -0.6893  -0.5753  -0.4756  -0.4684  -0.2890
    -0.0885  -0.0179   0.1264   0.3653   0.4898   0.4988   0.5636   0.7547
     0.7705   1.0182   1.1931   1.2206   1.2778   1.4017   1.4292   1.5585
     1.7386   1.7569   1.8739   1.9718   1.9959   2.1239   2.1290   2.2110
     2.3290   2.3659   2.5131   2.5545   2.6016   2.6256   2.7364   2.7766
     2.7906   2.8865   2.9031   2.9800   3.1169   3.1624   3.2250   3.2902
     3.3402   3.3680   3.4588   3.4620   3.5376   3.6468   3.7055   3.7261
     3.7604   3.8293   3.8382   3.9941   3.9959   4.1758   4.3470   4.4563

     occupation numbers 
     1.0000   1.0000   1.0000   1.0000   1.0000   1.0000   1.0000   1.0000
     1.0000   1.0000   1.0000   1.0000   1.0000   1.0000   1.0000   1.0000
     1.0000   1.0000   1.0000   1.0000   1.0000   1.0000   1.0000   1.0000
     1.0000   1.0000   1.0000   1.0000   1.0000   1.0000   1.0000   1.0000
     1.0000   1.0000   1.0000   1.0000   1.0000   1.0000   1.0000   1.0000
     1.0000   1.0000   1.0000   1.0000   1.0000   1.0000   1.0000   1.0000
     1.0000   1.0000   1.0000   1.0000   1.0000   1.0000   1.0000   1.0000
     1.0000   1.0000   1.0000   1.0000   1.0000   1.0000   1.0000   1.0000
     1.0000   1.0000   1.0000   1.0000   1.0000   1.0000   1.0000   1.0000
     1.0000   1.0000   1.0000   1.0000   1.0000   1.0000   1.0000   1.0000
     1.0000   1.0000   1.0000   1.0000   1.0000   1.0000   1.0000   1.0000
     1.0000   1.0000   1.0000   1.0000   1.0000   1.0000   1.0000   1.0000
     1.0000   1.0000   1.0000   1.0000   1.0000   1.0000   1.0000   1.0000
     1.0000   1.0000   1.0000   1.0000   1.0000   1.0000   1.0000   1.0000
     1.0000   1.0000   1.0000   1.0000   1.0000   1.0000   1.0000   1.0000
     1.0000   1.0000   1.0000   1.0000   1.0000   1.0000   1.0000   1.0000

          k = 0.0000 0.0000 0.1758 ( 32697 PWs)   bands (ev):

   -67.7137 -67.7088 -67.5993 -67.2250 -67.1323 -67.1279 -34.4971 -34.4772
   -34.4727 -34.4673 -34.4591 -34.4548 -34.3694 -34.3667 -34.3403 -33.9901
   -33.9844 -33.9823 -33.9138 -33.9128 -33.8990 -33.8826 -33.8745 -33.8541
   -23.1300 -23.1114 -15.1925 -15.1650 -14.2466 -14.2229 -13.7500 -13.7251
   -13.4974 -13.4152 -13.3641 -13.1778 -12.9721 -12.9475 -12.9366 -12.9296
   -12.8661 -12.7834 -12.6066 -12.5510 -12.3948 -12.3588 -12.3388 -12.2269
   -11.2376 -10.9916  -6.7056  -6.6797  -6.6251  -6.6175  -6.5893  -6.5852
    -4.3961  -4.3458  -2.4995  -2.4501  -1.9014  -1.4206  -1.2782  -1.2230
    -1.1969  -1.1355  -0.7350  -0.7023  -0.6090  -0.4802  -0.4548  -0.3775
    -0.0677   0.0165   0.0761   0.3030   0.4743   0.4844   0.5903   0.7744
     0.8182   1.0972   1.1233   1.2310   1.3121   1.3660   1.4761   1.5982
     1.7587   1.7794   1.9675   1.9848   2.0056   2.1280   2.1350   2.2094
     2.2880   2.3358   2.4949   2.5383   2.5637   2.6192   2.6810   2.7232
     2.7493   2.9534   2.9846   2.9896   3.0137   3.1942   3.2286   3.2825
     3.3037   3.3356   3.4457   3.5538   3.5958   3.6321   3.6901   3.7171
     3.7384   3.7862   3.8211   4.0007   4.0204   4.1846   4.3445   4.4588

     occupation numbers 
     1.0000   1.0000   1.0000   1.0000   1.0000   1.0000   1.0000   1.0000
     1.0000   1.0000   1.0000   1.0000   1.0000   1.0000   1.0000   1.0000
     1.0000   1.0000   1.0000   1.0000   1.0000   1.0000   1.0000   1.0000
     1.0000   1.0000   1.0000   1.0000   1.0000   1.0000   1.0000   1.0000
     1.0000   1.0000   1.0000   1.0000   1.0000   1.0000   1.0000   1.0000
     1.0000   1.0000   1.0000   1.0000   1.0000   1.0000   1.0000   1.0000
     1.0000   1.0000   1.0000   1.0000   1.0000   1.0000   1.0000   1.0000
     1.0000   1.0000   1.0000   1.0000   1.0000   1.0000   1.0000   1.0000
     1.0000   1.0000   1.0000   1.0000   1.0000   1.0000   1.0000   1.0000
     1.0000   1.0000   1.0000   1.0000   1.0000   1.0000   1.0000   1.0000
     1.0000   1.0000   1.0000   1.0000   1.0000   1.0000   1.0000   1.0000
     1.0000   1.0000   1.0000   1.0000   1.0000   1.0000   1.0000   1.0000
     1.0000   1.0000   1.0000   1.0000   1.0000   1.0000   1.0000   1.0000
     1.0000   1.0000   1.0000   1.0000   1.0000   1.0000   1.0000   1.0000
     1.0000   1.0000   1.0000   1.0000   1.0000   1.0000   1.0000   1.0000
     1.0000   1.0000   1.0000   1.0000   1.0000   1.0000   1.0000   1.0000

          k = 0.0000 0.1921 0.0000 ( 32676 PWs)   bands (ev):

   -67.7137 -67.7088 -67.5993 -67.2250 -67.1323 -67.1279 -34.4971 -34.4772
   -34.4727 -34.4674 -34.4591 -34.4548 -34.3693 -34.3666 -34.3403 -33.9901
   -33.9843 -33.9823 -33.9138 -33.9127 -33.8990 -33.8826 -33.8745 -33.8541
   -23.1300 -23.1114 -15.2007 -15.1463 -14.2905 -14.2409 -13.7496 -13.7257
   -13.4280 -13.3488 -13.2904 -13.2075 -13.0494 -13.0079 -12.9636 -12.9106
   -12.8786 -12.7788 -12.6058 -12.5398 -12.3881 -12.3702 -12.3352 -12.2160
   -11.2366 -10.9902  -6.7016  -6.6839  -6.6246  -6.6153  -6.5912  -6.5861
    -4.3617  -4.3016  -2.6667  -2.5594  -1.8859  -1.4820  -1.1984  -1.1930
    -1.0829  -1.0335  -0.8343  -0.7540  -0.5929  -0.4177  -0.3892  -0.2631
    -0.1786   0.0241   0.1062   0.3555   0.4421   0.4557   0.5712   0.7464
     0.7951   1.0222   1.0805   1.2067   1.2848   1.4420   1.4591   1.5933
     1.7846   1.8027   1.8608   1.9764   2.0307   2.0976   2.2342   2.2953
     2.3039   2.3761   2.4437   2.5446   2.5784   2.6705   2.7359   2.7789
     2.8249   2.8869   2.9394   2.9944   3.1336   3.1774   3.2775   3.2899
     3.3302   3.3478   3.3649   3.4693   3.5421   3.5624   3.7035   3.7054
     3.7724   3.8156   3.8275   3.9733   4.0065   4.1495   4.1629   4.4530

     occupation numbers 
     1.0000   1.0000   1.0000   1.0000   1.0000   1.0000   1.0000   1.0000
     1.0000   1.0000   1.0000   1.0000   1.0000   1.0000   1.0000   1.0000
     1.0000   1.0000   1.0000   1.0000   1.0000   1.0000   1.0000   1.0000
     1.0000   1.0000   1.0000   1.0000   1.0000   1.0000   1.0000   1.0000
     1.0000   1.0000   1.0000   1.0000   1.0000   1.0000   1.0000   1.0000
     1.0000   1.0000   1.0000   1.0000   1.0000   1.0000   1.0000   1.0000
     1.0000   1.0000   1.0000   1.0000   1.0000   1.0000   1.0000   1.0000
     1.0000   1.0000   1.0000   1.0000   1.0000   1.0000   1.0000   1.0000
     1.0000   1.0000   1.0000   1.0000   1.0000   1.0000   1.0000   1.0000
     1.0000   1.0000   1.0000   1.0000   1.0000   1.0000   1.0000   1.0000
     1.0000   1.0000   1.0000   1.0000   1.0000   1.0000   1.0000   1.0000
     1.0000   1.0000   1.0000   1.0000   1.0000   1.0000   1.0000   1.0000
     1.0000   1.0000   1.0000   1.0000   1.0000   1.0000   1.0000   1.0000
     1.0000   1.0000   1.0000   1.0000   1.0000   1.0000   1.0000   1.0000
     1.0000   1.0000   1.0000   1.0000   1.0000   1.0000   1.0000   1.0000
     1.0000   1.0000   1.0000   1.0000   1.0000   1.0000   1.0000   1.0000

          k = 0.0000 0.1921 0.1758 ( 32687 PWs)   bands (ev):

   -67.7137 -67.7088 -67.5993 -67.2250 -67.1323 -67.1279 -34.4971 -34.4772
   -34.4727 -34.4674 -34.4591 -34.4548 -34.3693 -34.3667 -34.3403 -33.9901
   -33.9843 -33.9823 -33.9138 -33.9128 -33.8990 -33.8826 -33.8746 -33.8541
   -23.1300 -23.1114 -15.1876 -15.1603 -14.2785 -14.2537 -13.7501 -13.7252
   -13.4214 -13.3403 -13.3093 -13.1984 -13.0646 -12.9922 -12.9646 -12.9136
   -12.8751 -12.7832 -12.5982 -12.5473 -12.3941 -12.3579 -12.3336 -12.2232
   -11.2363 -10.9910  -6.7016  -6.6839  -6.6246  -6.6152  -6.5911  -6.5861
    -4.3548  -4.3090  -2.6423  -2.5865  -1.8569  -1.4695  -1.1967  -1.1910
    -1.0817  -1.0410  -0.8172  -0.7747  -0.6097  -0.4481  -0.3779  -0.3309
    -0.1361   0.0283   0.0431   0.3270   0.4260   0.4445   0.6110   0.7443
     0.8510   0.9876   1.0666   1.2596   1.3537   1.4322   1.5527   1.6142
     1.7520   1.8253   1.9047   1.9523   2.0075   2.1503   2.2176   2.2740
     2.3177   2.3658   2.4183   2.5067   2.5843   2.6412   2.6982   2.7442
     2.8163   2.9149   2.9435   3.0495   3.0829   3.1318   3.2457   3.2977
     3.3086   3.3421   3.4123   3.4947   3.5364   3.6179   3.6666   3.7069
     3.7474   3.8044   3.8169   3.9596   4.0176   4.1695   4.1815   4.4560

     occupation numbers 
     1.0000   1.0000   1.0000   1.0000   1.0000   1.0000   1.0000   1.0000
     1.0000   1.0000   1.0000   1.0000   1.0000   1.0000   1.0000   1.0000
     1.0000   1.0000   1.0000   1.0000   1.0000   1.0000   1.0000   1.0000
     1.0000   1.0000   1.0000   1.0000   1.0000   1.0000   1.0000   1.0000
     1.0000   1.0000   1.0000   1.0000   1.0000   1.0000   1.0000   1.0000
     1.0000   1.0000   1.0000   1.0000   1.0000   1.0000   1.0000   1.0000
     1.0000   1.0000   1.0000   1.0000   1.0000   1.0000   1.0000   1.0000
     1.0000   1.0000   1.0000   1.0000   1.0000   1.0000   1.0000   1.0000
     1.0000   1.0000   1.0000   1.0000   1.0000   1.0000   1.0000   1.0000
     1.0000   1.0000   1.0000   1.0000   1.0000   1.0000   1.0000   1.0000
     1.0000   1.0000   1.0000   1.0000   1.0000   1.0000   1.0000   1.0000
     1.0000   1.0000   1.0000   1.0000   1.0000   1.0000   1.0000   1.0000
     1.0000   1.0000   1.0000   1.0000   1.0000   1.0000   1.0000   1.0000
     1.0000   1.0000   1.0000   1.0000   1.0000   1.0000   1.0000   1.0000
     1.0000   1.0000   1.0000   1.0000   1.0000   1.0000   1.0000   1.0000
     1.0000   1.0000   1.0000   1.0000   1.0000   1.0000   1.0000   1.0000

          k = 0.1667 0.0000 0.0301 ( 32671 PWs)   bands (ev):

   -67.7137 -67.7088 -67.5993 -67.2250 -67.1322 -67.1279 -34.4964 -34.4793
   -34.4713 -34.4671 -34.4591 -34.4549 -34.3693 -34.3667 -34.3403 -33.9900
   -33.9845 -33.9823 -33.9161 -33.9096 -33.8996 -33.8820 -33.8749 -33.8545
   -23.1299 -23.1112 -15.1471 -15.0938 -14.2775 -14.2342 -13.8607 -13.8295
   -13.4436 -13.3395 -13.3062 -13.1672 -12.9802 -12.9740 -12.9383 -12.9153
   -12.8625 -12.7875 -12.6312 -12.5567 -12.4573 -12.4060 -12.3252 -12.2056
   -11.2348 -10.9956  -6.7052  -6.6839  -6.6237  -6.6158  -6.5896  -6.5818
    -4.2430  -4.1805  -2.4929  -2.3925  -1.9319  -1.5418  -1.4995  -1.4009
    -0.9974  -0.9085  -0.7702  -0.7436  -0.5680  -0.4574  -0.4224  -0.2849
    -0.0976   0.0105   0.1099   0.3462   0.4150   0.5200   0.5485   0.6486
     0.9380   1.0572   1.1511   1.2199   1.2371   1.3458   1.4392   1.5310
     1.6248   1.8073   1.8315   1.9102   1.9701   2.1609   2.1934   2.2602
     2.3143   2.3962   2.5182   2.5507   2.5844   2.6057   2.7349   2.7555
     2.8241   2.8606   2.9441   3.0200   3.0808   3.1235   3.2222   3.2332
     3.3069   3.3703   3.4307   3.5191   3.5465   3.6367   3.6723   3.7213
     3.7277   3.7862   3.8241   3.9145   3.9828   4.1798   4.3354   4.3643

     occupation numbers 
     1.0000   1.0000   1.0000   1.0000   1.0000   1.0000   1.0000   1.0000
     1.0000   1.0000   1.0000   1.0000   1.0000   1.0000   1.0000   1.0000
     1.0000   1.0000   1.0000   1.0000   1.0000   1.0000   1.0000   1.0000
     1.0000   1.0000   1.0000   1.0000   1.0000   1.0000   1.0000   1.0000
     1.0000   1.0000   1.0000   1.0000   1.0000   1.0000   1.0000   1.0000
     1.0000   1.0000   1.0000   1.0000   1.0000   1.0000   1.0000   1.0000
     1.0000   1.0000   1.0000   1.0000   1.0000   1.0000   1.0000   1.0000
     1.0000   1.0000   1.0000   1.0000   1.0000   1.0000   1.0000   1.0000
     1.0000   1.0000   1.0000   1.0000   1.0000   1.0000   1.0000   1.0000
     1.0000   1.0000   1.0000   1.0000   1.0000   1.0000   1.0000   1.0000
     1.0000   1.0000   1.0000   1.0000   1.0000   1.0000   1.0000   1.0000
     1.0000   1.0000   1.0000   1.0000   1.0000   1.0000   1.0000   1.0000
     1.0000   1.0000   1.0000   1.0000   1.0000   1.0000   1.0000   1.0000
     1.0000   1.0000   1.0000   1.0000   1.0000   1.0000   1.0000   1.0000
     1.0000   1.0000   1.0000   1.0000   1.0000   1.0000   1.0000   1.0000
     1.0000   1.0000   1.0000   1.0000   1.0000   1.0000   1.0000   1.0000

          k = 0.1667 0.0000 0.2059 ( 32665 PWs)   bands (ev):

   -67.7137 -67.7088 -67.5993 -67.2250 -67.1322 -67.1279 -34.4964 -34.4793
   -34.4713 -34.4671 -34.4591 -34.4549 -34.3693 -34.3667 -34.3403 -33.9899
   -33.9845 -33.9823 -33.9161 -33.9096 -33.8996 -33.8820 -33.8748 -33.8546
   -23.1299 -23.1112 -15.1306 -15.1112 -14.2681 -14.2440 -13.8572 -13.8332
   -13.4328 -13.3518 -13.3060 -13.1625 -12.9782 -12.9742 -12.9489 -12.9114
   -12.8564 -12.7913 -12.6246 -12.5641 -12.4513 -12.4124 -12.3142 -12.2149
   -11.2343 -10.9964  -6.7053  -6.6839  -6.6237  -6.6158  -6.5895  -6.5818
    -4.2441  -4.1797  -2.4727  -2.4176  -1.8959  -1.5826  -1.4643  -1.3876
    -0.9956  -0.9119  -0.7785  -0.7368  -0.5719  -0.4519  -0.4287  -0.3853
    -0.0585   0.0519   0.0556   0.2759   0.3963   0.5019   0.5434   0.7074
     1.0035   1.0677   1.1262   1.2174   1.2543   1.3647   1.4748   1.5356
     1.6797   1.7869   1.8619   1.9144   2.0600   2.1668   2.2081   2.2576
     2.2984   2.3878   2.4524   2.4894   2.5586   2.6119   2.6990   2.7154
     2.7961   2.8954   2.9854   3.0429   3.0713   3.1195   3.1488   3.2306
     3.3206   3.3528   3.4261   3.5760   3.5891   3.6334   3.6646   3.6977
     3.7432   3.7496   3.7771   3.9234   4.0207   4.1728   4.3352   4.3837

     occupation numbers 
     1.0000   1.0000   1.0000   1.0000   1.0000   1.0000   1.0000   1.0000
     1.0000   1.0000   1.0000   1.0000   1.0000   1.0000   1.0000   1.0000
     1.0000   1.0000   1.0000   1.0000   1.0000   1.0000   1.0000   1.0000
     1.0000   1.0000   1.0000   1.0000   1.0000   1.0000   1.0000   1.0000
     1.0000   1.0000   1.0000   1.0000   1.0000   1.0000   1.0000   1.0000
     1.0000   1.0000   1.0000   1.0000   1.0000   1.0000   1.0000   1.0000
     1.0000   1.0000   1.0000   1.0000   1.0000   1.0000   1.0000   1.0000
     1.0000   1.0000   1.0000   1.0000   1.0000   1.0000   1.0000   1.0000
     1.0000   1.0000   1.0000   1.0000   1.0000   1.0000   1.0000   1.0000
     1.0000   1.0000   1.0000   1.0000   1.0000   1.0000   1.0000   1.0000
     1.0000   1.0000   1.0000   1.0000   1.0000   1.0000   1.0000   1.0000
     1.0000   1.0000   1.0000   1.0000   1.0000   1.0000   1.0000   1.0000
     1.0000   1.0000   1.0000   1.0000   1.0000   1.0000   1.0000   1.0000
     1.0000   1.0000   1.0000   1.0000   1.0000   1.0000   1.0000   1.0000
     1.0000   1.0000   1.0000   1.0000   1.0000   1.0000   1.0000   1.0000
     1.0000   1.0000   1.0000   1.0000   1.0000   1.0000   1.0000   1.0000

          k = 0.1667 0.0000-0.1457 ( 32662 PWs)   bands (ev):

   -67.7137 -67.7088 -67.5993 -67.2250 -67.1322 -67.1279 -34.4964 -34.4793
   -34.4713 -34.4671 -34.4591 -34.4549 -34.3693 -34.3667 -34.3403 -33.9899
   -33.9845 -33.9823 -33.9161 -33.9096 -33.8996 -33.8820 -33.8748 -33.8546
   -23.1299 -23.1112 -15.1378 -15.1038 -14.2689 -14.2433 -13.8559 -13.8345
   -13.4372 -13.3353 -13.3191 -13.1634 -12.9791 -12.9680 -12.9527 -12.9076
   -12.8605 -12.7925 -12.6197 -12.5681 -12.4382 -12.4266 -12.3136 -12.2136
   -11.2341 -10.9964  -6.7054  -6.6840  -6.6237  -6.6157  -6.5895  -6.5818
    -4.2270  -4.1971  -2.4693  -2.4192  -1.9102  -1.5764  -1.4673  -1.3911
    -0.9803  -0.9314  -0.7548  -0.7245  -0.5923  -0.4581  -0.4326  -0.3610
    -0.0963   0.0467   0.0779   0.2864   0.4348   0.5235   0.5631   0.6915
     0.9489   1.0579   1.1060   1.2110   1.2880   1.3903   1.4745   1.4961
     1.6833   1.7778   1.8644   1.9019   2.0034   2.1408   2.2163   2.2305
     2.3071   2.3969   2.4700   2.5290   2.5671   2.6250   2.6824   2.7693
     2.8016   2.8829   2.9894   3.0469   3.0881   3.1203   3.1586   3.2863
     3.3281   3.3530   3.4486   3.5049   3.5767   3.5806   3.6416   3.7080
     3.7373   3.7506   3.8021   3.9062   4.0474   4.1692   4.3402   4.3757

     occupation numbers 
     1.0000   1.0000   1.0000   1.0000   1.0000   1.0000   1.0000   1.0000
     1.0000   1.0000   1.0000   1.0000   1.0000   1.0000   1.0000   1.0000
     1.0000   1.0000   1.0000   1.0000   1.0000   1.0000   1.0000   1.0000
     1.0000   1.0000   1.0000   1.0000   1.0000   1.0000   1.0000   1.0000
     1.0000   1.0000   1.0000   1.0000   1.0000   1.0000   1.0000   1.0000
     1.0000   1.0000   1.0000   1.0000   1.0000   1.0000   1.0000   1.0000
     1.0000   1.0000   1.0000   1.0000   1.0000   1.0000   1.0000   1.0000
     1.0000   1.0000   1.0000   1.0000   1.0000   1.0000   1.0000   1.0000
     1.0000   1.0000   1.0000   1.0000   1.0000   1.0000   1.0000   1.0000
     1.0000   1.0000   1.0000   1.0000   1.0000   1.0000   1.0000   1.0000
     1.0000   1.0000   1.0000   1.0000   1.0000   1.0000   1.0000   1.0000
     1.0000   1.0000   1.0000   1.0000   1.0000   1.0000   1.0000   1.0000
     1.0000   1.0000   1.0000   1.0000   1.0000   1.0000   1.0000   1.0000
     1.0000   1.0000   1.0000   1.0000   1.0000   1.0000   1.0000   1.0000
     1.0000   1.0000   1.0000   1.0000   1.0000   1.0000   1.0000   1.0000
     1.0000   1.0000   1.0000   1.0000   1.0000   1.0000   1.0000   1.0000

          k = 0.1667 0.1921 0.0301 ( 32679 PWs)   bands (ev):

   -67.7137 -67.7088 -67.5993 -67.2250 -67.1322 -67.1279 -34.4964 -34.4793
   -34.4713 -34.4671 -34.4591 -34.4549 -34.3693 -34.3667 -34.3403 -33.9900
   -33.9845 -33.9823 -33.9161 -33.9096 -33.8996 -33.8820 -33.8749 -33.8546
   -23.1299 -23.1113 -15.1425 -15.0892 -14.3063 -14.2595 -13.8490 -13.8210
   -13.3920 -13.3172 -13.2381 -13.1722 -13.0348 -13.0077 -12.9755 -12.9102
   -12.8812 -12.7869 -12.6258 -12.5465 -12.4518 -12.4078 -12.3228 -12.2038
   -11.2338 -10.9952  -6.7022  -6.6875  -6.6235  -6.6140  -6.5908  -6.5823
    -4.2074  -4.1442  -2.6496  -2.5432  -1.8618  -1.4541  -1.4072  -1.3738
    -0.9880  -0.9141  -0.8574  -0.7101  -0.5699  -0.3972  -0.3725  -0.2410
    -0.1300   0.0022   0.0826   0.3282   0.3811   0.5072   0.5398   0.6248
     0.9512   0.9858   1.1389   1.2056   1.2569   1.3508   1.4427   1.5446
     1.6572   1.7881   1.7991   1.9482   2.0344   2.1560   2.2239   2.2704
     2.3543   2.3986   2.4529   2.5880   2.5936   2.7020   2.7258   2.7882
     2.8426   2.8869   2.9797   3.0232   3.0792   3.1445   3.2090   3.2681
     3.3048   3.3347   3.3943   3.4905   3.5347   3.5599   3.6467   3.6857
     3.7123   3.7555   3.8425   3.9336   3.9616   4.1369   4.2204   4.3990

     occupation numbers 
     1.0000   1.0000   1.0000   1.0000   1.0000   1.0000   1.0000   1.0000
     1.0000   1.0000   1.0000   1.0000   1.0000   1.0000   1.0000   1.0000
     1.0000   1.0000   1.0000   1.0000   1.0000   1.0000   1.0000   1.0000
     1.0000   1.0000   1.0000   1.0000   1.0000   1.0000   1.0000   1.0000
     1.0000   1.0000   1.0000   1.0000   1.0000   1.0000   1.0000   1.0000
     1.0000   1.0000   1.0000   1.0000   1.0000   1.0000   1.0000   1.0000
     1.0000   1.0000   1.0000   1.0000   1.0000   1.0000   1.0000   1.0000
     1.0000   1.0000   1.0000   1.0000   1.0000   1.0000   1.0000   1.0000
     1.0000   1.0000   1.0000   1.0000   1.0000   1.0000   1.0000   1.0000
     1.0000   1.0000   1.0000   1.0000   1.0000   1.0000   1.0000   1.0000
     1.0000   1.0000   1.0000   1.0000   1.0000   1.0000   1.0000   1.0000
     1.0000   1.0000   1.0000   1.0000   1.0000   1.0000   1.0000   1.0000
     1.0000   1.0000   1.0000   1.0000   1.0000   1.0000   1.0000   1.0000
     1.0000   1.0000   1.0000   1.0000   1.0000   1.0000   1.0000   1.0000
     1.0000   1.0000   1.0000   1.0000   1.0000   1.0000   1.0000   1.0000
     1.0000   1.0000   1.0000   1.0000   1.0000   1.0000   1.0000   1.0000

          k = 0.1667 0.1921 0.2059 ( 32674 PWs)   bands (ev):

   -67.7137 -67.7088 -67.5993 -67.2250 -67.1322 -67.1279 -34.4964 -34.4793
   -34.4713 -34.4671 -34.4591 -34.4549 -34.3693 -34.3667 -34.3403 -33.9899
   -33.9845 -33.9823 -33.9161 -33.9096 -33.8996 -33.8820 -33.8749 -33.8546
   -23.1299 -23.1113 -15.1260 -15.1066 -14.2943 -14.2723 -13.8473 -13.8227
   -13.3857 -13.3085 -13.2588 -13.1604 -13.0513 -12.9926 -12.9765 -12.9105
   -12.8790 -12.7912 -12.6205 -12.5531 -12.4487 -12.4109 -12.3121 -12.2128
   -11.2333 -10.9960  -6.7022  -6.6875  -6.6235  -6.6139  -6.5907  -6.5822
    -4.2054  -4.1464  -2.6241  -2.5717  -1.8335  -1.4410  -1.4306  -1.3517
    -0.9922  -0.9113  -0.8579  -0.7062  -0.5751  -0.4620  -0.3491  -0.2928
    -0.0919  -0.0076   0.0603   0.2824   0.3645   0.4904   0.5363   0.6683
     0.9545   0.9936   1.1199   1.2761   1.2837   1.3791   1.4835   1.5997
     1.6847   1.7387   1.8060   1.9317   2.0722   2.1636   2.2478   2.2832
     2.3531   2.3982   2.4115   2.5135   2.5900   2.6727   2.7121   2.7513
     2.8370   2.9023   2.9980   3.0247   3.0825   3.1146   3.1817   3.2450
     3.2931   3.3487   3.4378   3.4825   3.5327   3.5896   3.6237   3.6838
     3.7044   3.7726   3.8041   3.9442   3.9803   4.1448   4.2287   4.4107

     occupation numbers 
     1.0000   1.0000   1.0000   1.0000   1.0000   1.0000   1.0000   1.0000
     1.0000   1.0000   1.0000   1.0000   1.0000   1.0000   1.0000   1.0000
     1.0000   1.0000   1.0000   1.0000   1.0000   1.0000   1.0000   1.0000
     1.0000   1.0000   1.0000   1.0000   1.0000   1.0000   1.0000   1.0000
     1.0000   1.0000   1.0000   1.0000   1.0000   1.0000   1.0000   1.0000
     1.0000   1.0000   1.0000   1.0000   1.0000   1.0000   1.0000   1.0000
     1.0000   1.0000   1.0000   1.0000   1.0000   1.0000   1.0000   1.0000
     1.0000   1.0000   1.0000   1.0000   1.0000   1.0000   1.0000   1.0000
     1.0000   1.0000   1.0000   1.0000   1.0000   1.0000   1.0000   1.0000
     1.0000   1.0000   1.0000   1.0000   1.0000   1.0000   1.0000   1.0000
     1.0000   1.0000   1.0000   1.0000   1.0000   1.0000   1.0000   1.0000
     1.0000   1.0000   1.0000   1.0000   1.0000   1.0000   1.0000   1.0000
     1.0000   1.0000   1.0000   1.0000   1.0000   1.0000   1.0000   1.0000
     1.0000   1.0000   1.0000   1.0000   1.0000   1.0000   1.0000   1.0000
     1.0000   1.0000   1.0000   1.0000   1.0000   1.0000   1.0000   1.0000
     1.0000   1.0000   1.0000   1.0000   1.0000   1.0000   1.0000   1.0000

          k = 0.1667 0.1921-0.1457 ( 32683 PWs)   bands (ev):

   -67.7137 -67.7088 -67.5993 -67.2250 -67.1322 -67.1279 -34.4964 -34.4793
   -34.4713 -34.4671 -34.4591 -34.4549 -34.3693 -34.3667 -34.3403 -33.9900
   -33.9845 -33.9823 -33.9161 -33.9096 -33.8996 -33.8820 -33.8749 -33.8546
   -23.1299 -23.1113 -15.1331 -15.0992 -14.2968 -14.2697 -13.8447 -13.8254
   -13.3882 -13.3091 -13.2528 -13.1656 -13.0469 -12.9971 -12.9759 -12.9115
   -12.8779 -12.7916 -12.6150 -12.5570 -12.4368 -12.4244 -12.3115 -12.2118
   -11.2331 -10.9960  -6.7023  -6.6876  -6.6235  -6.6139  -6.5907  -6.5822
    -4.1896  -4.1626  -2.6249  -2.5703  -1.8441  -1.4484  -1.4288  -1.3494
    -0.9673  -0.9373  -0.8269  -0.7166  -0.6011  -0.4224  -0.3610  -0.2861
    -0.1239   0.0066   0.0448   0.3118   0.3948   0.4903   0.5741   0.6581
     0.9401   0.9564   1.1105   1.2410   1.2960   1.3959   1.4781   1.5733
     1.6846   1.7531   1.7907   1.9607   2.0473   2.1204   2.2307   2.2822
     2.3250   2.4025   2.4397   2.5384   2.6388   2.6581   2.6839   2.7745
     2.8650   2.9234   2.9829   3.0490   3.0786   3.1084   3.2036   3.2846
     3.3118   3.3407   3.4217   3.4787   3.5323   3.5803   3.6210   3.6560
     3.7199   3.7423   3.7823   3.9300   4.0143   4.1361   4.2280   4.4040

     occupation numbers 
     1.0000   1.0000   1.0000   1.0000   1.0000   1.0000   1.0000   1.0000
     1.0000   1.0000   1.0000   1.0000   1.0000   1.0000   1.0000   1.0000
     1.0000   1.0000   1.0000   1.0000   1.0000   1.0000   1.0000   1.0000
     1.0000   1.0000   1.0000   1.0000   1.0000   1.0000   1.0000   1.0000
     1.0000   1.0000   1.0000   1.0000   1.0000   1.0000   1.0000   1.0000
     1.0000   1.0000   1.0000   1.0000   1.0000   1.0000   1.0000   1.0000
     1.0000   1.0000   1.0000   1.0000   1.0000   1.0000   1.0000   1.0000
     1.0000   1.0000   1.0000   1.0000   1.0000   1.0000   1.0000   1.0000
     1.0000   1.0000   1.0000   1.0000   1.0000   1.0000   1.0000   1.0000
     1.0000   1.0000   1.0000   1.0000   1.0000   1.0000   1.0000   1.0000
     1.0000   1.0000   1.0000   1.0000   1.0000   1.0000   1.0000   1.0000
     1.0000   1.0000   1.0000   1.0000   1.0000   1.0000   1.0000   1.0000
     1.0000   1.0000   1.0000   1.0000   1.0000   1.0000   1.0000   1.0000
     1.0000   1.0000   1.0000   1.0000   1.0000   1.0000   1.0000   1.0000
     1.0000   1.0000   1.0000   1.0000   1.0000   1.0000   1.0000   1.0000
     1.0000   1.0000   1.0000   1.0000   1.0000   1.0000   1.0000   1.0000

          k = 0.3333 0.0000 0.0601 ( 32653 PWs)   bands (ev):

   -67.7136 -67.7089 -67.5993 -67.2250 -67.1321 -67.1281 -34.4948 -34.4826
   -34.4698 -34.4664 -34.4592 -34.4552 -34.3691 -34.3668 -34.3404 -33.9896
   -33.9849 -33.9822 -33.9173 -33.9063 -33.9013 -33.8805 -33.8760 -33.8554
   -23.1295 -23.1110 -14.9864 -14.9368 -14.4039 -14.3654 -13.9769 -13.9406
   -13.3419 -13.2384 -13.1717 -13.1457 -13.0370 -13.0071 -12.9509 -12.9160
   -12.8734 -12.7885 -12.6823 -12.6100 -12.5362 -12.4629 -12.3089 -12.1966
   -11.2294 -11.0056  -6.7048  -6.6929  -6.6206  -6.6123  -6.5902  -6.5746
    -3.8323  -3.7593  -2.6369  -2.5231  -1.9189  -1.7614  -1.5013  -1.3443
    -0.9724  -0.8362  -0.8180  -0.7682  -0.4898  -0.4146  -0.3268  -0.2511
    -0.1927   0.0243   0.1491   0.3218   0.3996   0.5113   0.5513   0.5937
     0.8905   1.0219   1.1051   1.1655   1.3003   1.3455   1.4713   1.4831
     1.5479   1.5615   1.6916   1.8658   1.9596   2.1990   2.2254   2.2802
     2.3353   2.4391   2.5591   2.5889   2.6382   2.6524   2.7217   2.7994
     2.8454   2.8695   2.9744   3.0424   3.0497   3.0910   3.1186   3.1444
     3.3322   3.3565   3.4176   3.4806   3.4932   3.5575   3.6121   3.6358
     3.6570   3.7291   3.8557   3.8873   3.9323   4.1893   4.2713   4.3050

     occupation numbers 
     1.0000   1.0000   1.0000   1.0000   1.0000   1.0000   1.0000   1.0000
     1.0000   1.0000   1.0000   1.0000   1.0000   1.0000   1.0000   1.0000
     1.0000   1.0000   1.0000   1.0000   1.0000   1.0000   1.0000   1.0000
     1.0000   1.0000   1.0000   1.0000   1.0000   1.0000   1.0000   1.0000
     1.0000   1.0000   1.0000   1.0000   1.0000   1.0000   1.0000   1.0000
     1.0000   1.0000   1.0000   1.0000   1.0000   1.0000   1.0000   1.0000
     1.0000   1.0000   1.0000   1.0000   1.0000   1.0000   1.0000   1.0000
     1.0000   1.0000   1.0000   1.0000   1.0000   1.0000   1.0000   1.0000
     1.0000   1.0000   1.0000   1.0000   1.0000   1.0000   1.0000   1.0000
     1.0000   1.0000   1.0000   1.0000   1.0000   1.0000   1.0000   1.0000
     1.0000   1.0000   1.0000   1.0000   1.0000   1.0000   1.0000   1.0000
     1.0000   1.0000   1.0000   1.0000   1.0000   1.0000   1.0000   1.0000
     1.0000   1.0000   1.0000   1.0000   1.0000   1.0000   1.0000   1.0000
     1.0000   1.0000   1.0000   1.0000   1.0000   1.0000   1.0000   1.0000
     1.0000   1.0000   1.0000   1.0000   1.0000   1.0000   1.0000   1.0000
     1.0000   1.0000   1.0000   1.0000   1.0000   1.0000   1.0000   1.0000

          k = 0.3333 0.0000 0.2360 ( 32612 PWs)   bands (ev):

   -67.7136 -67.7089 -67.5993 -67.2250 -67.1321 -67.1281 -34.4947 -34.4826
   -34.4698 -34.4664 -34.4592 -34.4551 -34.3691 -34.3668 -34.3403 -33.9895
   -33.9849 -33.9822 -33.9173 -33.9062 -33.9013 -33.8804 -33.8760 -33.8554
   -23.1295 -23.1110 -14.9681 -14.9560 -14.4018 -14.3675 -13.9705 -13.9475
   -13.3349 -13.2382 -13.1845 -13.1411 -13.0307 -13.0021 -12.9673 -12.9099
   -12.8716 -12.7909 -12.6754 -12.6196 -12.5201 -12.4756 -12.2978 -12.2065
   -11.2285 -11.0066  -6.7050  -6.6929  -6.6205  -6.6123  -6.5901  -6.5746
    -3.8335  -3.7581  -2.6103  -2.5534  -1.8900  -1.7989  -1.4710  -1.3345
    -0.9737  -0.8387  -0.8189  -0.7539  -0.4617  -0.4213  -0.3676  -0.3235
    -0.1408  -0.0234   0.1572   0.2833   0.4038   0.4909   0.5376   0.6513
     0.9362   1.0361   1.0853   1.1762   1.2166   1.3947   1.4844   1.5272
     1.5723   1.6080   1.6364   1.9203   2.0013   2.1407   2.2489   2.2879
     2.3153   2.3757   2.5402   2.6039   2.6445   2.6579   2.7058   2.7716
     2.8050   2.9166   2.9285   3.0203   3.0381   3.0828   3.1698   3.1930
     3.3390   3.3796   3.4154   3.4709   3.4887   3.5582   3.5598   3.6349
     3.6847   3.7338   3.7735   3.8739   4.0152   4.1678   4.2937   4.3180

     occupation numbers 
     1.0000   1.0000   1.0000   1.0000   1.0000   1.0000   1.0000   1.0000
     1.0000   1.0000   1.0000   1.0000   1.0000   1.0000   1.0000   1.0000
     1.0000   1.0000   1.0000   1.0000   1.0000   1.0000   1.0000   1.0000
     1.0000   1.0000   1.0000   1.0000   1.0000   1.0000   1.0000   1.0000
     1.0000   1.0000   1.0000   1.0000   1.0000   1.0000   1.0000   1.0000
     1.0000   1.0000   1.0000   1.0000   1.0000   1.0000   1.0000   1.0000
     1.0000   1.0000   1.0000   1.0000   1.0000   1.0000   1.0000   1.0000
     1.0000   1.0000   1.0000   1.0000   1.0000   1.0000   1.0000   1.0000
     1.0000   1.0000   1.0000   1.0000   1.0000   1.0000   1.0000   1.0000
     1.0000   1.0000   1.0000   1.0000   1.0000   1.0000   1.0000   1.0000
     1.0000   1.0000   1.0000   1.0000   1.0000   1.0000   1.0000   1.0000
     1.0000   1.0000   1.0000   1.0000   1.0000   1.0000   1.0000   1.0000
     1.0000   1.0000   1.0000   1.0000   1.0000   1.0000   1.0000   1.0000
     1.0000   1.0000   1.0000   1.0000   1.0000   1.0000   1.0000   1.0000
     1.0000   1.0000   1.0000   1.0000   1.0000   1.0000   1.0000   1.0000
     1.0000   1.0000   1.0000   1.0000   1.0000   1.0000   1.0000   1.0000

          k = 0.3333 0.0000-0.1157 ( 32662 PWs)   bands (ev):

   -67.7136 -67.7089 -67.5993 -67.2250 -67.1321 -67.1281 -34.4948 -34.4826
   -34.4698 -34.4664 -34.4592 -34.4552 -34.3692 -34.3668 -34.3404 -33.9896
   -33.9850 -33.9822 -33.9173 -33.9063 -33.9013 -33.8805 -33.8760 -33.8554
   -23.1295 -23.1110 -14.9809 -14.9427 -14.3957 -14.3739 -13.9717 -13.9462
   -13.3405 -13.2240 -13.1937 -13.1433 -13.0283 -13.0025 -12.9683 -12.9049
   -12.8729 -12.7946 -12.6696 -12.6252 -12.5158 -12.4791 -12.2990 -12.2047
   -11.2284 -11.0065  -6.7050  -6.6930  -6.6205  -6.6123  -6.5901  -6.5746
    -3.7990  -3.7937  -2.6254  -2.5370  -1.9043  -1.7783  -1.4949  -1.3383
    -0.9588  -0.8311  -0.8041  -0.7625  -0.4990  -0.3986  -0.3657  -0.2885
    -0.2018  -0.0017   0.1847   0.2784   0.4287   0.4982   0.5776   0.6066
     0.9341   0.9996   1.0968   1.2025   1.2392   1.3577   1.4841   1.5074
     1.5351   1.5681   1.7039   1.8769   1.9669   2.1530   2.2212   2.2570
     2.3237   2.4501   2.5742   2.5967   2.6153   2.6793   2.7030   2.7932
     2.8292   2.8765   2.9519   3.0058   3.0488   3.1319   3.1850   3.2381
     3.3350   3.3520   3.4209   3.4622   3.5086   3.5201   3.5346   3.6153
     3.6693   3.7178   3.8194   3.8500   4.0123   4.1788   4.2830   4.3204

     occupation numbers 
     1.0000   1.0000   1.0000   1.0000   1.0000   1.0000   1.0000   1.0000
     1.0000   1.0000   1.0000   1.0000   1.0000   1.0000   1.0000   1.0000
     1.0000   1.0000   1.0000   1.0000   1.0000   1.0000   1.0000   1.0000
     1.0000   1.0000   1.0000   1.0000   1.0000   1.0000   1.0000   1.0000
     1.0000   1.0000   1.0000   1.0000   1.0000   1.0000   1.0000   1.0000
     1.0000   1.0000   1.0000   1.0000   1.0000   1.0000   1.0000   1.0000
     1.0000   1.0000   1.0000   1.0000   1.0000   1.0000   1.0000   1.0000
     1.0000   1.0000   1.0000   1.0000   1.0000   1.0000   1.0000   1.0000
     1.0000   1.0000   1.0000   1.0000   1.0000   1.0000   1.0000   1.0000
     1.0000   1.0000   1.0000   1.0000   1.0000   1.0000   1.0000   1.0000
     1.0000   1.0000   1.0000   1.0000   1.0000   1.0000   1.0000   1.0000
     1.0000   1.0000   1.0000   1.0000   1.0000   1.0000   1.0000   1.0000
     1.0000   1.0000   1.0000   1.0000   1.0000   1.0000   1.0000   1.0000
     1.0000   1.0000   1.0000   1.0000   1.0000   1.0000   1.0000   1.0000
     1.0000   1.0000   1.0000   1.0000   1.0000   1.0000   1.0000   1.0000
     1.0000   1.0000   1.0000   1.0000   1.0000   1.0000   1.0000   1.0000

          k = 0.3333 0.1921 0.0601 ( 32660 PWs)   bands (ev):

   -67.7136 -67.7089 -67.5993 -67.2250 -67.1321 -67.1281 -34.4948 -34.4826
   -34.4698 -34.4665 -34.4592 -34.4551 -34.3691 -34.3668 -34.3404 -33.9896
   -33.9849 -33.9822 -33.9173 -33.9063 -33.9013 -33.8805 -33.8760 -33.8554
   -23.1295 -23.1110 -14.9829 -14.9333 -14.4149 -14.3749 -13.9738 -13.9399
   -13.3136 -13.2484 -13.1511 -13.1058 -13.0524 -13.0204 -12.9957 -12.9146
   -12.8807 -12.7969 -12.6755 -12.5941 -12.5353 -12.4698 -12.3077 -12.1963
   -11.2289 -11.0056  -6.7037  -6.6951  -6.6208  -6.6115  -6.5900  -6.5747
    -3.8104  -3.7376  -2.7372  -2.6330  -1.8421  -1.6576  -1.4467  -1.3689
    -0.9857  -0.8705  -0.8087  -0.7301  -0.4904  -0.3717  -0.3217  -0.2255
    -0.1605  -0.0123   0.1363   0.3106   0.4022   0.4849   0.5284   0.5536
     0.8574   0.9363   1.1672   1.2245   1.2785   1.3681   1.4115   1.4905
     1.5257   1.5925   1.6933   1.8094   2.0124   2.1695   2.2443   2.2916
     2.3477   2.4500   2.5106   2.5777   2.6376   2.7008   2.7576   2.8201
     2.8464   2.9288   2.9801   3.0174   3.0894   3.1117   3.1842   3.2202
     3.2781   3.3271   3.3655   3.4511   3.4758   3.5226   3.5713   3.6032
     3.7063   3.7512   3.8274   3.9059   3.9326   4.1577   4.2352   4.2938

     occupation numbers 
     1.0000   1.0000   1.0000   1.0000   1.0000   1.0000   1.0000   1.0000
     1.0000   1.0000   1.0000   1.0000   1.0000   1.0000   1.0000   1.0000
     1.0000   1.0000   1.0000   1.0000   1.0000   1.0000   1.0000   1.0000
     1.0000   1.0000   1.0000   1.0000   1.0000   1.0000   1.0000   1.0000
     1.0000   1.0000   1.0000   1.0000   1.0000   1.0000   1.0000   1.0000
     1.0000   1.0000   1.0000   1.0000   1.0000   1.0000   1.0000   1.0000
     1.0000   1.0000   1.0000   1.0000   1.0000   1.0000   1.0000   1.0000
     1.0000   1.0000   1.0000   1.0000   1.0000   1.0000   1.0000   1.0000
     1.0000   1.0000   1.0000   1.0000   1.0000   1.0000   1.0000   1.0000
     1.0000   1.0000   1.0000   1.0000   1.0000   1.0000   1.0000   1.0000
     1.0000   1.0000   1.0000   1.0000   1.0000   1.0000   1.0000   1.0000
     1.0000   1.0000   1.0000   1.0000   1.0000   1.0000   1.0000   1.0000
     1.0000   1.0000   1.0000   1.0000   1.0000   1.0000   1.0000   1.0000
     1.0000   1.0000   1.0000   1.0000   1.0000   1.0000   1.0000   1.0000
     1.0000   1.0000   1.0000   1.0000   1.0000   1.0000   1.0000   1.0000
     1.0000   1.0000   1.0000   1.0000   1.0000   1.0000   1.0000   1.0000

          k = 0.3333 0.1921 0.2360 ( 32645 PWs)   bands (ev):

   -67.7136 -67.7089 -67.5993 -67.2250 -67.1321 -67.1281 -34.4948 -34.4826
   -34.4698 -34.4665 -34.4592 -34.4551 -34.3691 -34.3668 -34.3404 -33.9895
   -33.9849 -33.9822 -33.9173 -33.9063 -33.9013 -33.8805 -33.8760 -33.8554
   -23.1295 -23.1110 -14.9649 -14.9521 -14.4110 -14.3789 -13.9678 -13.9464
   -13.3092 -13.2397 -13.1694 -13.0998 -13.0552 -13.0151 -12.9992 -12.9108
   -12.8800 -12.8008 -12.6677 -12.6072 -12.5208 -12.4794 -12.2967 -12.2060
   -11.2281 -11.0065  -6.7038  -6.6952  -6.6207  -6.6115  -6.5899  -6.5747
    -3.8089  -3.7389  -2.7028  -2.6713  -1.8222  -1.6848  -1.4209  -1.3572
    -0.9795  -0.8934  -0.7676  -0.7438  -0.4642  -0.4278  -0.3292  -0.2478
    -0.1402  -0.0579   0.1709   0.2601   0.3851   0.4672   0.5279   0.5939
     0.8547   0.9621   1.1731   1.2063   1.2897   1.3492   1.4696   1.5065
     1.5688   1.6378   1.6658   1.8131   2.0512   2.1153   2.2619   2.2850
     2.3188   2.4491   2.4845   2.5917   2.6441   2.6661   2.7273   2.7965
     2.8444   2.9121   2.9798   3.0316   3.0639   3.1181   3.1904   3.2444
     3.2846   3.3667   3.4044   3.4485   3.4609   3.5142   3.5451   3.5875
     3.7203   3.7684   3.7825   3.8568   4.0096   4.1297   4.2489   4.3155

     occupation numbers 
     1.0000   1.0000   1.0000   1.0000   1.0000   1.0000   1.0000   1.0000
     1.0000   1.0000   1.0000   1.0000   1.0000   1.0000   1.0000   1.0000
     1.0000   1.0000   1.0000   1.0000   1.0000   1.0000   1.0000   1.0000
     1.0000   1.0000   1.0000   1.0000   1.0000   1.0000   1.0000   1.0000
     1.0000   1.0000   1.0000   1.0000   1.0000   1.0000   1.0000   1.0000
     1.0000   1.0000   1.0000   1.0000   1.0000   1.0000   1.0000   1.0000
     1.0000   1.0000   1.0000   1.0000   1.0000   1.0000   1.0000   1.0000
     1.0000   1.0000   1.0000   1.0000   1.0000   1.0000   1.0000   1.0000
     1.0000   1.0000   1.0000   1.0000   1.0000   1.0000   1.0000   1.0000
     1.0000   1.0000   1.0000   1.0000   1.0000   1.0000   1.0000   1.0000
     1.0000   1.0000   1.0000   1.0000   1.0000   1.0000   1.0000   1.0000
     1.0000   1.0000   1.0000   1.0000   1.0000   1.0000   1.0000   1.0000
     1.0000   1.0000   1.0000   1.0000   1.0000   1.0000   1.0000   1.0000
     1.0000   1.0000   1.0000   1.0000   1.0000   1.0000   1.0000   1.0000
     1.0000   1.0000   1.0000   1.0000   1.0000   1.0000   1.0000   1.0000
     1.0000   1.0000   1.0000   1.0000   1.0000   1.0000   1.0000   1.0000

          k = 0.3333 0.1921-0.1157 ( 32667 PWs)   bands (ev):

   -67.7136 -67.7089 -67.5993 -67.2250 -67.1321 -67.1281 -34.4948 -34.4826
   -34.4698 -34.4665 -34.4592 -34.4552 -34.3691 -34.3668 -34.3404 -33.9896
   -33.9849 -33.9822 -33.9173 -33.9063 -33.9013 -33.8805 -33.8760 -33.8554
   -23.1295 -23.1110 -14.9773 -14.9392 -14.4069 -14.3833 -13.9676 -13.9465
   -13.3129 -13.2426 -13.1569 -13.1077 -13.0444 -13.0169 -13.0099 -12.9092
   -12.8800 -12.8011 -12.6634 -12.6095 -12.5133 -12.4872 -12.2979 -12.2044
   -11.2280 -11.0065  -6.7039  -6.6953  -6.6207  -6.6114  -6.5899  -6.5747
    -3.7785  -3.7706  -2.7238  -2.6484  -1.8339  -1.6662  -1.4428  -1.3642
    -0.9643  -0.8725  -0.7871  -0.7329  -0.5014  -0.3688  -0.3454  -0.2253
    -0.2018  -0.0361   0.1401   0.3121   0.4223   0.4849   0.5356   0.5572
     0.8807   0.9247   1.1619   1.2097   1.2978   1.3541   1.4702   1.4754
     1.5338   1.5881   1.7104   1.8376   1.9835   2.1480   2.2466   2.2543
     2.3255   2.4807   2.5044   2.5730   2.6321   2.6712   2.7253   2.8334
     2.8860   2.8946   2.9985   3.0274   3.1047   3.1277   3.1832   3.2727
     3.2961   3.3302   3.3868   3.4325   3.4886   3.5196   3.5433   3.5992
     3.6862   3.7457   3.8026   3.8102   4.0218   4.1368   4.2460   4.3095

     occupation numbers 
     1.0000   1.0000   1.0000   1.0000   1.0000   1.0000   1.0000   1.0000
     1.0000   1.0000   1.0000   1.0000   1.0000   1.0000   1.0000   1.0000
     1.0000   1.0000   1.0000   1.0000   1.0000   1.0000   1.0000   1.0000
     1.0000   1.0000   1.0000   1.0000   1.0000   1.0000   1.0000   1.0000
     1.0000   1.0000   1.0000   1.0000   1.0000   1.0000   1.0000   1.0000
     1.0000   1.0000   1.0000   1.0000   1.0000   1.0000   1.0000   1.0000
     1.0000   1.0000   1.0000   1.0000   1.0000   1.0000   1.0000   1.0000
     1.0000   1.0000   1.0000   1.0000   1.0000   1.0000   1.0000   1.0000
     1.0000   1.0000   1.0000   1.0000   1.0000   1.0000   1.0000   1.0000
     1.0000   1.0000   1.0000   1.0000   1.0000   1.0000   1.0000   1.0000
     1.0000   1.0000   1.0000   1.0000   1.0000   1.0000   1.0000   1.0000
     1.0000   1.0000   1.0000   1.0000   1.0000   1.0000   1.0000   1.0000
     1.0000   1.0000   1.0000   1.0000   1.0000   1.0000   1.0000   1.0000
     1.0000   1.0000   1.0000   1.0000   1.0000   1.0000   1.0000   1.0000
     1.0000   1.0000   1.0000   1.0000   1.0000   1.0000   1.0000   1.0000
     1.0000   1.0000   1.0000   1.0000   1.0000   1.0000   1.0000   1.0000

          k =-0.5000 0.0000-0.0902 ( 32678 PWs)   bands (ev):

   -67.7135 -67.7090 -67.5993 -67.2250 -67.1320 -67.1282 -34.4938 -34.4842
   -34.4692 -34.4661 -34.4593 -34.4554 -34.3691 -34.3669 -34.3404 -33.9894
   -33.9852 -33.9822 -33.9175 -33.9040 -33.9032 -33.8790 -33.8773 -33.8559
   -23.1294 -23.1108 -14.8333 -14.7898 -14.5636 -14.5237 -13.9983 -13.9614
   -13.2498 -13.1946 -13.1369 -13.1066 -13.0435 -13.0248 -12.9903 -12.9532
   -12.8941 -12.7797 -12.7138 -12.6506 -12.5607 -12.4771 -12.3033 -12.1962
   -11.2272 -11.0108  -6.7041  -6.6982  -6.6187  -6.6107  -6.5905  -6.5709
    -3.4570  -3.3857  -2.9292  -2.8547  -1.8489  -1.7494  -1.3675  -1.3561
    -1.0431  -0.9148  -0.8156  -0.7362  -0.4503  -0.3527  -0.3324  -0.2681
    -0.1091  -0.0742   0.2984   0.3136   0.3713   0.4831   0.5348   0.5434
     0.8693   0.9878   1.0573   1.1036   1.3416   1.3675   1.3834   1.3887
     1.5864   1.5938   1.7055   1.7502   1.9847   2.1183   2.2616   2.2767
     2.2995   2.4675   2.5123   2.5885   2.6656   2.6886   2.7978   2.8356
     2.9045   2.9103   2.9832   2.9847   3.0334   3.0446   3.1682   3.2222
     3.2457   3.3017   3.3823   3.4024   3.4606   3.5073   3.5412   3.6513
     3.6663   3.7272   3.8448   3.9112   3.9132   4.2017   4.2368   4.2835

     occupation numbers 
     1.0000   1.0000   1.0000   1.0000   1.0000   1.0000   1.0000   1.0000
     1.0000   1.0000   1.0000   1.0000   1.0000   1.0000   1.0000   1.0000
     1.0000   1.0000   1.0000   1.0000   1.0000   1.0000   1.0000   1.0000
     1.0000   1.0000   1.0000   1.0000   1.0000   1.0000   1.0000   1.0000
     1.0000   1.0000   1.0000   1.0000   1.0000   1.0000   1.0000   1.0000
     1.0000   1.0000   1.0000   1.0000   1.0000   1.0000   1.0000   1.0000
     1.0000   1.0000   1.0000   1.0000   1.0000   1.0000   1.0000   1.0000
     1.0000   1.0000   1.0000   1.0000   1.0000   1.0000   1.0000   1.0000
     1.0000   1.0000   1.0000   1.0000   1.0000   1.0000   1.0000   1.0000
     1.0000   1.0000   1.0000   1.0000   1.0000   1.0000   1.0000   1.0000
     1.0000   1.0000   1.0000   1.0000   1.0000   1.0000   1.0000   1.0000
     1.0000   1.0000   1.0000   1.0000   1.0000   1.0000   1.0000   1.0000
     1.0000   1.0000   1.0000   1.0000   1.0000   1.0000   1.0000   1.0000
     1.0000   1.0000   1.0000   1.0000   1.0000   1.0000   1.0000   1.0000
     1.0000   1.0000   1.0000   1.0000   1.0000   1.0000   1.0000   1.0000
     1.0000   1.0000   1.0000   1.0000   1.0000   1.0000   1.0000   1.0000

          k =-0.5000 0.0000 0.0856 ( 32675 PWs)   bands (ev):

   -67.7135 -67.7090 -67.5993 -67.2250 -67.1320 -67.1282 -34.4938 -34.4843
   -34.4692 -34.4661 -34.4593 -34.4554 -34.3691 -34.3669 -34.3404 -33.9893
   -33.9852 -33.9822 -33.9176 -33.9039 -33.9032 -33.8790 -33.8773 -33.8559
   -23.1294 -23.1108 -14.8251 -14.7987 -14.5563 -14.5312 -13.9936 -13.9663
   -13.2502 -13.1933 -13.1296 -13.0933 -13.0575 -13.0484 -12.9846 -12.9422
   -12.8908 -12.7848 -12.7051 -12.6633 -12.5411 -12.4916 -12.2930 -12.2052
   -11.2261 -11.0119  -6.7042  -6.6983  -6.6186  -6.6107  -6.5905  -6.5709
    -3.4400  -3.4033  -2.9122  -2.8743  -1.8340  -1.7659  -1.3717  -1.3448
    -1.0344  -0.8979  -0.8022  -0.7373  -0.4441  -0.3641  -0.3235  -0.2823
    -0.1665  -0.1001   0.2959   0.3535   0.3746   0.4377   0.5301   0.5892
     0.9112   0.9954   1.0331   1.1495   1.2321   1.3047   1.4280   1.4645
     1.5382   1.6105   1.7662   1.8073   1.9589   2.0957   2.2137   2.2725
     2.3321   2.4564   2.4575   2.5873   2.6616   2.6877   2.7654   2.8488
     2.9033   2.9391   2.9598   2.9842   3.0317   3.0737   3.2412   3.2576
     3.2788   3.3051   3.3579   3.3865   3.4817   3.5193   3.5378   3.5797
     3.6383   3.6979   3.8137   3.8684   3.9971   4.2018   4.2494   4.2973

     occupation numbers 
     1.0000   1.0000   1.0000   1.0000   1.0000   1.0000   1.0000   1.0000
     1.0000   1.0000   1.0000   1.0000   1.0000   1.0000   1.0000   1.0000
     1.0000   1.0000   1.0000   1.0000   1.0000   1.0000   1.0000   1.0000
     1.0000   1.0000   1.0000   1.0000   1.0000   1.0000   1.0000   1.0000
     1.0000   1.0000   1.0000   1.0000   1.0000   1.0000   1.0000   1.0000
     1.0000   1.0000   1.0000   1.0000   1.0000   1.0000   1.0000   1.0000
     1.0000   1.0000   1.0000   1.0000   1.0000   1.0000   1.0000   1.0000
     1.0000   1.0000   1.0000   1.0000   1.0000   1.0000   1.0000   1.0000
     1.0000   1.0000   1.0000   1.0000   1.0000   1.0000   1.0000   1.0000
     1.0000   1.0000   1.0000   1.0000   1.0000   1.0000   1.0000   1.0000
     1.0000   1.0000   1.0000   1.0000   1.0000   1.0000   1.0000   1.0000
     1.0000   1.0000   1.0000   1.0000   1.0000   1.0000   1.0000   1.0000
     1.0000   1.0000   1.0000   1.0000   1.0000   1.0000   1.0000   1.0000
     1.0000   1.0000   1.0000   1.0000   1.0000   1.0000   1.0000   1.0000
     1.0000   1.0000   1.0000   1.0000   1.0000   1.0000   1.0000   1.0000
     1.0000   1.0000   1.0000   1.0000   1.0000   1.0000   1.0000   1.0000

          k =-0.5000 0.1921-0.0902 ( 32654 PWs)   bands (ev):

   -67.7135 -67.7090 -67.5993 -67.2250 -67.1320 -67.1282 -34.4938 -34.4842
   -34.4693 -34.4661 -34.4593 -34.4554 -34.3690 -34.3669 -34.3404 -33.9893
   -33.9852 -33.9822 -33.9176 -33.9039 -33.9033 -33.8790 -33.8773 -33.8559
   -23.1294 -23.1108 -14.8326 -14.7884 -14.5633 -14.5233 -14.0020 -13.9666
   -13.2435 -13.1988 -13.1302 -13.1082 -13.0391 -13.0369 -13.0140 -12.9205
   -12.8832 -12.7957 -12.7074 -12.6417 -12.5672 -12.4836 -12.3024 -12.1962
   -11.2269 -11.0110  -6.7044  -6.6994  -6.6190  -6.6104  -6.5895  -6.5709
    -3.4697  -3.3942  -2.9438  -2.8680  -1.8243  -1.7254  -1.3558  -1.3475
    -1.0521  -0.9372  -0.7425  -0.6841  -0.4337  -0.3550  -0.3427  -0.2620
[...]
     atom   16 type  1   force =     0.00054026   -0.00207719    0.01059233
     atom   17 type  5   force =    -0.00018414    0.00021333    0.00642696
     atom   18 type  5   force =     0.00018412    0.00021333   -0.00642696
     atom   19 type  5   force =    -0.00012960    0.00005713   -0.00697425
     atom   20 type  5   force =     0.00012960    0.00005713    0.00697425
     atom   21 type  5   force =     0.00009226   -0.00019492    0.00683257
     atom   22 type  5   force =    -0.00009226   -0.00019492   -0.00683257
     atom   23 type  5   force =     0.00011476    0.00006251   -0.00318298
     atom   24 type  5   force =    -0.00011476    0.00006251    0.00318298
     atom   25 type  5   force =     0.00469666   -0.00199917   -0.00576719
     atom   26 type  5   force =    -0.00469667   -0.00199917    0.00576716
     atom   27 type  5   force =    -0.00364851    0.00082140   -0.00712806
     atom   28 type  5   force =     0.00364852    0.00082140    0.00712804
     atom   29 type  5   force =    -0.00166708    0.00239201    0.00729280
     atom   30 type  5   force =     0.00166708    0.00239201   -0.00729280
     atom   31 type  5   force =     0.00094854   -0.00225518   -0.00746671
     atom   32 type  5   force =    -0.00094854   -0.00225518    0.00746671
     atom   33 type  5   force =    -0.00260043   -0.00348967   -0.00652482
     atom   34 type  5   force =     0.00260041   -0.00348967    0.00652483
     atom   35 type  5   force =     0.00093770    0.00436546    0.00644105
     atom   36 type  5   force =    -0.00093770    0.00436547   -0.00644105
     atom   37 type  5   force =     0.00000875    0.00084137    0.01122522
     atom   38 type  5   force =    -0.00000874    0.00084137   -0.01122522
     atom   39 type  5   force =     0.00018857   -0.00171276    0.01092534
     atom   40 type  5   force =    -0.00018856   -0.00171275   -0.01092532
     atom   41 type  2   force =     0.00000000    0.00000000    0.00000000
     atom   42 type  2   force =     0.00000000    0.00000000    0.00000000
     atom   43 type  2   force =     0.00000000    0.00000000    0.00000000
     atom   44 type  2   force =     0.00000000    0.00000000    0.00000000
     The Hubbard contrib.    to forces
     atom    1 type  3   force =     0.00000000    0.00000000    0.00000000
     atom    2 type  3   force =     0.00000000    0.00000000    0.00000000
     atom    3 type  4   force =     0.00000000    0.00000000    0.00000000
     atom    4 type  4   force =     0.00000000    0.00000000    0.00000000
     atom    5 type  4   force =     0.00000000    0.00000000    0.00000000
     atom    6 type  4   force =     0.00000000    0.00000000    0.00000000
     atom    7 type  4   force =     0.00000000    0.00000000    0.00000000
     atom    8 type  4   force =     0.00000000    0.00000000    0.00000000
     atom    9 type  6   force =     0.00000000    0.00000000    0.00000000
     atom   10 type  6   force =     0.00000000    0.00000000    0.00000000
     atom   11 type  6   force =     0.00000000    0.00000000    0.00000000
     atom   12 type  6   force =     0.00000000    0.00000000    0.00000000
     atom   13 type  6   force =     0.00000000    0.00000000    0.00000000
     atom   14 type  6   force =     0.00000000    0.00000000    0.00000000
     atom   15 type  1   force =     0.00000000    0.00000000    0.00000000
     atom   16 type  1   force =     0.00000000    0.00000000    0.00000000
     atom   17 type  5   force =     0.00000000    0.00000000    0.00000000
     atom   18 type  5   force =     0.00000000    0.00000000    0.00000000
     atom   19 type  5   force =     0.00000000    0.00000000    0.00000000
     atom   20 type  5   force =     0.00000000    0.00000000    0.00000000
     atom   21 type  5   force =     0.00000000    0.00000000    0.00000000
     atom   22 type  5   force =     0.00000000    0.00000000    0.00000000
     atom   23 type  5   force =     0.00000000    0.00000000    0.00000000
     atom   24 type  5   force =     0.00000000    0.00000000    0.00000000
     atom   25 type  5   force =     0.00000000    0.00000000    0.00000000
     atom   26 type  5   force =     0.00000000    0.00000000    0.00000000
     atom   27 type  5   force =     0.00000000    0.00000000    0.00000000
     atom   28 type  5   force =     0.00000000    0.00000000    0.00000000
     atom   29 type  5   force =     0.00000000    0.00000000    0.00000000
     atom   30 type  5   force =     0.00000000    0.00000000    0.00000000
     atom   31 type  5   force =     0.00000000    0.00000000    0.00000000
     atom   32 type  5   force =     0.00000000    0.00000000    0.00000000
     atom   33 type  5   force =     0.00000000    0.00000000    0.00000000
     atom   34 type  5   force =     0.00000000    0.00000000    0.00000000
     atom   35 type  5   force =     0.00000000    0.00000000    0.00000000
     atom   36 type  5   force =     0.00000000    0.00000000    0.00000000
     atom   37 type  5   force =     0.00000000    0.00000000    0.00000000
     atom   38 type  5   force =     0.00000000    0.00000000    0.00000000
     atom   39 type  5   force =     0.00000000    0.00000000    0.00000000
     atom   40 type  5   force =     0.00000000    0.00000000    0.00000000
     atom   41 type  2   force =     0.00000000    0.00000000    0.00000000
     atom   42 type  2   force =     0.00000000    0.00000000    0.00000000
     atom   43 type  2   force =     0.00000000    0.00000000    0.00000000
     atom   44 type  2   force =     0.00000000    0.00000000    0.00000000
     The SCF correction term to forces
     atom    1 type  3   force =    -0.00000000   -0.00000137   -0.00000000
     atom    2 type  3   force =     0.00000000    0.00000199   -0.00000000
     atom    3 type  4   force =     0.00000000    0.00000013   -0.00000000
     atom    4 type  4   force =    -0.00000000    0.00000002    0.00000000
     atom    5 type  4   force =     0.00000000    0.00000089   -0.00000000
     atom    6 type  4   force =    -0.00000000    0.00000006   -0.00000000
     atom    7 type  4   force =    -0.00000000   -0.00000236   -0.00000000
     atom    8 type  4   force =     0.00000000    0.00000123   -0.00000000
     atom    9 type  6   force =     0.00000046    0.00000033   -0.00000008
     atom   10 type  6   force =    -0.00000046    0.00000033    0.00000008
     atom   11 type  6   force =     0.00000005    0.00000027   -0.00000047
     atom   12 type  6   force =    -0.00000005    0.00000027    0.00000047
     atom   13 type  6   force =    -0.00000020   -0.00000022    0.00000090
     atom   14 type  6   force =     0.00000020   -0.00000022   -0.00000090
     atom   15 type  1   force =     0.00000011   -0.00000038   -0.00000018
     atom   16 type  1   force =    -0.00000011   -0.00000038    0.00000018
     atom   17 type  5   force =     0.00000083    0.00000018    0.00000062
     atom   18 type  5   force =    -0.00000083    0.00000018   -0.00000062
     atom   19 type  5   force =    -0.00000065   -0.00000102   -0.00000045
     atom   20 type  5   force =     0.00000065   -0.00000102    0.00000045
     atom   21 type  5   force =    -0.00000034   -0.00000003    0.00000079
     atom   22 type  5   force =     0.00000034   -0.00000003   -0.00000079
     atom   23 type  5   force =     0.00000110   -0.00000043   -0.00000073
     atom   24 type  5   force =    -0.00000110   -0.00000043    0.00000073
     atom   25 type  5   force =    -0.00000033    0.00000107    0.00000056
     atom   26 type  5   force =     0.00000033    0.00000107   -0.00000056
     atom   27 type  5   force =    -0.00000028    0.00000018    0.00000109
     atom   28 type  5   force =     0.00000028    0.00000018   -0.00000109
     atom   29 type  5   force =    -0.00000037   -0.00000015   -0.00000103
     atom   30 type  5   force =     0.00000037   -0.00000015    0.00000103
     atom   31 type  5   force =     0.00000080   -0.00000053    0.00000077
     atom   32 type  5   force =    -0.00000080   -0.00000053   -0.00000077
     atom   33 type  5   force =    -0.00000046   -0.00000029    0.00000162
     atom   34 type  5   force =     0.00000046   -0.00000029   -0.00000162
     atom   35 type  5   force =     0.00000038    0.00000063   -0.00000056
     atom   36 type  5   force =    -0.00000038    0.00000063    0.00000056
     atom   37 type  5   force =     0.00000056    0.00000028    0.00000009
     atom   38 type  5   force =    -0.00000056    0.00000028   -0.00000009
     atom   39 type  5   force =    -0.00000033    0.00000023    0.00000083
     atom   40 type  5   force =     0.00000033    0.00000023   -0.00000083
     atom   41 type  2   force =     0.00000006   -0.00000005    0.00000006
     atom   42 type  2   force =    -0.00000006   -0.00000005   -0.00000006
     atom   43 type  2   force =    -0.00000007    0.00000015    0.00000005
     atom   44 type  2   force =     0.00000007    0.00000015   -0.00000005

     DFT-D3 dispersion contribution to forces:
     atom    1 type  3   force =    -0.00000000    0.00050718    0.00000000
     atom    2 type  3   force =     0.00000000   -0.00021535    0.00000000
     atom    3 type  4   force =     0.00000000    0.00030032   -0.00000000
     atom    4 type  4   force =     0.00000000    0.00070932   -0.00000000
     atom    5 type  4   force =    -0.00000000   -0.00115847   -0.00000000
     atom    6 type  4   force =     0.00000000   -0.00060484    0.00000000
     atom    7 type  4   force =    -0.00000000    0.00115452    0.00000000
     atom    8 type  4   force =     0.00000000   -0.00019694   -0.00000000
     atom    9 type  6   force =     0.00005387   -0.00008412   -0.00029820
     atom   10 type  6   force =    -0.00005387   -0.00008412    0.00029821
     atom   11 type  6   force =     0.00006608    0.00006445    0.00024397
     atom   12 type  6   force =    -0.00006608    0.00006445   -0.00024397
     atom   13 type  6   force =    -0.00004729    0.00015961   -0.00022637
     atom   14 type  6   force =     0.00004729    0.00015961    0.00022637
     atom   15 type  1   force =     0.00004240    0.00004688   -0.00105887
     atom   16 type  1   force =    -0.00004240    0.00004688    0.00105887
     atom   17 type  5   force =    -0.00000370    0.00004570    0.00045415
     atom   18 type  5   force =     0.00000370    0.00004570   -0.00045415
     atom   19 type  5   force =    -0.00000222    0.00001310   -0.00034012
     atom   20 type  5   force =     0.00000222    0.00001310    0.00034012
     atom   21 type  5   force =    -0.00001319   -0.00005611    0.00036650
     atom   22 type  5   force =     0.00001319   -0.00005611   -0.00036650
     atom   23 type  5   force =    -0.00002297   -0.00001241    0.00008631
     atom   24 type  5   force =     0.00002297   -0.00001241   -0.00008631
     atom   25 type  5   force =    -0.00019328    0.00104496    0.00010853
     atom   26 type  5   force =     0.00019328    0.00104496   -0.00010853
     atom   27 type  5   force =     0.00080338    0.00007710    0.00017608
     atom   28 type  5   force =    -0.00080338    0.00007710   -0.00017608
     atom   29 type  5   force =     0.00041773   -0.00059656   -0.00017549
     atom   30 type  5   force =    -0.00041773   -0.00059656    0.00017549
     atom   31 type  5   force =    -0.00026176    0.00039847    0.00021748
     atom   32 type  5   force =     0.00026176    0.00039847   -0.00021748
     atom   33 type  5   force =     0.00087337   -0.00042956    0.00038614
     atom   34 type  5   force =    -0.00087337   -0.00042956   -0.00038614
     atom   35 type  5   force =     0.00064835   -0.00055163   -0.00031836
     atom   36 type  5   force =    -0.00064835   -0.00055163    0.00031837
     atom   37 type  5   force =    -0.00001720   -0.00005197   -0.00049476
     atom   38 type  5   force =     0.00001720   -0.00005197    0.00049476
     atom   39 type  5   force =     0.00000971    0.00004640   -0.00052395
     atom   40 type  5   force =    -0.00000971    0.00004640    0.00052395
     atom   41 type  2   force =     0.00001965    0.00015193   -0.00029183
     atom   42 type  2   force =    -0.00001965    0.00015193    0.00029183
     atom   43 type  2   force =     0.00012189   -0.00051412   -0.00023155
     atom   44 type  2   force =    -0.00012189   -0.00051412    0.00023155

     Total force =     0.000343     Total SCF correction =     0.000007

     DFT-D3 dispersion Force =     0.004331
     Energy error            =      2.2E-07 Ry
     Gradient error          =      8.1E-05 Ry/Bohr

     bfgs converged in  32 scf cycles and  31 bfgs steps
     (criteria: energy <  1.0E-05 Ry, force <  1.0E-04 Ry/Bohr)

     End of BFGS Geometry Optimization

     Final energy             =   -2443.7292306212 Ry

     File ./temp/phl-fe0-dftd3.bfgs deleted, as requested
Begin final coordinates

ATOMIC_POSITIONS (crystal)
K                0.0000000000        0.4958026836        0.0000000000
K                0.5000000000        0.0011288824        0.0000000000
Mg              -0.0000000000        0.0045496678        0.5000000000
Mg              -0.0000000000        0.3332546723        0.5000000000
Mg              -0.0000000000        0.6651543134        0.5000000000
Mg               0.5000000000        0.4929825032        0.5000000000
Mg               0.5000000000        0.8348370902        0.5000000000
Mg               0.5000000000        0.1723960035        0.5000000000
Si               0.0850013119        0.1650927800        0.2221055812
Si               0.9149986741        0.1650927800        0.7778944488
Si               0.9360742259        0.8344273549        0.7713362665
Si               0.0639257741        0.8344273549        0.2286637335
Si               0.5625907038        0.6662823697        0.2265509457
Si               0.4374092962        0.6662823697        0.7734490393
Al               0.4137343129        0.3308045404        0.7762394210
Al               0.5862656871        0.3308045404        0.2237605790
O                0.1278449937        0.1637539438        0.3845355161
O                0.8721549763        0.1637539438        0.6154645129
O                0.8751194739        0.8332883605        0.6102893316
O                0.1248805261        0.8332883605        0.3897106684
O                0.6246678300        0.6689820409        0.3882913225
O                0.3753321700        0.6689820409        0.6117086775
O                0.3610017514        0.3328739953        0.6040134635
O                0.6389982486        0.3328739953        0.3959865365
O                0.3461157977        0.2010336910        0.1651039353
O                0.6538842023        0.2010336910        0.8348960347
O                0.9951812758        0.9974461483        0.1671202024
O                0.0048187242        0.9974461483        0.8328797826
O                0.6855368505        0.7742174696        0.8314361556
O                0.3144631495        0.7742174696        0.1685638444
O                0.8133232465        0.7326853560        0.1676471982
O                0.1866767535        0.7326853560        0.8323528018
O                0.4959719521        0.5074737203        0.1615590441
O                0.5040280179        0.5074737203        0.8384409709
O                0.1397246639        0.2781095002        0.8412318000
O                0.8602753511        0.2781095002        0.1587682000
O                0.1304310221        0.5041416208        0.3939233853
O                0.8695689929        0.5041416208        0.6060766147
O                0.6324552644        0.9994786911        0.3972993061
O                0.3675447356        0.9994786911        0.6027006639
H                0.0990777922        0.4932027224        0.2983735835
H                0.9009222378        0.4932027224        0.7016264165
H                0.5937042212        0.0166503132        0.3024473884
H                0.4062957788        0.0166503132        0.6975526116
End final coordinates



     Writing all to output data dir ./temp/phl-fe0-dftd3.save/ :
     XML data file, charge density, pseudopotentials, collected wavefunctions

     init_run     :     70.28s CPU     70.78s WALL (       1 calls)
     electrons    :  87784.67s CPU  88311.00s WALL (      26 calls)
     update_pot   :     13.18s CPU     13.32s WALL (      25 calls)
     forces       :   1231.17s CPU   1241.50s WALL (      26 calls)
     force_dftd3  :     50.60s CPU     50.93s WALL (      26 calls)

     Called by init_run:
     wfcinit      :     67.86s CPU     68.19s WALL (       1 calls)
     wfcinit:atom :      0.05s CPU      0.05s WALL (      20 calls)
     wfcinit:wfcr :     67.38s CPU     67.71s WALL (      20 calls)
     potinit      :      0.62s CPU      0.64s WALL (       1 calls)
     hinit0       :      0.35s CPU      0.36s WALL (       1 calls)

     Called by electrons:
     c_bands      :  83009.74s CPU  83372.95s WALL (     287 calls)
     sum_band     :   4306.05s CPU   4409.29s WALL (     287 calls)
     v_of_rho     :     26.04s CPU     28.26s WALL (     288 calls)
     v_h          :      1.87s CPU      2.02s WALL (     288 calls)
     v_xc         :     26.30s CPU     28.62s WALL (     314 calls)
     newd         :    327.08s CPU    389.29s WALL (     288 calls)
     PAW_pot      :    118.45s CPU    118.55s WALL (     313 calls)
     mix_rho      :      4.70s CPU      5.01s WALL (     287 calls)
     energy_dftd3 :     39.19s CPU     39.20s WALL (      26 calls)

     Called by c_bands:
     init_us_2    :    153.25s CPU    153.51s WALL (   12520 calls)
     cegterg      :  82600.92s CPU  82963.69s WALL (    5751 calls)

     Called by sum_band:
     sum_band:wei :      0.01s CPU      0.01s WALL (     287 calls)
     sum_band:loo :   3893.45s CPU   3931.08s WALL (     287 calls)
     sum_band:buf :     20.39s CPU     20.46s WALL (    5740 calls)
     sum_band:ini :     63.92s CPU     63.99s WALL (    5740 calls)
     sum_band:cal :   3204.26s CPU   3208.51s WALL (    6240 calls)
     sum_band:bec :      8.90s CPU      8.92s WALL (    6240 calls)
     addusdens    :    343.25s CPU    408.28s WALL (     287 calls)
                                        0.00s GPU  (     287 calls)
     addusd:skk   :      2.93s CPU      2.94s WALL (    1722 calls)
                                        0.00s GPU  (    1722 calls)

     Called by *egterg:
     cdiaghg      :   2695.43s CPU   2696.10s WALL (   46464 calls)
     cegterg:over :  10763.78s CPU  10776.27s WALL (   41722 calls)
     cegterg:upda :   4951.11s CPU   4953.74s WALL (   41722 calls)
     cegterg:last :  16345.63s CPU  16352.85s WALL (   24074 calls)
     h_psi        :  31565.47s CPU  31896.23s WALL (   47493 calls)
     s_psi        :  11226.32s CPU  11230.82s WALL (   47493 calls)
     g_psi        :     56.93s CPU     57.06s WALL (   41722 calls)

     Called by h_psi:
     h_psi:calbec :  12659.81s CPU  12676.29s WALL (   47493 calls)
     vloc_psi     :   6052.91s CPU   6360.07s WALL (   47493 calls)
     add_vuspsi   :  12794.86s CPU  12800.87s WALL (   47493 calls)

     General routines
     calbec       :  16931.39s CPU  16955.04s WALL (   55813 calls)
     fft          :     19.49s CPU     21.66s WALL (    4028 calls)
     ffts         :      1.08s CPU      1.16s WALL (     575 calls)
     fftw         :   5502.90s CPU   5778.99s WALL ( 7050122 calls)
     interpolate  :      2.03s CPU      2.21s WALL (     288 calls)

     Parallel routines

     PAW routines
     PAW_pot      :    118.45s CPU    118.55s WALL (     313 calls)
     PAW_symme    :      0.18s CPU      0.19s WALL (     599 calls)

     PWSCF        :   1d 0h50m CPU   1d 0h59m WALL


   This run was terminated on:  19:52:17  29Nov2025            

=------------------------------------------------------------------------------=
   JOB DONE.
=------------------------------------------------------------------------------=
