
     Program PWSCF v.7.3.1 starts on 26Dec2024 at  0: 9:33 

     This program is part of the open-source Quantum ESPRESSO suite
     for quantum simulation of materials; please cite
         "P. Giannozzi et al., J. Phys.:Condens. Matter 21 395502 (2009);
         "P. Giannozzi et al., J. Phys.:Condens. Matter 29 465901 (2017);
         "P. Giannozzi et al., J. Chem. Phys. 152 154105 (2020);
          URL http://www.quantum-espresso.org", 
     in publications or presentations arising from this work. More details at
     http://www.quantum-espresso.org/quote

     Parallel version (MPI), running on     4 processors

     MPI processes distributed on     1 nodes
     8719 MiB available memory on the printing compute node when the environment starts

     Reading input from relax.in
Warning: card  &CELL ignored
Warning: card    CELL_DOFREE     = 'IBRAV' ignored
Warning: card  / ignored

     Current dimensions of program PWSCF are:
     Max number of different atomic species (ntypx) = 10
     Max number of k-points (npk) =  40000
     Max angular momentum in pseudopotentials (lmaxx) =  4
     file Al.pbe-n-kjpaw_psl.1.0.0.UPF: wavefunction(s)  3S 3P renormalized
     file H.pbe-kjpaw_psl.1.0.0.UPF: wavefunction(s)  1S renormalized
     file K.pbe-spn-kjpaw_psl.1.0.0.UPF: wavefunction(s)  3S renormalized
     file Mg.pbe-spnl-kjpaw_psl.1.0.0.UPF: wavefunction(s)  2P renormalized
     file O.pbe-n-kjpaw_psl.1.0.0.UPF: wavefunction(s)  2S 2P renormalized
     file Si.pbe-n-kjpaw_psl.1.0.0.UPF: wavefunction(s)  3S 3P renormalized

     R & G space division:  proc/nbgrp/npool/nimage =       4
     Subspace diagonalization in iterative solution of the eigenvalue problem:
     a serial algorithm will be used


     Parallelization info
     --------------------
     sticks:   dense  smooth     PW     G-vecs:    dense   smooth      PW
     Min        1658     832    225               146616    51868    7377
     Max        1659     833    227               146617    51870    7378
     Sum        6633    3329    905               586467   207475   29511

     Using Slab Decomposition



     bravais-lattice index     =          -12
     lattice parameter (alat)  =      10.0136  a.u.
     unit-cell volume          =    3303.4414 (a.u.)^3
     number of atoms/cell      =           44
     number of atomic types    =            6
     number of electrons       =       256.00
     number of Kohn-Sham states=          128
     kinetic-energy cutoff     =      60.0000  Ry
     charge density cutoff     =     480.0000  Ry
     scf convergence threshold =      1.0E-06
     mixing beta               =       0.7000
     number of iterations used =            8  plain     mixing
     energy convergence thresh.=      1.0E-04
     force convergence thresh. =      1.0E-03
     Exchange-correlation= SLA  PW   PBX  PBC
                           (   1   4   3   4   0   0   0)
     nstep                     =           50


     celldm(1)=  10.013640  celldm(2)=   1.735306  celldm(3)=   1.926511
     celldm(4)=   0.000000  celldm(5)=  -0.177565  celldm(6)=   0.000000

     crystal axes: (cart. coord. in units of alat)
               a(1) = (   1.000000   0.000000   0.000000 )  
               a(2) = (   0.000000   1.735306   0.000000 )  
               a(3) = (  -0.342081   0.000000   1.895896 )  

     reciprocal axes: (cart. coord. in units 2 pi/alat)
               b(1) = (  1.000000 -0.000000  0.180432 )  
               b(2) = (  0.000000  0.576267 -0.000000 )  
               b(3) = (  0.000000  0.000000  0.527455 )  


     PseudoPot. # 1 for Al read from file:
     ./../../pseudos/Al.pbe-n-kjpaw_psl.1.0.0.UPF
     MD5 check sum: 502b6b27b9c6270cab5dd1084b96fa6d
     Pseudo is Projector augmented-wave + core cor, Zval =  3.0
     Generated using &quot;atomic&quot; code by A. Dal Corso  v.6.3
     Shape of augmentation charge: PSQ
     Using radial grid of 1135 points,  6 beta functions with: 
                l(1) =   0
                l(2) =   0
                l(3) =   1
                l(4) =   1
                l(5) =   2
                l(6) =   2
     Q(r) pseudized with 0 coefficients 


     PseudoPot. # 2 for H  read from file:
     ./../../pseudos/H.pbe-kjpaw_psl.1.0.0.UPF
     MD5 check sum: d81a744832360e4a8af0b0b5b123bc2a
     Pseudo is Projector augmented-wave, Zval =  1.0
     Generated using &quot;atomic&quot; code by A. Dal Corso  v.6.3MaX
     Shape of augmentation charge: PSQ
     Using radial grid of  929 points,  2 beta functions with: 
                l(1) =   0
                l(2) =   0
     Q(r) pseudized with 0 coefficients 


     PseudoPot. # 3 for K  read from file:
     ./../../pseudos/K.pbe-spn-kjpaw_psl.1.0.0.UPF
     MD5 check sum: 34cc42130a09071ebe376fd42eb21491
     Pseudo is Projector augmented-wave + core cor, Zval =  9.0
     Generated using &quot;atomic&quot; code by A. Dal Corso  v.6.2.2
     Shape of augmentation charge: PSQ
     Using radial grid of 1165 points,  6 beta functions with: 
                l(1) =   0
                l(2) =   0
                l(3) =   1
                l(4) =   1
                l(5) =   2
                l(6) =   2
     Q(r) pseudized with 0 coefficients 


     PseudoPot. # 4 for Mg read from file:
     ./../../pseudos/Mg.pbe-spnl-kjpaw_psl.1.0.0.UPF
     MD5 check sum: fda14e0d92a6a9a5ebed782e5a4b3067
     Pseudo is Projector augmented-wave + core cor, Zval = 10.0
     Generated using &quot;atomic&quot; code by A. Dal Corso  v.6.3
     Shape of augmentation charge: PSQ
     Using radial grid of 1129 points,  4 beta functions with: 
                l(1) =   0
                l(2) =   0
                l(3) =   1
                l(4) =   1
     Q(r) pseudized with 0 coefficients 


     PseudoPot. # 5 for O  read from file:
     ./../../pseudos/O.pbe-n-kjpaw_psl.1.0.0.UPF
     MD5 check sum: e99d9cef9b487d1ca56f5b95ecd0fd7a
     Pseudo is Projector augmented-wave + core cor, Zval =  6.0
     Generated using &quot;atomic&quot; code by A. Dal Corso  v.6.3
     Shape of augmentation charge: PSQ
     Using radial grid of 1095 points,  4 beta functions with: 
                l(1) =   0
                l(2) =   0
                l(3) =   1
                l(4) =   1
     Q(r) pseudized with 0 coefficients 


     PseudoPot. # 6 for Si read from file:
     ./../../pseudos/Si.pbe-n-kjpaw_psl.1.0.0.UPF
     MD5 check sum: c39c59da582df4a0d9f10159256ea34e
     Pseudo is Projector augmented-wave + core cor, Zval =  4.0
     Generated using &quot;atomic&quot; code by A. Dal Corso  v.6.3
     Shape of augmentation charge: PSQ
     Using radial grid of 1141 points,  6 beta functions with: 
                l(1) =   0
                l(2) =   0
                l(3) =   1
                l(4) =   1
                l(5) =   2
                l(6) =   2
     Q(r) pseudized with 0 coefficients 


     atomic species   valence    mass     pseudopotential
     Al                3.00    26.98154     Al( 1.00)
     H                 1.00     1.00794     H ( 1.00)
     K                 9.00    39.09830     K ( 1.00)
     Mg               10.00    24.30500     Mg( 1.00)
     O                 6.00    15.99940     O ( 1.00)
     Si                4.00    28.08550     Si( 1.00)

      2 Sym. Ops. (no inversion) found


                                    s                        frac. trans.

      isym =  1     identity                                     

 cryst.   s( 1) = (     1          0          0      )
                  (     0          1          0      )
                  (     0          0          1      )

 cart.    s( 1) = (  1.0000000  0.0000000 -0.0000000 )
                  (  0.0000000  1.0000000  0.0000000 )
                  (  0.0000000  0.0000000  1.0000000 )


      isym =  2     180 deg rotation - cart. axis [0,1,0]        

 cryst.   s( 2) = (    -1          0          0      )
                  (     0          1          0      )
                  (     0          0         -1      )

 cart.    s( 2) = ( -1.0000000  0.0000000  0.0000000 )
                  (  0.0000000  1.0000000  0.0000000 )
                  (  0.0000000  0.0000000 -1.0000000 )


     point group C_2  (2)   
     there are  2 classes
     the character table:

       E     C2   
A      1.00  1.00
B      1.00 -1.00

     the symmetry operations in each class and the name of the first element:

     E        1
          identity                                               
     C2       2
          180 deg rotation - cart. axis [0,1,0]                  

   Cartesian axes

     site n.     atom                  positions (alat units)
         1        K      tau(   1) = (   0.0000000   0.8559224   0.0000000  )
         2        K      tau(   2) = (   0.5000000   0.0093568   0.0000000  )
         3        Mg     tau(   3) = (  -0.1710407   0.0067712   0.9479482  )
         4        Mg     tau(   4) = (  -0.1710407   0.5780843   0.9479482  )
         5        Mg     tau(   5) = (  -0.1710407   1.1543881   0.9479482  )
         6        Mg     tau(   6) = (   0.3289593   0.8562226   0.9479482  )
         7        Mg     tau(   7) = (   0.3289593   1.4480089   0.9479482  )
         8        Mg     tau(   8) = (   0.3289593   0.2986375   0.9479482  )
         9        Si     tau(   9) = (   0.0066674   0.2865251   0.4219393  )
        10        Si     tau(  10) = (   0.6512512   0.2865251   1.4739571  )
        11        Si     tau(  11) = (   0.6701371   1.4476688   1.4628623  )
        12        Si     tau(  12) = (  -0.0122184   1.4476688   0.4330341  )
        13        Si     tau(  13) = (   0.4872056   1.1568454   0.4292651  )
        14        Si     tau(  14) = (   0.1707131   1.1568454   1.4666313  )
        15        Al     tau(  15) = (   0.1506005   0.5746762   1.4713786  )
        16        Al     tau(  16) = (   0.5073182   0.5746762   0.4245178  )
        17        O      tau(  17) = (  -0.0043508   0.2833738   0.7297400  )
        18        O      tau(  18) = (   0.6622695   0.2833738   1.1661564  )
        19        O      tau(  19) = (   0.6658139   1.4451231   1.1576912  )
        20        O      tau(  20) = (  -0.0078952   1.4451231   0.7382052  )
        21        O      tau(  21) = (   0.4926234   1.1618863   0.7357690  )
        22        O      tau(  22) = (   0.1652953   1.1618863   1.1601274  )
        23        O      tau(  23) = (   0.1548298   0.5779784   1.1454267  )
        24        O      tau(  24) = (   0.5030889   0.5779784   0.7504697  )
        25        O      tau(  25) = (   0.2847398   0.3548857   0.3143567  )
        26        O      tau(  26) = (   0.3731789   0.3548857   1.5815397  )
        27        O      tau(  27) = (   0.9404978   1.7303189   0.3181314  )
        28        O      tau(  28) = (  -0.2825791   1.7303189   1.5777650  )
        29        O      tau(  29) = (   0.3988927   1.3439356   1.5754330  )
        30        O      tau(  30) = (   0.2590260   1.3439356   0.3204634  )
        31        O      tau(  31) = (   0.7582660   1.2710892   0.3185125  )
        32        O      tau(  32) = (  -0.1003473   1.2710892   1.5773839  )
        33        O      tau(  33) = (   0.4432368   0.8811364   0.3085875  )
        34        O      tau(  34) = (   0.2146819   0.8811364   1.5873090  )
        35        O      tau(  35) = (  -0.1423236   0.4782556   1.5925436  )
        36        O      tau(  36) = (   0.8002423   0.4782556   0.3033529  )
        37        O      tau(  37) = (  -0.0041068   0.8750247   0.7469263  )
        38        O      tau(  38) = (   0.6620255   0.8750247   1.1489701  )
        39        O      tau(  39) = (   0.4966158   1.7335917   0.7534577  )
        40        O      tau(  40) = (   0.1613029   1.7335917   1.1424387  )
        41        H      tau(  41) = (  -0.0032097   0.8603995   0.5673129  )
        42        H      tau(  42) = (   0.6611284   0.8603995   1.3285835  )
        43        H      tau(  43) = (   0.4926802   0.0219534   0.5746291  )
        44        H      tau(  44) = (   0.1652385   0.0219534   1.3212673  )

     --------------------------------------------
     DFT-D3 Dispersion Correction (3-body terms):
     --------------------------------------------
       Reference C6 values for interpolation: 

         atom   Coordination number   C6
         H          0.912             6.05
         H          0.000            15.18
         O          0.000            31.01
         O          0.993            25.63
         O          1.989            20.74
         Mg         0.000          1366.75
         Mg         0.963           902.54
         Mg         1.950           351.12
         Al         0.000          1081.08
         Al         0.965           875.51
         Al         1.931           513.50
         Al         2.915           307.19
         Si         0.000           635.71
         Si         0.951           540.53
         Si         1.944           466.25
         Si         2.941           443.01
         Si         3.868           299.55
         K          0.000          9967.00
         K          0.977           676.04

       Values used:

         atom   Coordination number  R0_AB[au]  C6      C8
         K         13.618            4.007    676.04 129074.98
         K         13.832            4.007    676.04 129074.98
         Mg        11.862            3.292    351.12  31436.69
         Mg        12.215            3.292    351.12  31436.69
         Mg        11.802            3.292    351.12  31436.69
         Mg        12.075            3.292    351.12  31436.69
         Mg        11.766            3.292    351.12  31436.69
         Mg        12.233            3.292    351.12  31436.69
         Si         6.969            3.583    299.55  21425.58
         Si         6.969            3.583    299.55  21425.58
         Si         6.546            3.583    299.55  21425.58
         Si         6.546            3.583    299.55  21425.58
         Si         6.597            3.583    299.55  21425.58
         Si         6.597            3.583    299.55  21425.58
         Al         7.870            3.789    307.19  29441.29
         Al         7.870            3.789    307.19  29441.29
         O          3.931            2.345     20.74    418.58
         O          3.931            2.345     20.74    418.58
         O          3.930            2.345     20.74    418.58
         O          3.930            2.345     20.74    418.58
         O          3.913            2.345     20.74    418.58
         O          3.913            2.345     20.74    418.58
         O          3.992            2.345     20.74    418.58
         O          3.992            2.345     20.74    418.58
         O          3.192            2.345     20.74    418.58
         O          3.192            2.345     20.74    418.58
         O          3.154            2.345     20.74    418.58
         O          3.154            2.345     20.74    418.58
         O          3.056            2.345     20.74    418.58
         O          3.056            2.345     20.74    418.58
         O          3.060            2.345     20.74    418.58
         O          3.060            2.345     20.74    418.58
         O          3.190            2.345     20.74    418.58
         O          3.190            2.345     20.74    418.58
         O          3.263            2.345     20.74    418.58
         O          3.263            2.345     20.74    418.58
         O          4.005            2.345     20.74    418.58
         O          4.005            2.345     20.74    418.58
         O          4.004            2.345     20.74    418.58
         O          4.004            2.345     20.74    418.58
         H          1.323            2.062      6.07     73.32
         H          1.323            2.062      6.07     73.32
         H          1.300            2.062      6.07     73.35
         H          1.300            2.062      6.07     73.35

         Molecular C6 ( Ry / a.u.^6 ) =    168241.01


   Crystallographic axes

     site n.     atom                  positions (cryst. coord.)
         1        K      tau(   1) = (  0.0000000  0.4932400  0.0000000  )
         2        K      tau(   2) = (  0.5000000  0.0053920  0.0000000  )
         3        Mg     tau(   3) = (  0.0000000  0.0039020  0.5000000  )
         4        Mg     tau(   4) = (  0.0000000  0.3331310  0.5000000  )
         5        Mg     tau(   5) = (  0.0000000  0.6652360  0.5000000  )
         6        Mg     tau(   6) = (  0.5000000  0.4934130  0.5000000  )
         7        Mg     tau(   7) = (  0.5000000  0.8344400  0.5000000  )
         8        Mg     tau(   8) = (  0.5000000  0.1720950  0.5000000  )
         9        Si     tau(   9) = (  0.0827990  0.1651150  0.2225540  )
        10        Si     tau(  10) = (  0.9172010  0.1651150  0.7774460  )
        11        Si     tau(  11) = (  0.9340850  0.8342440  0.7715940  )
        12        Si     tau(  12) = (  0.0659150  0.8342440  0.2284060  )
        13        Si     tau(  13) = (  0.5646590  0.6666520  0.2264180  )
        14        Si     tau(  14) = (  0.4353410  0.6666520  0.7735820  )
        15        Al     tau(  15) = (  0.4160850  0.3311670  0.7760860  )
        16        Al     tau(  16) = (  0.5839150  0.3311670  0.2239140  )
        17        O      tau(  17) = (  0.1273180  0.1632990  0.3849050  )
        18        O      tau(  18) = (  0.8726820  0.1632990  0.6150950  )
        19        O      tau(  19) = (  0.8746990  0.8327770  0.6106300  )
        20        O      tau(  20) = (  0.1253010  0.8327770  0.3893700  )
        21        O      tau(  21) = (  0.6253800  0.6695570  0.3880850  )
        22        O      tau(  22) = (  0.3746200  0.6695570  0.6119150  )
        23        O      tau(  23) = (  0.3615020  0.3330700  0.6041610  )
        24        O      tau(  24) = (  0.6384980  0.3330700  0.3958390  )
        25        O      tau(  25) = (  0.3414600  0.2045090  0.1658090  )
        26        O      tau(  26) = (  0.6585400  0.2045090  0.8341910  )
        27        O      tau(  27) = (  0.9978990  0.9971260  0.1678000  )
        28        O      tau(  28) = (  0.0021010  0.9971260  0.8322000  )
        29        O      tau(  29) = (  0.6831520  0.7744660  0.8309700  )
        30        O      tau(  30) = (  0.3168480  0.7744660  0.1690300  )
        31        O      tau(  31) = (  0.8157360  0.7324870  0.1680010  )
        32        O      tau(  32) = (  0.1842640  0.7324870  0.8319990  )
        33        O      tau(  33) = (  0.4989160  0.5077700  0.1627660  )
        34        O      tau(  34) = (  0.5010840  0.5077700  0.8372340  )
        35        O      tau(  35) = (  0.1450230  0.2756030  0.8399950  )
        36        O      tau(  36) = (  0.8549770  0.2756030  0.1600050  )
        37        O      tau(  37) = (  0.1306630  0.5042480  0.3939700  )
        38        O      tau(  38) = (  0.8693370  0.5042480  0.6060300  )
        39        O      tau(  39) = (  0.6325640  0.9990120  0.3974150  )
        40        O      tau(  40) = (  0.3674360  0.9990120  0.6025850  )
        41        H      tau(  41) = (  0.0991520  0.4958200  0.2992320  )
        42        H      tau(  42) = (  0.9008480  0.4958200  0.7007680  )
        43        H      tau(  43) = (  0.5963620  0.0126510  0.3030910  )
        44        H      tau(  44) = (  0.4036380  0.0126510  0.6969090  )

     number of k points=    20
                       cart. coord. in units 2pi/alat
        k(    1) = (   0.0000000   0.0000000   0.0000000), wk =   0.0370370
        k(    2) = (   0.0000000   0.0000000   0.1758183), wk =   0.0740741
        k(    3) = (   0.0000000   0.1920891   0.0000000), wk =   0.0740741
        k(    4) = (   0.0000000   0.1920891   0.1758183), wk =   0.1481481
        k(    5) = (   0.1666667   0.0000000   0.0300721), wk =   0.0740741
        k(    6) = (   0.1666667   0.0000000   0.2058904), wk =   0.0740741
        k(    7) = (   0.1666667   0.0000000  -0.1457462), wk =   0.0740741
        k(    8) = (   0.1666667   0.1920891   0.0300721), wk =   0.1481481
        k(    9) = (   0.1666667   0.1920891   0.2058904), wk =   0.1481481
        k(   10) = (   0.1666667   0.1920891  -0.1457462), wk =   0.1481481
        k(   11) = (   0.3333333   0.0000000   0.0601442), wk =   0.0740741
        k(   12) = (   0.3333333   0.0000000   0.2359625), wk =   0.0740741
        k(   13) = (   0.3333333   0.0000000  -0.1156742), wk =   0.0740741
        k(   14) = (   0.3333333   0.1920891   0.0601442), wk =   0.1481481
        k(   15) = (   0.3333333   0.1920891   0.2359625), wk =   0.1481481
        k(   16) = (   0.3333333   0.1920891  -0.1156742), wk =   0.1481481
        k(   17) = (  -0.5000000   0.0000000  -0.0902162), wk =   0.0370370
        k(   18) = (  -0.5000000   0.0000000   0.0856021), wk =   0.0740741
        k(   19) = (  -0.5000000   0.1920891  -0.0902162), wk =   0.0740741
        k(   20) = (  -0.5000000   0.1920891   0.0856021), wk =   0.1481481

                       cryst. coord.
        k(    1) = (   0.0000000   0.0000000   0.0000000), wk =   0.0370370
        k(    2) = (   0.0000000   0.0000000   0.3333333), wk =   0.0740741
        k(    3) = (   0.0000000   0.3333333   0.0000000), wk =   0.0740741
        k(    4) = (   0.0000000   0.3333333   0.3333333), wk =   0.1481481
        k(    5) = (   0.1666667   0.0000000  -0.0000000), wk =   0.0740741
        k(    6) = (   0.1666667   0.0000000   0.3333333), wk =   0.0740741
        k(    7) = (   0.1666667   0.0000000  -0.3333333), wk =   0.0740741
        k(    8) = (   0.1666667   0.3333333  -0.0000000), wk =   0.1481481
        k(    9) = (   0.1666667   0.3333333   0.3333333), wk =   0.1481481
        k(   10) = (   0.1666667   0.3333333  -0.3333333), wk =   0.1481481
        k(   11) = (   0.3333333   0.0000000  -0.0000000), wk =   0.0740741
        k(   12) = (   0.3333333   0.0000000   0.3333333), wk =   0.0740741
        k(   13) = (   0.3333333   0.0000000  -0.3333333), wk =   0.0740741
        k(   14) = (   0.3333333   0.3333333  -0.0000000), wk =   0.1481481
        k(   15) = (   0.3333333   0.3333333   0.3333333), wk =   0.1481481
        k(   16) = (   0.3333333   0.3333333  -0.3333333), wk =   0.1481481
        k(   17) = (  -0.5000000   0.0000000   0.0000000), wk =   0.0370370
        k(   18) = (  -0.5000000   0.0000000   0.3333333), wk =   0.0740741
        k(   19) = (  -0.5000000   0.3333333   0.0000000), wk =   0.0740741
        k(   20) = (  -0.5000000   0.3333333   0.3333333), wk =   0.1481481

     Dense  grid:   586467 G-vectors     FFT dimensions: (  72, 125, 135)

     Smooth grid:   207475 G-vectors     FFT dimensions: (  50,  90,  96)

     Dynamical RAM for                 wfc:      12.66 MB

     Dynamical RAM for     wfc (w. buffer):     265.82 MB

     Dynamical RAM for           str. fact:      13.42 MB

     Dynamical RAM for           local pot:       0.00 MB

     Dynamical RAM for          nlocal pot:      42.33 MB

     Dynamical RAM for                qrad:      10.55 MB

     Dynamical RAM for          rho,v,vnew:      13.72 MB

     Dynamical RAM for               rhoin:       4.57 MB

     Dynamical RAM for            rho*nmix:      35.80 MB

     Dynamical RAM for           G-vectors:       8.79 MB

     Dynamical RAM for          h,s,v(r/c):       3.00 MB

     Dynamical RAM for          <psi|beta>:       0.84 MB

     Dynamical RAM for                 psi:      25.32 MB

     Dynamical RAM for                hpsi:      25.32 MB

     Dynamical RAM for                spsi:      25.32 MB

     Dynamical RAM for      wfcinit/wfcrot:      35.93 MB

     Dynamical RAM for           addusdens:     469.81 MB

     Dynamical RAM for          addusforce:     573.94 MB

     Dynamical RAM for         addusstress:     449.68 MB

     Estimated static dynamical RAM per process >     386.52 MB

     Estimated max dynamical RAM per process >     996.25 MB

     Estimated total dynamical RAM >       3.89 GB

     Check: negative core charge=   -0.000004

     Initial potential from superposition of free atoms

     starting charge     255.9488, renormalised to     256.0000
     Starting wfcs are  178 randomized atomic wfcs
     Checking if some PAW data can be deallocated... 
       PAW data deallocated on    3 nodes for type:  1
       PAW data deallocated on    3 nodes for type:  2
       PAW data deallocated on    3 nodes for type:  3
       PAW data deallocated on    3 nodes for type:  4
       PAW data deallocated on    1 nodes for type:  5
       PAW data deallocated on    2 nodes for type:  6

     total cpu time spent up to now is      117.1 secs

     Self-consistent Calculation

     iteration #  1     ecut=    60.00 Ry     beta= 0.70
     Davidson diagonalization with overlap

---- Real-time Memory Report at c_bands before calling an iterative solver
           544 MiB given to the printing process from OS
             0 MiB allocation reported by mallinfo(arena+hblkhd)
          6977 MiB available memory on the node where the printing process lives
------------------
     ethr =  1.00E-02,  avg # of iterations =  2.0

     total cpu time spent up to now is      373.0 secs

     total energy              =   -2435.25225159 Ry
     estimated scf accuracy    <      13.05023230 Ry

     iteration #  2     ecut=    60.00 Ry     beta= 0.70
     Davidson diagonalization with overlap

---- Real-time Memory Report at c_bands before calling an iterative solver
           872 MiB given to the printing process from OS
             0 MiB allocation reported by mallinfo(arena+hblkhd)
          6169 MiB available memory on the node where the printing process lives
------------------
     ethr =  5.10E-03,  avg # of iterations =  5.7

     total cpu time spent up to now is      861.2 secs

     total energy              =   -2441.95661518 Ry
     estimated scf accuracy    <      11.35209918 Ry

     iteration #  3     ecut=    60.00 Ry     beta= 0.70
     Davidson diagonalization with overlap

---- Real-time Memory Report at c_bands before calling an iterative solver
           874 MiB given to the printing process from OS
             0 MiB allocation reported by mallinfo(arena+hblkhd)
          6151 MiB available memory on the node where the printing process lives
------------------
     ethr =  4.43E-03,  avg # of iterations =  2.0

     total cpu time spent up to now is     1100.5 secs

     total energy              =   -2441.05459248 Ry
     estimated scf accuracy    <       2.55594869 Ry

     iteration #  4     ecut=    60.00 Ry     beta= 0.70
     Davidson diagonalization with overlap

---- Real-time Memory Report at c_bands before calling an iterative solver
           876 MiB given to the printing process from OS
             0 MiB allocation reported by mallinfo(arena+hblkhd)
          6150 MiB available memory on the node where the printing process lives
------------------
     ethr =  9.98E-04,  avg # of iterations =  6.8

     total cpu time spent up to now is     1696.8 secs

     total energy              =   -2443.93381284 Ry
     estimated scf accuracy    <       2.85179444 Ry

     iteration #  5     ecut=    60.00 Ry     beta= 0.70
     Davidson diagonalization with overlap

---- Real-time Memory Report at c_bands before calling an iterative solver
           877 MiB given to the printing process from OS
             0 MiB allocation reported by mallinfo(arena+hblkhd)
          6182 MiB available memory on the node where the printing process lives
------------------
     ethr =  9.98E-04,  avg # of iterations =  1.0

     total cpu time spent up to now is     1894.1 secs

     total energy              =   -2443.23843733 Ry
     estimated scf accuracy    <       1.71487032 Ry

     iteration #  6     ecut=    60.00 Ry     beta= 0.70
     Davidson diagonalization with overlap

---- Real-time Memory Report at c_bands before calling an iterative solver
           879 MiB given to the printing process from OS
             0 MiB allocation reported by mallinfo(arena+hblkhd)
          6183 MiB available memory on the node where the printing process lives
------------------
     ethr =  6.70E-04,  avg # of iterations =  2.3

     total cpu time spent up to now is     2166.5 secs

     total energy              =   -2443.45864321 Ry
     estimated scf accuracy    <       0.26704343 Ry

     iteration #  7     ecut=    60.00 Ry     beta= 0.70
     Davidson diagonalization with overlap

---- Real-time Memory Report at c_bands before calling an iterative solver
           881 MiB given to the printing process from OS
             0 MiB allocation reported by mallinfo(arena+hblkhd)
          6181 MiB available memory on the node where the printing process lives
------------------
     ethr =  1.04E-04,  avg # of iterations =  6.2

     total cpu time spent up to now is     2664.5 secs

     total energy              =   -2443.68845524 Ry
     estimated scf accuracy    <       0.00691797 Ry

     iteration #  8     ecut=    60.00 Ry     beta= 0.70
     Davidson diagonalization with overlap

---- Real-time Memory Report at c_bands before calling an iterative solver
           883 MiB given to the printing process from OS
             0 MiB allocation reported by mallinfo(arena+hblkhd)
          6171 MiB available memory on the node where the printing process lives
------------------
     ethr =  2.70E-06,  avg # of iterations = 10.7

     total cpu time spent up to now is     3387.3 secs

     total energy              =   -2443.69819892 Ry
     estimated scf accuracy    <       0.01829783 Ry

     iteration #  9     ecut=    60.00 Ry     beta= 0.70
     Davidson diagonalization with overlap

---- Real-time Memory Report at c_bands before calling an iterative solver
           884 MiB given to the printing process from OS
             0 MiB allocation reported by mallinfo(arena+hblkhd)
          6223 MiB available memory on the node where the printing process lives
------------------
     ethr =  2.70E-06,  avg # of iterations =  5.0

     total cpu time spent up to now is     3672.9 secs

     total energy              =   -2443.69758107 Ry
     estimated scf accuracy    <       0.00529733 Ry

     iteration # 10     ecut=    60.00 Ry     beta= 0.70
     Davidson diagonalization with overlap

---- Real-time Memory Report at c_bands before calling an iterative solver
           886 MiB given to the printing process from OS
             0 MiB allocation reported by mallinfo(arena+hblkhd)
          6236 MiB available memory on the node where the printing process lives
------------------
     ethr =  2.07E-06,  avg # of iterations =  4.8

     total cpu time spent up to now is     4079.5 secs

     total energy              =   -2443.69991467 Ry
     estimated scf accuracy    <       0.00017469 Ry

     iteration # 11     ecut=    60.00 Ry     beta= 0.70
     Davidson diagonalization with overlap

---- Real-time Memory Report at c_bands before calling an iterative solver
           886 MiB given to the printing process from OS
             0 MiB allocation reported by mallinfo(arena+hblkhd)
          6238 MiB available memory on the node where the printing process lives
------------------
     ethr =  6.82E-08,  avg # of iterations = 12.8

     total cpu time spent up to now is     4855.6 secs

     total energy              =   -2443.70035832 Ry
     estimated scf accuracy    <       0.00006437 Ry

     iteration # 12     ecut=    60.00 Ry     beta= 0.70
     Davidson diagonalization with overlap

---- Real-time Memory Report at c_bands before calling an iterative solver
           886 MiB given to the printing process from OS
             0 MiB allocation reported by mallinfo(arena+hblkhd)
          6237 MiB available memory on the node where the printing process lives
------------------
     ethr =  2.51E-08,  avg # of iterations =  8.8

     total cpu time spent up to now is     5447.0 secs

     total energy              =   -2443.70039813 Ry
     estimated scf accuracy    <       0.00027860 Ry

     iteration # 13     ecut=    60.00 Ry     beta= 0.70
     Davidson diagonalization with overlap

---- Real-time Memory Report at c_bands before calling an iterative solver
           886 MiB given to the printing process from OS
             0 MiB allocation reported by mallinfo(arena+hblkhd)
          6240 MiB available memory on the node where the printing process lives
------------------
     ethr =  2.51E-08,  avg # of iterations =  1.9

     total cpu time spent up to now is     5670.7 secs

     total energy              =   -2443.70030058 Ry
     estimated scf accuracy    <       0.00023950 Ry

     iteration # 14     ecut=    60.00 Ry     beta= 0.70
     Davidson diagonalization with overlap

---- Real-time Memory Report at c_bands before calling an iterative solver
           886 MiB given to the printing process from OS
             0 MiB allocation reported by mallinfo(arena+hblkhd)
          6236 MiB available memory on the node where the printing process lives
------------------
     ethr =  2.51E-08,  avg # of iterations =  5.8

     total cpu time spent up to now is     6044.3 secs

     total energy              =   -2443.70033610 Ry
     estimated scf accuracy    <       0.00003290 Ry

     iteration # 15     ecut=    60.00 Ry     beta= 0.70
     Davidson diagonalization with overlap

---- Real-time Memory Report at c_bands before calling an iterative solver
           886 MiB given to the printing process from OS
             0 MiB allocation reported by mallinfo(arena+hblkhd)
          6237 MiB available memory on the node where the printing process lives
------------------
     ethr =  1.29E-08,  avg # of iterations =  2.2

     total cpu time spent up to now is     6297.8 secs

     total energy              =   -2443.70032385 Ry
     estimated scf accuracy    <       0.00004120 Ry

     iteration # 16     ecut=    60.00 Ry     beta= 0.70
     Davidson diagonalization with overlap

---- Real-time Memory Report at c_bands before calling an iterative solver
           886 MiB given to the printing process from OS
             0 MiB allocation reported by mallinfo(arena+hblkhd)
          6236 MiB available memory on the node where the printing process lives
------------------
     ethr =  1.29E-08,  avg # of iterations =  5.0

     total cpu time spent up to now is     6578.0 secs

     total energy              =   -2443.70033078 Ry
     estimated scf accuracy    <       0.00000526 Ry

     iteration # 17     ecut=    60.00 Ry     beta= 0.70
     Davidson diagonalization with overlap

---- Real-time Memory Report at c_bands before calling an iterative solver
           886 MiB given to the printing process from OS
             0 MiB allocation reported by mallinfo(arena+hblkhd)
          6237 MiB available memory on the node where the printing process lives
------------------
     ethr =  2.06E-09,  avg # of iterations =  7.5

     total cpu time spent up to now is     7092.7 secs

     total energy              =   -2443.70033741 Ry
     estimated scf accuracy    <       0.00000200 Ry

     iteration # 18     ecut=    60.00 Ry     beta= 0.70
     Davidson diagonalization with overlap

---- Real-time Memory Report at c_bands before calling an iterative solver
           886 MiB given to the printing process from OS
             0 MiB allocation reported by mallinfo(arena+hblkhd)
          6235 MiB available memory on the node where the printing process lives
------------------
     ethr =  7.82E-10,  avg # of iterations =  3.0

     total cpu time spent up to now is     7342.5 secs

     total energy              =   -2443.70033694 Ry
     estimated scf accuracy    <       0.00000181 Ry

     iteration # 19     ecut=    60.00 Ry     beta= 0.70
     Davidson diagonalization with overlap

---- Real-time Memory Report at c_bands before calling an iterative solver
           886 MiB given to the printing process from OS
             0 MiB allocation reported by mallinfo(arena+hblkhd)
          6241 MiB available memory on the node where the printing process lives
------------------
     ethr =  7.07E-10,  avg # of iterations =  2.0

     total cpu time spent up to now is     7603.8 secs

     End of self-consistent calculation

          k = 0.0000 0.0000 0.0000 ( 25927 PWs)   bands (ev):

   -67.6757 -67.6733 -67.5611 -67.1926 -67.1002 -67.0930 -34.4524 -34.4336
   -34.4293 -34.4225 -34.4138 -34.4116 -34.3236 -34.3210 -34.2952 -33.9503
   -33.9444 -33.9422 -33.8734 -33.8726 -33.8586 -33.8402 -33.8323 -33.8135
   -23.2034 -23.1850 -15.2407 -15.1879 -14.2958 -14.2512 -13.7854 -13.7620
   -13.5420 -13.4346 -13.3952 -13.2190 -13.0225 -12.9794 -12.9731 -12.9634
   -12.8835 -12.7750 -12.6107 -12.5356 -12.4329 -12.4050 -12.3363 -12.1998
   -11.1755 -10.9309  -6.7749  -6.7491  -6.6967  -6.6893  -6.6619  -6.6578
    -4.4411  -4.3828  -2.5690  -2.4734  -1.9366  -1.4523  -1.2994  -1.2935
    -1.2457  -1.1611  -0.7794  -0.7046  -0.5881  -0.4986  -0.4977  -0.2904
    -0.1002  -0.0045   0.1200   0.3616   0.4415   0.4685   0.5681   0.7451
     0.7764   1.0186   1.2006   1.2166   1.2826   1.4052   1.4285   1.5293
     1.7500   1.7527   1.8690   1.9550   1.9580   2.1124   2.1382   2.1996
     2.3142   2.3638   2.5041   2.5163   2.5940   2.6330   2.7390   2.7792
     2.7952   2.8880   2.9078   2.9935   3.1156   3.1793   3.2175   3.2914
     3.3369   3.3851   3.4685   3.4835   3.5406   3.6519   3.7177   3.7241
     3.7849   3.8277   3.8317   4.0168   4.0467   4.2165   4.3819   4.4996

     occupation numbers 
     1.0000   1.0000   1.0000   1.0000   1.0000   1.0000   1.0000   1.0000
     1.0000   1.0000   1.0000   1.0000   1.0000   1.0000   1.0000   1.0000
     1.0000   1.0000   1.0000   1.0000   1.0000   1.0000   1.0000   1.0000
     1.0000   1.0000   1.0000   1.0000   1.0000   1.0000   1.0000   1.0000
     1.0000   1.0000   1.0000   1.0000   1.0000   1.0000   1.0000   1.0000
     1.0000   1.0000   1.0000   1.0000   1.0000   1.0000   1.0000   1.0000
     1.0000   1.0000   1.0000   1.0000   1.0000   1.0000   1.0000   1.0000
     1.0000   1.0000   1.0000   1.0000   1.0000   1.0000   1.0000   1.0000
     1.0000   1.0000   1.0000   1.0000   1.0000   1.0000   1.0000   1.0000
     1.0000   1.0000   1.0000   1.0000   1.0000   1.0000   1.0000   1.0000
     1.0000   1.0000   1.0000   1.0000   1.0000   1.0000   1.0000   1.0000
     1.0000   1.0000   1.0000   1.0000   1.0000   1.0000   1.0000   1.0000
     1.0000   1.0000   1.0000   1.0000   1.0000   1.0000   1.0000   1.0000
     1.0000   1.0000   1.0000   1.0000   1.0000   1.0000   1.0000   1.0000
     1.0000   1.0000   1.0000   1.0000   1.0000   1.0000   1.0000   1.0000
     1.0000   1.0000   1.0000   1.0000   1.0000   1.0000   1.0000   1.0000

          k = 0.0000 0.0000 0.1758 ( 25971 PWs)   bands (ev):

   -67.6757 -67.6733 -67.5611 -67.1926 -67.1002 -67.0930 -34.4524 -34.4336
   -34.4293 -34.4226 -34.4138 -34.4116 -34.3236 -34.3210 -34.2952 -33.9503
   -33.9444 -33.9423 -33.8734 -33.8726 -33.8586 -33.8403 -33.8324 -33.8135
   -23.2034 -23.1850 -15.2280 -15.2015 -14.2853 -14.2622 -13.7859 -13.7615
   -13.5299 -13.4550 -13.3879 -13.2149 -13.0239 -12.9841 -12.9721 -12.9623
   -12.8776 -12.7792 -12.6039 -12.5422 -12.4355 -12.4017 -12.3302 -12.2063
   -11.1752 -10.9317  -6.7749  -6.7491  -6.6967  -6.6893  -6.6618  -6.6578
    -4.4370  -4.3873  -2.5470  -2.4993  -1.9039  -1.4377  -1.3221  -1.2678
    -1.2377  -1.1847  -0.7538  -0.7173  -0.6195  -0.5072  -0.4740  -0.3899
    -0.0707   0.0239   0.0676   0.3121   0.4328   0.4370   0.5934   0.7740
     0.8157   1.0976   1.1285   1.2420   1.3100   1.3560   1.4635   1.5912
     1.7625   1.7796   1.9428   1.9539   2.0016   2.1167   2.1496   2.1939
     2.2741   2.3257   2.4853   2.5076   2.5660   2.6119   2.6869   2.7257
     2.7553   2.9550   2.9898   2.9985   3.0227   3.1909   3.2338   3.2832
     3.3145   3.3320   3.4608   3.5662   3.6052   3.6400   3.7036   3.7315
     3.7534   3.7868   3.8091   4.0406   4.0550   4.2193   4.3803   4.5025

     occupation numbers 
     1.0000   1.0000   1.0000   1.0000   1.0000   1.0000   1.0000   1.0000
     1.0000   1.0000   1.0000   1.0000   1.0000   1.0000   1.0000   1.0000
     1.0000   1.0000   1.0000   1.0000   1.0000   1.0000   1.0000   1.0000
     1.0000   1.0000   1.0000   1.0000   1.0000   1.0000   1.0000   1.0000
     1.0000   1.0000   1.0000   1.0000   1.0000   1.0000   1.0000   1.0000
     1.0000   1.0000   1.0000   1.0000   1.0000   1.0000   1.0000   1.0000
     1.0000   1.0000   1.0000   1.0000   1.0000   1.0000   1.0000   1.0000
     1.0000   1.0000   1.0000   1.0000   1.0000   1.0000   1.0000   1.0000
     1.0000   1.0000   1.0000   1.0000   1.0000   1.0000   1.0000   1.0000
     1.0000   1.0000   1.0000   1.0000   1.0000   1.0000   1.0000   1.0000
     1.0000   1.0000   1.0000   1.0000   1.0000   1.0000   1.0000   1.0000
     1.0000   1.0000   1.0000   1.0000   1.0000   1.0000   1.0000   1.0000
     1.0000   1.0000   1.0000   1.0000   1.0000   1.0000   1.0000   1.0000
     1.0000   1.0000   1.0000   1.0000   1.0000   1.0000   1.0000   1.0000
     1.0000   1.0000   1.0000   1.0000   1.0000   1.0000   1.0000   1.0000
     1.0000   1.0000   1.0000   1.0000   1.0000   1.0000   1.0000   1.0000

          k = 0.0000 0.1921 0.0000 ( 25933 PWs)   bands (ev):

   -67.6757 -67.6733 -67.5611 -67.1926 -67.1002 -67.0930 -34.4524 -34.4336
   -34.4293 -34.4226 -34.4138 -34.4116 -34.3236 -34.3210 -34.2952 -33.9503
   -33.9443 -33.9422 -33.8734 -33.8726 -33.8586 -33.8403 -33.8324 -33.8135
   -23.2034 -23.1850 -15.2358 -15.1830 -14.3291 -14.2814 -13.7855 -13.7621
   -13.4551 -13.3782 -13.3298 -13.2390 -13.0820 -13.0460 -13.0144 -12.9540
   -12.8898 -12.7719 -12.6010 -12.5317 -12.4325 -12.4048 -12.3308 -12.1965
   -11.1742 -10.9304  -6.7711  -6.7532  -6.6962  -6.6872  -6.6637  -6.6586
    -4.4014  -4.3423  -2.7164  -2.6129  -1.8868  -1.4941  -1.2392  -1.2361
    -1.1280  -1.0813  -0.8581  -0.7736  -0.6037  -0.4318  -0.4116  -0.2727
    -0.1937   0.0353   0.1037   0.3287   0.3983   0.4480   0.5763   0.7518
     0.7824   1.0291   1.0940   1.2021   1.2807   1.4149   1.4517   1.5821
     1.8034   1.8037   1.8341   1.9451   2.0280   2.1097   2.2096   2.2724
     2.2837   2.3620   2.4281   2.5440   2.5822   2.6773   2.7389   2.7727
     2.8301   2.8975   2.9462   3.0098   3.1412   3.1841   3.2614   3.2741
     3.3475   3.3639   3.3732   3.4767   3.5536   3.5832   3.6974   3.7138
     3.7968   3.8043   3.8315   3.9981   4.0558   4.1848   4.1999   4.4968

     occupation numbers 
     1.0000   1.0000   1.0000   1.0000   1.0000   1.0000   1.0000   1.0000
     1.0000   1.0000   1.0000   1.0000   1.0000   1.0000   1.0000   1.0000
     1.0000   1.0000   1.0000   1.0000   1.0000   1.0000   1.0000   1.0000
     1.0000   1.0000   1.0000   1.0000   1.0000   1.0000   1.0000   1.0000
     1.0000   1.0000   1.0000   1.0000   1.0000   1.0000   1.0000   1.0000
     1.0000   1.0000   1.0000   1.0000   1.0000   1.0000   1.0000   1.0000
     1.0000   1.0000   1.0000   1.0000   1.0000   1.0000   1.0000   1.0000
     1.0000   1.0000   1.0000   1.0000   1.0000   1.0000   1.0000   1.0000
     1.0000   1.0000   1.0000   1.0000   1.0000   1.0000   1.0000   1.0000
     1.0000   1.0000   1.0000   1.0000   1.0000   1.0000   1.0000   1.0000
     1.0000   1.0000   1.0000   1.0000   1.0000   1.0000   1.0000   1.0000
     1.0000   1.0000   1.0000   1.0000   1.0000   1.0000   1.0000   1.0000
     1.0000   1.0000   1.0000   1.0000   1.0000   1.0000   1.0000   1.0000
     1.0000   1.0000   1.0000   1.0000   1.0000   1.0000   1.0000   1.0000
     1.0000   1.0000   1.0000   1.0000   1.0000   1.0000   1.0000   1.0000
     1.0000   1.0000   1.0000   1.0000   1.0000   1.0000   1.0000   1.0000

          k = 0.0000 0.1921 0.1758 ( 25924 PWs)   bands (ev):

   -67.6757 -67.6733 -67.5611 -67.1926 -67.1002 -67.0930 -34.4524 -34.4336
   -34.4293 -34.4225 -34.4138 -34.4116 -34.3236 -34.3210 -34.2952 -33.9503
   -33.9443 -33.9422 -33.8734 -33.8726 -33.8586 -33.8403 -33.8324 -33.8135
   -23.2034 -23.1850 -15.2230 -15.1966 -14.3176 -14.2937 -13.7860 -13.7615
   -13.4478 -13.3714 -13.3479 -13.2295 -13.0970 -13.0304 -13.0158 -12.9566
   -12.8867 -12.7762 -12.5946 -12.5381 -12.4353 -12.4015 -12.3243 -12.2030
   -11.1739 -10.9311  -6.7711  -6.7532  -6.6962  -6.6870  -6.6635  -6.6586
    -4.3948  -4.3494  -2.6931  -2.6386  -1.8585  -1.4822  -1.2386  -1.2337
    -1.1274  -1.0869  -0.8386  -0.7944  -0.6196  -0.4585  -0.4004  -0.3480
    -0.1475   0.0290   0.0484   0.3145   0.3978   0.4055   0.6148   0.7507
     0.8410   0.9981   1.0753   1.2596   1.3295   1.4149   1.5477   1.6098
     1.7507   1.8320   1.8872   1.9291   2.0056   2.1419   2.2105   2.2508
     2.3057   2.3431   2.3998   2.5062   2.5846   2.6422   2.7026   2.7505
     2.8204   2.9289   2.9493   3.0635   3.0922   3.1322   3.2448   3.2850
     3.3040   3.3522   3.4292   3.5040   3.5420   3.6370   3.6793   3.7172
     3.7593   3.7952   3.8188   3.9916   4.0650   4.1982   4.2188   4.5002

     occupation numbers 
     1.0000   1.0000   1.0000   1.0000   1.0000   1.0000   1.0000   1.0000
     1.0000   1.0000   1.0000   1.0000   1.0000   1.0000   1.0000   1.0000
     1.0000   1.0000   1.0000   1.0000   1.0000   1.0000   1.0000   1.0000
     1.0000   1.0000   1.0000   1.0000   1.0000   1.0000   1.0000   1.0000
     1.0000   1.0000   1.0000   1.0000   1.0000   1.0000   1.0000   1.0000
     1.0000   1.0000   1.0000   1.0000   1.0000   1.0000   1.0000   1.0000
     1.0000   1.0000   1.0000   1.0000   1.0000   1.0000   1.0000   1.0000
     1.0000   1.0000   1.0000   1.0000   1.0000   1.0000   1.0000   1.0000
     1.0000   1.0000   1.0000   1.0000   1.0000   1.0000   1.0000   1.0000
     1.0000   1.0000   1.0000   1.0000   1.0000   1.0000   1.0000   1.0000
     1.0000   1.0000   1.0000   1.0000   1.0000   1.0000   1.0000   1.0000
     1.0000   1.0000   1.0000   1.0000   1.0000   1.0000   1.0000   1.0000
     1.0000   1.0000   1.0000   1.0000   1.0000   1.0000   1.0000   1.0000
     1.0000   1.0000   1.0000   1.0000   1.0000   1.0000   1.0000   1.0000
     1.0000   1.0000   1.0000   1.0000   1.0000   1.0000   1.0000   1.0000
     1.0000   1.0000   1.0000   1.0000   1.0000   1.0000   1.0000   1.0000

          k = 0.1667 0.0000 0.0301 ( 25941 PWs)   bands (ev):

   -67.6756 -67.6734 -67.5611 -67.1926 -67.1002 -67.0930 -34.4517 -34.4358
   -34.4280 -34.4223 -34.4139 -34.4117 -34.3236 -34.3211 -34.2952 -33.9502
   -33.9446 -33.9422 -33.8758 -33.8694 -33.8592 -33.8397 -33.8327 -33.8140
   -23.2032 -23.1848 -15.1823 -15.1306 -14.3152 -14.2732 -13.8966 -13.8662
   -13.4746 -13.3729 -13.3412 -13.2039 -13.0319 -13.0101 -12.9673 -12.9534
   -12.8760 -12.7824 -12.6278 -12.5534 -12.4931 -12.4437 -12.3168 -12.1888
   -11.1722 -10.9358  -6.7747  -6.7532  -6.6953  -6.6876  -6.6621  -6.6546
    -4.2839  -4.2223  -2.5369  -2.4403  -1.9415  -1.5871  -1.5376  -1.4172
    -1.0343  -0.9593  -0.7958  -0.7563  -0.5798  -0.4766  -0.4505  -0.2854
    -0.0960   0.0049   0.1012   0.3460   0.3809   0.5022   0.5159   0.6507
     0.9362   1.0565   1.1535   1.2210   1.2435   1.3450   1.4367   1.5056
     1.6359   1.7798   1.8103   1.9123   1.9559   2.1435   2.1769   2.2561
     2.3267   2.3826   2.4931   2.5524   2.5785   2.5975   2.7434   2.7495
     2.8252   2.8625   2.9503   3.0302   3.0785   3.1112   3.2176   3.2405
     3.3259   3.3872   3.4484   3.5262   3.5529   3.6349   3.6736   3.7246
     3.7435   3.7876   3.8362   3.9526   4.0153   4.2228   4.3718   4.4107

     occupation numbers 
     1.0000   1.0000   1.0000   1.0000   1.0000   1.0000   1.0000   1.0000
     1.0000   1.0000   1.0000   1.0000   1.0000   1.0000   1.0000   1.0000
     1.0000   1.0000   1.0000   1.0000   1.0000   1.0000   1.0000   1.0000
     1.0000   1.0000   1.0000   1.0000   1.0000   1.0000   1.0000   1.0000
     1.0000   1.0000   1.0000   1.0000   1.0000   1.0000   1.0000   1.0000
     1.0000   1.0000   1.0000   1.0000   1.0000   1.0000   1.0000   1.0000
     1.0000   1.0000   1.0000   1.0000   1.0000   1.0000   1.0000   1.0000
     1.0000   1.0000   1.0000   1.0000   1.0000   1.0000   1.0000   1.0000
     1.0000   1.0000   1.0000   1.0000   1.0000   1.0000   1.0000   1.0000
     1.0000   1.0000   1.0000   1.0000   1.0000   1.0000   1.0000   1.0000
     1.0000   1.0000   1.0000   1.0000   1.0000   1.0000   1.0000   1.0000
     1.0000   1.0000   1.0000   1.0000   1.0000   1.0000   1.0000   1.0000
     1.0000   1.0000   1.0000   1.0000   1.0000   1.0000   1.0000   1.0000
     1.0000   1.0000   1.0000   1.0000   1.0000   1.0000   1.0000   1.0000
     1.0000   1.0000   1.0000   1.0000   1.0000   1.0000   1.0000   1.0000
     1.0000   1.0000   1.0000   1.0000   1.0000   1.0000   1.0000   1.0000

          k = 0.1667 0.0000 0.2059 ( 25961 PWs)   bands (ev):

   -67.6756 -67.6734 -67.5611 -67.1926 -67.1002 -67.0930 -34.4517 -34.4358
   -34.4280 -34.4223 -34.4139 -34.4117 -34.3236 -34.3211 -34.2952 -33.9502
   -33.9446 -33.9422 -33.8758 -33.8694 -33.8592 -33.8397 -33.8327 -33.8140
   -23.2032 -23.1848 -15.1663 -15.1476 -14.3062 -14.2826 -13.8933 -13.8696
   -13.4630 -13.3898 -13.3374 -13.1989 -13.0319 -13.0059 -12.9834 -12.9452
   -12.8706 -12.7865 -12.6216 -12.5622 -12.4846 -12.4504 -12.3076 -12.1968
   -11.1717 -10.9366  -6.7747  -6.7532  -6.6952  -6.6876  -6.6620  -6.6546
    -4.2851  -4.2213  -2.5172  -2.4644  -1.9062  -1.6272  -1.5033  -1.4044
    -1.0323  -0.9634  -0.8007  -0.7491  -0.5840  -0.4747  -0.4445  -0.3985
    -0.0531   0.0400   0.0516   0.2788   0.3680   0.4842   0.5005   0.7113
     0.9963   1.0742   1.1259   1.2309   1.2604   1.3458   1.4631   1.5267
     1.6932   1.7633   1.8264   1.9127   2.0531   2.1581   2.1892   2.2506
     2.2947   2.3823   2.4445   2.4779   2.5560   2.6026   2.7080   2.7215
     2.7897   2.8895   2.9951   3.0490   3.0745   3.1159   3.1579   3.2139
     3.3321   3.3706   3.4461   3.5765   3.5976   3.6432   3.6726   3.7046
     3.7431   3.7544   3.7948   3.9644   4.0480   4.2121   4.3726   4.4299

     occupation numbers 
     1.0000   1.0000   1.0000   1.0000   1.0000   1.0000   1.0000   1.0000
     1.0000   1.0000   1.0000   1.0000   1.0000   1.0000   1.0000   1.0000
     1.0000   1.0000   1.0000   1.0000   1.0000   1.0000   1.0000   1.0000
     1.0000   1.0000   1.0000   1.0000   1.0000   1.0000   1.0000   1.0000
     1.0000   1.0000   1.0000   1.0000   1.0000   1.0000   1.0000   1.0000
     1.0000   1.0000   1.0000   1.0000   1.0000   1.0000   1.0000   1.0000
     1.0000   1.0000   1.0000   1.0000   1.0000   1.0000   1.0000   1.0000
     1.0000   1.0000   1.0000   1.0000   1.0000   1.0000   1.0000   1.0000
     1.0000   1.0000   1.0000   1.0000   1.0000   1.0000   1.0000   1.0000
     1.0000   1.0000   1.0000   1.0000   1.0000   1.0000   1.0000   1.0000
     1.0000   1.0000   1.0000   1.0000   1.0000   1.0000   1.0000   1.0000
     1.0000   1.0000   1.0000   1.0000   1.0000   1.0000   1.0000   1.0000
     1.0000   1.0000   1.0000   1.0000   1.0000   1.0000   1.0000   1.0000
     1.0000   1.0000   1.0000   1.0000   1.0000   1.0000   1.0000   1.0000
     1.0000   1.0000   1.0000   1.0000   1.0000   1.0000   1.0000   1.0000
     1.0000   1.0000   1.0000   1.0000   1.0000   1.0000   1.0000   1.0000

          k = 0.1667 0.0000-0.1457 ( 25956 PWs)   bands (ev):

   -67.6756 -67.6733 -67.5611 -67.1926 -67.1002 -67.0930 -34.4517 -34.4358
   -34.4280 -34.4223 -34.4139 -34.4117 -34.3236 -34.3211 -34.2952 -33.9502
   -33.9446 -33.9422 -33.8758 -33.8694 -33.8592 -33.8397 -33.8327 -33.8139
   -23.2032 -23.1848 -15.1732 -15.1403 -14.3071 -14.2818 -13.8921 -13.8708
   -13.4679 -13.3754 -13.3478 -13.1999 -13.0320 -13.0041 -12.9828 -12.9446
   -12.8731 -12.7868 -12.6181 -12.5647 -12.4748 -12.4605 -12.3080 -12.1957
   -11.1715 -10.9365  -6.7748  -6.7533  -6.6953  -6.6875  -6.6620  -6.6546
    -4.2682  -4.2385  -2.5136  -2.4664  -1.9201  -1.6206  -1.5069  -1.4078
    -1.0171  -0.9830  -0.7707  -0.7455  -0.6020  -0.4747  -0.4603  -0.3682
    -0.0914   0.0409   0.0656   0.2928   0.3976   0.4825   0.5536   0.6928
     0.9452   1.0624   1.1024   1.2257   1.2875   1.3765   1.4634   1.4933
     1.6888   1.7475   1.8629   1.8745   2.0038   2.1230   2.1985   2.2299
     2.3104   2.3852   2.4597   2.5292   2.5436   2.6280   2.6855   2.7731
     2.8019   2.8798   2.9915   3.0439   3.0946   3.1126   3.1695   3.2837
     3.3441   3.3566   3.4660   3.5147   3.5904   3.5972   3.6343   3.7153
     3.7436   3.7634   3.8051   3.9489   4.0728   4.2114   4.3765   4.4220

     occupation numbers 
     1.0000   1.0000   1.0000   1.0000   1.0000   1.0000   1.0000   1.0000
     1.0000   1.0000   1.0000   1.0000   1.0000   1.0000   1.0000   1.0000
     1.0000   1.0000   1.0000   1.0000   1.0000   1.0000   1.0000   1.0000
     1.0000   1.0000   1.0000   1.0000   1.0000   1.0000   1.0000   1.0000
     1.0000   1.0000   1.0000   1.0000   1.0000   1.0000   1.0000   1.0000
     1.0000   1.0000   1.0000   1.0000   1.0000   1.0000   1.0000   1.0000
     1.0000   1.0000   1.0000   1.0000   1.0000   1.0000   1.0000   1.0000
     1.0000   1.0000   1.0000   1.0000   1.0000   1.0000   1.0000   1.0000
     1.0000   1.0000   1.0000   1.0000   1.0000   1.0000   1.0000   1.0000
     1.0000   1.0000   1.0000   1.0000   1.0000   1.0000   1.0000   1.0000
     1.0000   1.0000   1.0000   1.0000   1.0000   1.0000   1.0000   1.0000
     1.0000   1.0000   1.0000   1.0000   1.0000   1.0000   1.0000   1.0000
     1.0000   1.0000   1.0000   1.0000   1.0000   1.0000   1.0000   1.0000
     1.0000   1.0000   1.0000   1.0000   1.0000   1.0000   1.0000   1.0000
     1.0000   1.0000   1.0000   1.0000   1.0000   1.0000   1.0000   1.0000
     1.0000   1.0000   1.0000   1.0000   1.0000   1.0000   1.0000   1.0000

          k = 0.1667 0.1921 0.0301 ( 25937 PWs)   bands (ev):

   -67.6756 -67.6734 -67.5611 -67.1926 -67.1002 -67.0930 -34.4517 -34.4358
   -34.4280 -34.4223 -34.4139 -34.4117 -34.3235 -34.3211 -34.2952 -33.9502
   -33.9445 -33.9422 -33.8758 -33.8694 -33.8592 -33.8397 -33.8327 -33.8139
   -23.2032 -23.1848 -15.1776 -15.1260 -14.3443 -14.2992 -13.8846 -13.8573
   -13.4184 -13.3501 -13.2780 -13.2050 -13.0664 -13.0467 -13.0255 -12.9544
   -12.8912 -12.7791 -12.6214 -12.5417 -12.4888 -12.4473 -12.3138 -12.1870
   -11.1712 -10.9354  -6.7717  -6.7567  -6.6951  -6.6859  -6.6633  -6.6550
    -4.2473  -4.1851  -2.6971  -2.5944  -1.8662  -1.4701  -1.4470  -1.4120
    -1.0250  -0.9634  -0.8875  -0.7226  -0.5840  -0.4092  -0.3876  -0.2539
    -0.1435   0.0025   0.0749   0.3055   0.3643   0.4722   0.5330   0.6226
     0.9528   0.9894   1.1493   1.2008   1.2579   1.3394   1.4168   1.5417
     1.6582   1.7616   1.7848   1.9467   2.0321   2.1559   2.2004   2.2555
     2.3319   2.3825   2.4426   2.5893   2.5938   2.7058   2.7253   2.7957
     2.8423   2.8986   2.9897   3.0353   3.0863   3.1447   3.2068   3.2527
     3.3076   3.3456   3.4144   3.4946   3.5534   3.5686   3.6351   3.6986
     3.7239   3.7531   3.8552   3.9657   3.9997   4.1801   4.2565   4.4432

     occupation numbers 
     1.0000   1.0000   1.0000   1.0000   1.0000   1.0000   1.0000   1.0000
     1.0000   1.0000   1.0000   1.0000   1.0000   1.0000   1.0000   1.0000
     1.0000   1.0000   1.0000   1.0000   1.0000   1.0000   1.0000   1.0000
     1.0000   1.0000   1.0000   1.0000   1.0000   1.0000   1.0000   1.0000
     1.0000   1.0000   1.0000   1.0000   1.0000   1.0000   1.0000   1.0000
     1.0000   1.0000   1.0000   1.0000   1.0000   1.0000   1.0000   1.0000
     1.0000   1.0000   1.0000   1.0000   1.0000   1.0000   1.0000   1.0000
     1.0000   1.0000   1.0000   1.0000   1.0000   1.0000   1.0000   1.0000
     1.0000   1.0000   1.0000   1.0000   1.0000   1.0000   1.0000   1.0000
     1.0000   1.0000   1.0000   1.0000   1.0000   1.0000   1.0000   1.0000
     1.0000   1.0000   1.0000   1.0000   1.0000   1.0000   1.0000   1.0000
     1.0000   1.0000   1.0000   1.0000   1.0000   1.0000   1.0000   1.0000
     1.0000   1.0000   1.0000   1.0000   1.0000   1.0000   1.0000   1.0000
     1.0000   1.0000   1.0000   1.0000   1.0000   1.0000   1.0000   1.0000
     1.0000   1.0000   1.0000   1.0000   1.0000   1.0000   1.0000   1.0000
     1.0000   1.0000   1.0000   1.0000   1.0000   1.0000   1.0000   1.0000

          k = 0.1667 0.1921 0.2059 ( 25944 PWs)   bands (ev):

   -67.6756 -67.6733 -67.5611 -67.1926 -67.1002 -67.0930 -34.4517 -34.4358
   -34.4280 -34.4223 -34.4139 -34.4117 -34.3235 -34.3211 -34.2952 -33.9502
   -33.9445 -33.9422 -33.8758 -33.8694 -33.8592 -33.8397 -33.8327 -33.8140
   -23.2032 -23.1848 -15.1616 -15.1429 -14.3329 -14.3114 -13.8831 -13.8589
   -13.4117 -13.3432 -13.2979 -13.1928 -13.0821 -13.0322 -13.0276 -12.9537
   -12.8887 -12.7837 -12.6160 -12.5498 -12.4832 -12.4509 -12.3047 -12.1948
   -11.1707 -10.9362  -6.7718  -6.7567  -6.6951  -6.6858  -6.6631  -6.6550
    -4.2455  -4.1870  -2.6728  -2.6214  -1.8390  -1.4726  -1.4549  -1.3900
    -1.0305  -0.9579  -0.8881  -0.7175  -0.5883  -0.4701  -0.3655  -0.3124
    -0.1013  -0.0127   0.0565   0.2735   0.3408   0.4549   0.5154   0.6742
     0.9581   0.9961   1.1259   1.2704   1.2832   1.3591   1.4650   1.6035
     1.6788   1.7278   1.7891   1.9275   2.0609   2.1490   2.2309   2.2775
     2.3398   2.3763   2.4025   2.5068   2.5934   2.6764   2.7155   2.7558
     2.8441   2.9097   3.0111   3.0318   3.0923   3.1219   3.1797   3.2379
     3.2792   3.3649   3.4522   3.4860   3.5398   3.6039   3.6309   3.6825
     3.7095   3.7828   3.8185   3.9761   4.0191   4.1806   4.2659   4.4553

     occupation numbers 
     1.0000   1.0000   1.0000   1.0000   1.0000   1.0000   1.0000   1.0000
     1.0000   1.0000   1.0000   1.0000   1.0000   1.0000   1.0000   1.0000
     1.0000   1.0000   1.0000   1.0000   1.0000   1.0000   1.0000   1.0000
     1.0000   1.0000   1.0000   1.0000   1.0000   1.0000   1.0000   1.0000
     1.0000   1.0000   1.0000   1.0000   1.0000   1.0000   1.0000   1.0000
     1.0000   1.0000   1.0000   1.0000   1.0000   1.0000   1.0000   1.0000
     1.0000   1.0000   1.0000   1.0000   1.0000   1.0000   1.0000   1.0000
     1.0000   1.0000   1.0000   1.0000   1.0000   1.0000   1.0000   1.0000
     1.0000   1.0000   1.0000   1.0000   1.0000   1.0000   1.0000   1.0000
     1.0000   1.0000   1.0000   1.0000   1.0000   1.0000   1.0000   1.0000
     1.0000   1.0000   1.0000   1.0000   1.0000   1.0000   1.0000   1.0000
     1.0000   1.0000   1.0000   1.0000   1.0000   1.0000   1.0000   1.0000
     1.0000   1.0000   1.0000   1.0000   1.0000   1.0000   1.0000   1.0000
     1.0000   1.0000   1.0000   1.0000   1.0000   1.0000   1.0000   1.0000
     1.0000   1.0000   1.0000   1.0000   1.0000   1.0000   1.0000   1.0000
     1.0000   1.0000   1.0000   1.0000   1.0000   1.0000   1.0000   1.0000

          k = 0.1667 0.1921-0.1457 ( 25923 PWs)   bands (ev):

   -67.6756 -67.6733 -67.5611 -67.1926 -67.1002 -67.0930 -34.4516 -34.4358
   -34.4280 -34.4223 -34.4139 -34.4117 -34.3235 -34.3211 -34.2952 -33.9502
   -33.9445 -33.9422 -33.8758 -33.8694 -33.8591 -33.8397 -33.8327 -33.8139
   -23.2032 -23.1848 -15.1685 -15.1356 -14.3353 -14.3089 -13.8807 -13.8615
   -13.4146 -13.3425 -13.2928 -13.1978 -13.0786 -13.0370 -13.0248 -12.9557
   -12.8880 -12.7834 -12.6120 -12.5519 -12.4753 -12.4601 -12.3050 -12.1939
   -11.1705 -10.9361  -6.7719  -6.7568  -6.6951  -6.6858  -6.6632  -6.6550
    -4.2299  -4.2030  -2.6730  -2.6206  -1.8491  -1.4776  -1.4544  -1.3888
    -1.0080  -0.9841  -0.8550  -0.7296  -0.6130  -0.4318  -0.3731  -0.3075
    -0.1323  -0.0009   0.0412   0.3044   0.3636   0.4481   0.5701   0.6605
     0.9394   0.9645   1.1130   1.2392   1.2885   1.3831   1.4617   1.5679
     1.6871   1.7282   1.7862   1.9490   2.0427   2.1113   2.2188   2.2709
     2.3178   2.3829   2.4158   2.5347   2.6399   2.6649   2.6854   2.7838
     2.8673   2.9284   2.9933   3.0584   3.0847   3.1183   3.1980   3.2697
     3.3092   3.3550   3.4329   3.4907   3.5359   3.5957   3.6246   3.6683
     3.7178   3.7586   3.7883   3.9740   4.0418   4.1732   4.2649   4.4488

     occupation numbers 
     1.0000   1.0000   1.0000   1.0000   1.0000   1.0000   1.0000   1.0000
     1.0000   1.0000   1.0000   1.0000   1.0000   1.0000   1.0000   1.0000
     1.0000   1.0000   1.0000   1.0000   1.0000   1.0000   1.0000   1.0000
     1.0000   1.0000   1.0000   1.0000   1.0000   1.0000   1.0000   1.0000
     1.0000   1.0000   1.0000   1.0000   1.0000   1.0000   1.0000   1.0000
     1.0000   1.0000   1.0000   1.0000   1.0000   1.0000   1.0000   1.0000
     1.0000   1.0000   1.0000   1.0000   1.0000   1.0000   1.0000   1.0000
     1.0000   1.0000   1.0000   1.0000   1.0000   1.0000   1.0000   1.0000
     1.0000   1.0000   1.0000   1.0000   1.0000   1.0000   1.0000   1.0000
     1.0000   1.0000   1.0000   1.0000   1.0000   1.0000   1.0000   1.0000
     1.0000   1.0000   1.0000   1.0000   1.0000   1.0000   1.0000   1.0000
     1.0000   1.0000   1.0000   1.0000   1.0000   1.0000   1.0000   1.0000
     1.0000   1.0000   1.0000   1.0000   1.0000   1.0000   1.0000   1.0000
     1.0000   1.0000   1.0000   1.0000   1.0000   1.0000   1.0000   1.0000
     1.0000   1.0000   1.0000   1.0000   1.0000   1.0000   1.0000   1.0000
     1.0000   1.0000   1.0000   1.0000   1.0000   1.0000   1.0000   1.0000

          k = 0.3333 0.0000 0.0601 ( 25907 PWs)   bands (ev):

   -67.6753 -67.6736 -67.5611 -67.1926 -67.1001 -67.0931 -34.4498 -34.4392
   -34.4265 -34.4217 -34.4138 -34.4121 -34.3234 -34.3212 -34.2953 -33.9498
   -33.9450 -33.9422 -33.8770 -33.8664 -33.8605 -33.8382 -33.8339 -33.8148
   -23.2029 -23.1846 -15.0217 -14.9738 -14.4395 -14.4021 -14.0140 -13.9788
   -13.3727 -13.2758 -13.2120 -13.1785 -13.0671 -13.0567 -12.9862 -12.9557
   -12.8818 -12.7890 -12.6854 -12.6252 -12.5655 -12.4814 -12.2967 -12.1800
   -11.1663 -10.9459  -6.7744  -6.7620  -6.6922  -6.6842  -6.6625  -6.6479
    -3.8734  -3.8013  -2.6756  -2.5658  -1.9487  -1.8038  -1.5243  -1.3620
    -0.9872  -0.8709  -0.8452  -0.8148  -0.5019  -0.4285  -0.3404  -0.2538
    -0.1932   0.0150   0.1239   0.3054   0.3652   0.4940   0.5270   0.5970
     0.8935   0.9989   1.1186   1.1768   1.2891   1.3315   1.4507   1.4873
     1.5180   1.5707   1.6701   1.8711   1.9604   2.1860   2.2165   2.2722
     2.3244   2.4264   2.5406   2.5726   2.6344   2.6567   2.7254   2.7962
     2.8452   2.8684   2.9832   3.0451   3.0536   3.1012   3.1053   3.1521
     3.3335   3.3663   3.4400   3.4690   3.5060   3.5598   3.6198   3.6455
     3.6785   3.7316   3.8876   3.9116   3.9581   4.2371   4.3171   4.3455

     occupation numbers 
     1.0000   1.0000   1.0000   1.0000   1.0000   1.0000   1.0000   1.0000
     1.0000   1.0000   1.0000   1.0000   1.0000   1.0000   1.0000   1.0000
     1.0000   1.0000   1.0000   1.0000   1.0000   1.0000   1.0000   1.0000
     1.0000   1.0000   1.0000   1.0000   1.0000   1.0000   1.0000   1.0000
     1.0000   1.0000   1.0000   1.0000   1.0000   1.0000   1.0000   1.0000
     1.0000   1.0000   1.0000   1.0000   1.0000   1.0000   1.0000   1.0000
     1.0000   1.0000   1.0000   1.0000   1.0000   1.0000   1.0000   1.0000
     1.0000   1.0000   1.0000   1.0000   1.0000   1.0000   1.0000   1.0000
     1.0000   1.0000   1.0000   1.0000   1.0000   1.0000   1.0000   1.0000
     1.0000   1.0000   1.0000   1.0000   1.0000   1.0000   1.0000   1.0000
     1.0000   1.0000   1.0000   1.0000   1.0000   1.0000   1.0000   1.0000
     1.0000   1.0000   1.0000   1.0000   1.0000   1.0000   1.0000   1.0000
     1.0000   1.0000   1.0000   1.0000   1.0000   1.0000   1.0000   1.0000
     1.0000   1.0000   1.0000   1.0000   1.0000   1.0000   1.0000   1.0000
     1.0000   1.0000   1.0000   1.0000   1.0000   1.0000   1.0000   1.0000
     1.0000   1.0000   1.0000   1.0000   1.0000   1.0000   1.0000   1.0000

          k = 0.3333 0.0000 0.2360 ( 25948 PWs)   bands (ev):

   -67.6753 -67.6736 -67.5611 -67.1926 -67.1001 -67.0931 -34.4498 -34.4392
   -34.4265 -34.4217 -34.4138 -34.4121 -34.3234 -34.3212 -34.2953 -33.9498
   -33.9450 -33.9422 -33.8770 -33.8664 -33.8605 -33.8382 -33.8339 -33.8149
   -23.2029 -23.1846 -15.0042 -14.9922 -14.4376 -14.4041 -14.0080 -13.9853
   -13.3656 -13.2772 -13.2247 -13.1720 -13.0608 -13.0530 -13.0019 -12.9485
   -12.8802 -12.7920 -12.6778 -12.6365 -12.5504 -12.4920 -12.2870 -12.1888
   -11.1654 -10.9469  -6.7746  -6.7620  -6.6921  -6.6842  -6.6625  -6.6479
    -3.8746  -3.8001  -2.6491  -2.5957  -1.9198  -1.8407  -1.4955  -1.3525
    -0.9893  -0.8793  -0.8371  -0.8030  -0.4720  -0.4294  -0.3743  -0.3424
    -0.1374  -0.0343   0.1385   0.2658   0.3745   0.4708   0.5038   0.6560
     0.9422   1.0181   1.0832   1.1791   1.2205   1.3822   1.4687   1.5135
     1.5739   1.5999   1.6151   1.9245   2.0014   2.1464   2.2214   2.2670
     2.3029   2.3697   2.5250   2.6030   2.6407   2.6588   2.7182   2.7591
     2.8012   2.9064   2.9338   3.0343   3.0439   3.0869   3.1598   3.1978
     3.3428   3.3882   3.4344   3.4629   3.4979   3.5528   3.5754   3.6441
     3.7042   3.7474   3.8036   3.8974   4.0367   4.2164   4.3389   4.3593

     occupation numbers 
     1.0000   1.0000   1.0000   1.0000   1.0000   1.0000   1.0000   1.0000
     1.0000   1.0000   1.0000   1.0000   1.0000   1.0000   1.0000   1.0000
     1.0000   1.0000   1.0000   1.0000   1.0000   1.0000   1.0000   1.0000
     1.0000   1.0000   1.0000   1.0000   1.0000   1.0000   1.0000   1.0000
     1.0000   1.0000   1.0000   1.0000   1.0000   1.0000   1.0000   1.0000
     1.0000   1.0000   1.0000   1.0000   1.0000   1.0000   1.0000   1.0000
     1.0000   1.0000   1.0000   1.0000   1.0000   1.0000   1.0000   1.0000
     1.0000   1.0000   1.0000   1.0000   1.0000   1.0000   1.0000   1.0000
     1.0000   1.0000   1.0000   1.0000   1.0000   1.0000   1.0000   1.0000
     1.0000   1.0000   1.0000   1.0000   1.0000   1.0000   1.0000   1.0000
     1.0000   1.0000   1.0000   1.0000   1.0000   1.0000   1.0000   1.0000
     1.0000   1.0000   1.0000   1.0000   1.0000   1.0000   1.0000   1.0000
     1.0000   1.0000   1.0000   1.0000   1.0000   1.0000   1.0000   1.0000
     1.0000   1.0000   1.0000   1.0000   1.0000   1.0000   1.0000   1.0000
     1.0000   1.0000   1.0000   1.0000   1.0000   1.0000   1.0000   1.0000
     1.0000   1.0000   1.0000   1.0000   1.0000   1.0000   1.0000   1.0000

          k = 0.3333 0.0000-0.1157 ( 25913 PWs)   bands (ev):

   -67.6753 -67.6736 -67.5611 -67.1926 -67.1001 -67.0931 -34.4498 -34.4392
   -34.4265 -34.4217 -34.4138 -34.4121 -34.3234 -34.3212 -34.2953 -33.9498
   -33.9450 -33.9422 -33.8770 -33.8664 -33.8605 -33.8382 -33.8339 -33.8148
   -23.2029 -23.1846 -15.0165 -14.9794 -14.4319 -14.4100 -14.0091 -13.9841
   -13.3715 -13.2627 -13.2324 -13.1754 -13.0581 -13.0525 -13.0062 -12.9443
   -12.8803 -12.7936 -12.6739 -12.6414 -12.5457 -12.4953 -12.2881 -12.1873
   -11.1653 -10.9468  -6.7746  -6.7621  -6.6921  -6.6842  -6.6624  -6.6478
    -3.8407  -3.8350  -2.6641  -2.5795  -1.9335  -1.8214  -1.5180  -1.3560
    -0.9786  -0.8631  -0.8245  -0.8155  -0.5093  -0.4132  -0.3715  -0.3022
    -0.1954  -0.0151   0.1601   0.2684   0.3924   0.4649   0.5620   0.6110
     0.9384   0.9920   1.1015   1.1791   1.2599   1.3373   1.4613   1.5099
     1.5179   1.5770   1.6754   1.8862   1.9681   2.1431   2.2077   2.2515
     2.3028   2.4360   2.5768   2.5902   2.6037   2.6836   2.7009   2.7854
     2.8264   2.8686   2.9602   3.0136   3.0539   3.1341   3.1857   3.2307
     3.3412   3.3627   3.4374   3.4659   3.4939   3.5333   3.5498   3.6247
     3.6903   3.7375   3.8346   3.8782   4.0362   4.2273   4.3277   4.3612

     occupation numbers 
     1.0000   1.0000   1.0000   1.0000   1.0000   1.0000   1.0000   1.0000
     1.0000   1.0000   1.0000   1.0000   1.0000   1.0000   1.0000   1.0000
     1.0000   1.0000   1.0000   1.0000   1.0000   1.0000   1.0000   1.0000
     1.0000   1.0000   1.0000   1.0000   1.0000   1.0000   1.0000   1.0000
     1.0000   1.0000   1.0000   1.0000   1.0000   1.0000   1.0000   1.0000
     1.0000   1.0000   1.0000   1.0000   1.0000   1.0000   1.0000   1.0000
     1.0000   1.0000   1.0000   1.0000   1.0000   1.0000   1.0000   1.0000
     1.0000   1.0000   1.0000   1.0000   1.0000   1.0000   1.0000   1.0000
     1.0000   1.0000   1.0000   1.0000   1.0000   1.0000   1.0000   1.0000
     1.0000   1.0000   1.0000   1.0000   1.0000   1.0000   1.0000   1.0000
     1.0000   1.0000   1.0000   1.0000   1.0000   1.0000   1.0000   1.0000
     1.0000   1.0000   1.0000   1.0000   1.0000   1.0000   1.0000   1.0000
     1.0000   1.0000   1.0000   1.0000   1.0000   1.0000   1.0000   1.0000
     1.0000   1.0000   1.0000   1.0000   1.0000   1.0000   1.0000   1.0000
     1.0000   1.0000   1.0000   1.0000   1.0000   1.0000   1.0000   1.0000
     1.0000   1.0000   1.0000   1.0000   1.0000   1.0000   1.0000   1.0000

          k = 0.3333 0.1921 0.0601 ( 25923 PWs)   bands (ev):

   -67.6753 -67.6736 -67.5611 -67.1926 -67.1001 -67.0931 -34.4498 -34.4392
   -34.4265 -34.4217 -34.4138 -34.4121 -34.3234 -34.3212 -34.2953 -33.9498
   -33.9449 -33.9422 -33.8770 -33.8664 -33.8605 -33.8382 -33.8339 -33.8148
   -23.2029 -23.1846 -15.0182 -14.9701 -14.4508 -14.4119 -14.0106 -13.9778
   -13.3448 -13.2831 -13.1892 -13.1413 -13.0867 -13.0653 -13.0309 -12.9592
   -12.8914 -12.7907 -12.6783 -12.6109 -12.5659 -12.4879 -12.2953 -12.1797
   -11.1658 -10.9459  -6.7734  -6.7641  -6.6924  -6.6834  -6.6624  -6.6480
    -3.8508  -3.7790  -2.7791  -2.6781  -1.8643  -1.6961  -1.4735  -1.3851
    -1.0002  -0.8996  -0.8541  -0.7664  -0.5027  -0.3796  -0.3268  -0.2274
    -0.1670  -0.0294   0.1045   0.2911   0.3709   0.4693   0.5042   0.5485
     0.8589   0.9273   1.1708   1.2195   1.2757   1.3455   1.4037   1.4847
     1.5196   1.5826   1.6811   1.8140   2.0185   2.1658   2.2224   2.2715
     2.3202   2.4245   2.5089   2.5789   2.6437   2.7035   2.7660   2.8232
     2.8531   2.9389   2.9858   3.0207   3.0998   3.1197   3.1872   3.2117
     3.2768   3.3331   3.3665   3.4563   3.4749   3.5165   3.5821   3.6210
     3.7185   3.7615   3.8581   3.9268   3.9599   4.2048   4.2760   4.3395

     occupation numbers 
     1.0000   1.0000   1.0000   1.0000   1.0000   1.0000   1.0000   1.0000
     1.0000   1.0000   1.0000   1.0000   1.0000   1.0000   1.0000   1.0000
     1.0000   1.0000   1.0000   1.0000   1.0000   1.0000   1.0000   1.0000
     1.0000   1.0000   1.0000   1.0000   1.0000   1.0000   1.0000   1.0000
     1.0000   1.0000   1.0000   1.0000   1.0000   1.0000   1.0000   1.0000
     1.0000   1.0000   1.0000   1.0000   1.0000   1.0000   1.0000   1.0000
     1.0000   1.0000   1.0000   1.0000   1.0000   1.0000   1.0000   1.0000
     1.0000   1.0000   1.0000   1.0000   1.0000   1.0000   1.0000   1.0000
     1.0000   1.0000   1.0000   1.0000   1.0000   1.0000   1.0000   1.0000
     1.0000   1.0000   1.0000   1.0000   1.0000   1.0000   1.0000   1.0000
     1.0000   1.0000   1.0000   1.0000   1.0000   1.0000   1.0000   1.0000
     1.0000   1.0000   1.0000   1.0000   1.0000   1.0000   1.0000   1.0000
     1.0000   1.0000   1.0000   1.0000   1.0000   1.0000   1.0000   1.0000
     1.0000   1.0000   1.0000   1.0000   1.0000   1.0000   1.0000   1.0000
     1.0000   1.0000   1.0000   1.0000   1.0000   1.0000   1.0000   1.0000
     1.0000   1.0000   1.0000   1.0000   1.0000   1.0000   1.0000   1.0000

          k = 0.3333 0.1921 0.2360 ( 25909 PWs)   bands (ev):

   -67.6753 -67.6736 -67.5611 -67.1926 -67.1001 -67.0931 -34.4498 -34.4392
   -34.4265 -34.4217 -34.4138 -34.4121 -34.3234 -34.3212 -34.2953 -33.9498
   -33.9449 -33.9422 -33.8770 -33.8664 -33.8605 -33.8382 -33.8339 -33.8148
   -23.2029 -23.1846 -15.0010 -14.9882 -14.4471 -14.4157 -14.0050 -13.9839
   -13.3406 -13.2752 -13.2085 -13.1329 -13.0875 -13.0615 -13.0360 -12.9552
   -12.8899 -12.7946 -12.6697 -12.6264 -12.5507 -12.4964 -12.2857 -12.1882
   -11.1650 -10.9468  -6.7735  -6.7642  -6.6923  -6.6834  -6.6623  -6.6479
    -3.8494  -3.7803  -2.7457  -2.7150  -1.8447  -1.7232  -1.4482  -1.3742
    -0.9942  -0.9259  -0.8047  -0.7849  -0.4741  -0.4315  -0.3378  -0.2563
    -0.1430  -0.0717   0.1407   0.2437   0.3557   0.4444   0.4954   0.5969
     0.8552   0.9572   1.1521   1.2075   1.2947   1.3374   1.4569   1.4977
     1.5583   1.6344   1.6610   1.8143   2.0509   2.1163   2.2350   2.2632
     2.2933   2.4306   2.4829   2.5948   2.6479   2.6696   2.7385   2.7941
     2.8545   2.9167   2.9880   3.0371   3.0722   3.1221   3.1896   3.2456
     3.2845   3.3696   3.4023   3.4472   3.4663   3.5146   3.5466   3.6028
     3.7385   3.7832   3.8134   3.8799   4.0307   4.1775   4.2892   4.3619

     occupation numbers 
     1.0000   1.0000   1.0000   1.0000   1.0000   1.0000   1.0000   1.0000
     1.0000   1.0000   1.0000   1.0000   1.0000   1.0000   1.0000   1.0000
     1.0000   1.0000   1.0000   1.0000   1.0000   1.0000   1.0000   1.0000
     1.0000   1.0000   1.0000   1.0000   1.0000   1.0000   1.0000   1.0000
     1.0000   1.0000   1.0000   1.0000   1.0000   1.0000   1.0000   1.0000
     1.0000   1.0000   1.0000   1.0000   1.0000   1.0000   1.0000   1.0000
     1.0000   1.0000   1.0000   1.0000   1.0000   1.0000   1.0000   1.0000
     1.0000   1.0000   1.0000   1.0000   1.0000   1.0000   1.0000   1.0000
     1.0000   1.0000   1.0000   1.0000   1.0000   1.0000   1.0000   1.0000
     1.0000   1.0000   1.0000   1.0000   1.0000   1.0000   1.0000   1.0000
     1.0000   1.0000   1.0000   1.0000   1.0000   1.0000   1.0000   1.0000
     1.0000   1.0000   1.0000   1.0000   1.0000   1.0000   1.0000   1.0000
     1.0000   1.0000   1.0000   1.0000   1.0000   1.0000   1.0000   1.0000
     1.0000   1.0000   1.0000   1.0000   1.0000   1.0000   1.0000   1.0000
     1.0000   1.0000   1.0000   1.0000   1.0000   1.0000   1.0000   1.0000
     1.0000   1.0000   1.0000   1.0000   1.0000   1.0000   1.0000   1.0000

          k = 0.3333 0.1921-0.1157 ( 25902 PWs)   bands (ev):

   -67.6753 -67.6736 -67.5611 -67.1926 -67.1001 -67.0931 -34.4498 -34.4392
   -34.4265 -34.4217 -34.4138 -34.4121 -34.3234 -34.3212 -34.2953 -33.9498
   -33.9449 -33.9422 -33.8770 -33.8664 -33.8605 -33.8382 -33.8339 -33.8148
   -23.2029 -23.1846 -15.0129 -14.9758 -14.4434 -14.4197 -14.0048 -13.9840
   -13.3445 -13.2767 -13.1976 -13.1407 -13.0757 -13.0612 -13.0493 -12.9546
   -12.8895 -12.7939 -12.6669 -12.6280 -12.5450 -12.5022 -12.2868 -12.1869
   -11.1649 -10.9467  -6.7735  -6.7642  -6.6923  -6.6834  -6.6623  -6.6479
    -3.8196  -3.8113  -2.7656  -2.6934  -1.8560  -1.7053  -1.4696  -1.3802
    -0.9813  -0.9026  -0.8343  -0.7654  -0.5130  -0.3704  -0.3540  -0.2358
    -0.1974  -0.0568   0.1093   0.2981   0.3848   0.4494   0.5287   0.5529
     0.8859   0.9187   1.1496   1.2055   1.2978   1.3446   1.4489   1.4551
     1.5367   1.5952   1.6986   1.8385   1.9893   2.1397   2.2229   2.2409
     2.3000   2.4644   2.4877   2.5786   2.6354   2.6784   2.7367   2.8368
     2.8898   2.9073   2.9929   3.0377   3.1113   3.1290   3.1800   3.2806
     3.2971   3.3280   3.3905   3.4385   3.4824   3.5268   3.5455   3.6050
     3.7102   3.7630   3.8227   3.8411   4.0437   4.1855   4.2852   4.3558

     occupation numbers 
     1.0000   1.0000   1.0000   1.0000   1.0000   1.0000   1.0000   1.0000
     1.0000   1.0000   1.0000   1.0000   1.0000   1.0000   1.0000   1.0000
     1.0000   1.0000   1.0000   1.0000   1.0000   1.0000   1.0000   1.0000
     1.0000   1.0000   1.0000   1.0000   1.0000   1.0000   1.0000   1.0000
     1.0000   1.0000   1.0000   1.0000   1.0000   1.0000   1.0000   1.0000
     1.0000   1.0000   1.0000   1.0000   1.0000   1.0000   1.0000   1.0000
     1.0000   1.0000   1.0000   1.0000   1.0000   1.0000   1.0000   1.0000
     1.0000   1.0000   1.0000   1.0000   1.0000   1.0000   1.0000   1.0000
     1.0000   1.0000   1.0000   1.0000   1.0000   1.0000   1.0000   1.0000
     1.0000   1.0000   1.0000   1.0000   1.0000   1.0000   1.0000   1.0000
     1.0000   1.0000   1.0000   1.0000   1.0000   1.0000   1.0000   1.0000
     1.0000   1.0000   1.0000   1.0000   1.0000   1.0000   1.0000   1.0000
     1.0000   1.0000   1.0000   1.0000   1.0000   1.0000   1.0000   1.0000
     1.0000   1.0000   1.0000   1.0000   1.0000   1.0000   1.0000   1.0000
     1.0000   1.0000   1.0000   1.0000   1.0000   1.0000   1.0000   1.0000
     1.0000   1.0000   1.0000   1.0000   1.0000   1.0000   1.0000   1.0000

          k =-0.5000 0.0000-0.0902 ( 25894 PWs)   bands (ev):

   -67.6752 -67.6737 -67.5611 -67.1926 -67.1001 -67.0932 -34.4486 -34.4411
   -34.4260 -34.4213 -34.4136 -34.4125 -34.3233 -34.3213 -34.2953 -33.9495
   -33.9452 -33.9421 -33.8771 -33.8650 -33.8615 -33.8364 -33.8354 -33.8153
   -23.2028 -23.1844 -14.8694 -14.8271 -14.5978 -14.5591 -14.0360 -14.0003
   -13.2909 -13.2241 -13.1673 -13.1431 -13.0813 -13.0677 -13.0339 -12.9878
   -12.9010 -12.7871 -12.7188 -12.6724 -12.5853 -12.4886 -12.2894 -12.1792
   -11.1637 -10.9513  -6.7739  -6.7670  -6.6904  -6.6826  -6.6629  -6.6444
    -3.4989  -3.4280  -2.9686  -2.8945  -1.8813  -1.7867  -1.3926  -1.3699
    -1.0595  -0.9257  -0.8648  -0.7858  -0.4590  -0.3601  -0.3380  -0.2649
    -0.1044  -0.1028   0.2621   0.2800   0.3334   0.4693   0.5345   0.5357
     0.8666   0.9629   1.0796   1.1121   1.3120   1.3403   1.3541   1.3925
     1.5716   1.5992   1.7058   1.7590   1.9935   2.1291   2.2394   2.2631
     2.2801   2.4621   2.4859   2.5814   2.6576   2.6711   2.8110   2.8404
     2.9130   2.9130   2.9853   2.9954   3.0399   3.0519   3.1623   3.2107
     3.2520   3.2760   3.3996   3.4005   3.4627   3.5230   3.5723   3.6684
     3.6739   3.7330   3.8807   3.9310   3.9382   4.2521   4.2801   4.3269

     occupation numbers 
     1.0000   1.0000   1.0000   1.0000   1.0000   1.0000   1.0000   1.0000
     1.0000   1.0000   1.0000   1.0000   1.0000   1.0000   1.0000   1.0000
     1.0000   1.0000   1.0000   1.0000   1.0000   1.0000   1.0000   1.0000
     1.0000   1.0000   1.0000   1.0000   1.0000   1.0000   1.0000   1.0000
     1.0000   1.0000   1.0000   1.0000   1.0000   1.0000   1.0000   1.0000
     1.0000   1.0000   1.0000   1.0000   1.0000   1.0000   1.0000   1.0000
     1.0000   1.0000   1.0000   1.0000   1.0000   1.0000   1.0000   1.0000
     1.0000   1.0000   1.0000   1.0000   1.0000   1.0000   1.0000   1.0000
     1.0000   1.0000   1.0000   1.0000   1.0000   1.0000   1.0000   1.0000
     1.0000   1.0000   1.0000   1.0000   1.0000   1.0000   1.0000   1.0000
     1.0000   1.0000   1.0000   1.0000   1.0000   1.0000   1.0000   1.0000
     1.0000   1.0000   1.0000   1.0000   1.0000   1.0000   1.0000   1.0000
     1.0000   1.0000   1.0000   1.0000   1.0000   1.0000   1.0000   1.0000
     1.0000   1.0000   1.0000   1.0000   1.0000   1.0000   1.0000   1.0000
     1.0000   1.0000   1.0000   1.0000   1.0000   1.0000   1.0000   1.0000
     1.0000   1.0000   1.0000   1.0000   1.0000   1.0000   1.0000   1.0000

          k =-0.5000 0.0000 0.0856 ( 25921 PWs)   bands (ev):

   -67.6752 -67.6737 -67.5611 -67.1926 -67.1001 -67.0932 -34.4486 -34.4411
   -34.4260 -34.4213 -34.4136 -34.4125 -34.3233 -34.3213 -34.2953 -33.9495
   -33.9452 -33.9421 -33.8772 -33.8650 -33.8615 -33.8364 -33.8354 -33.8153
   -23.2028 -23.1844 -14.8616 -14.8355 -14.5909 -14.5661 -14.0316 -14.0048
   -13.2914 -13.2227 -13.1618 -13.1290 -13.0941 -13.0892 -13.0275 -12.9802
   -12.8983 -12.7902 -12.7114 -12.6852 -12.5677 -12.5009 -12.2802 -12.1873
   -11.1626 -10.9522  -6.7740  -6.7672  -6.6903  -6.6826  -6.6628  -6.6444
    -3.4820  -3.4455  -2.9516  -2.9139  -1.8663  -1.8034  -1.3955  -1.3598
    -1.0539  -0.9067  -0.8498  -0.7905  -0.4498  -0.3670  -0.3304  -0.2814
    -0.1636  -0.1271   0.2620   0.3190   0.3379   0.4182   0.5242   0.5854
     0.9126   0.9808   1.0407   1.1671   1.1994   1.2839   1.4197   1.4486
     1.5162   1.6139   1.7688   1.8137   1.9678   2.1082   2.1875   2.2578
     2.3037   2.4487   2.4604   2.5638   2.6597   2.6805   2.7748   2.8456
     2.9081   2.9407   2.9700   2.9876   3.0394   3.0713   3.2444   3.2510
     3.2684   3.2866   3.3570   3.4004   3.4896   3.5344   3.5459   3.6056
     3.6642   3.7163   3.8358   3.8870   4.0223   4.2520   4.2921   4.3406

     occupation numbers 
     1.0000   1.0000   1.0000   1.0000   1.0000   1.0000   1.0000   1.0000
[...]
     atom   10 type  6   force =     0.00000000    0.00000000    0.00000000
     atom   11 type  6   force =     0.00000000    0.00000000    0.00000000
     atom   12 type  6   force =     0.00000000    0.00000000    0.00000000
     atom   13 type  6   force =     0.00000000    0.00000000    0.00000000
     atom   14 type  6   force =     0.00000000    0.00000000    0.00000000
     atom   15 type  1   force =     0.00000000    0.00000000    0.00000000
     atom   16 type  1   force =     0.00000000    0.00000000    0.00000000
     atom   17 type  5   force =     0.00000000    0.00000000    0.00000000
     atom   18 type  5   force =     0.00000000    0.00000000    0.00000000
     atom   19 type  5   force =     0.00000000    0.00000000    0.00000000
     atom   20 type  5   force =     0.00000000    0.00000000    0.00000000
     atom   21 type  5   force =     0.00000000    0.00000000    0.00000000
     atom   22 type  5   force =     0.00000000    0.00000000    0.00000000
     atom   23 type  5   force =     0.00000000    0.00000000    0.00000000
     atom   24 type  5   force =     0.00000000    0.00000000    0.00000000
     atom   25 type  5   force =     0.00000000    0.00000000    0.00000000
     atom   26 type  5   force =     0.00000000    0.00000000    0.00000000
     atom   27 type  5   force =     0.00000000    0.00000000    0.00000000
     atom   28 type  5   force =     0.00000000    0.00000000    0.00000000
     atom   29 type  5   force =     0.00000000    0.00000000    0.00000000
     atom   30 type  5   force =     0.00000000    0.00000000    0.00000000
     atom   31 type  5   force =     0.00000000    0.00000000    0.00000000
     atom   32 type  5   force =     0.00000000    0.00000000    0.00000000
     atom   33 type  5   force =     0.00000000    0.00000000    0.00000000
     atom   34 type  5   force =     0.00000000    0.00000000    0.00000000
     atom   35 type  5   force =     0.00000000    0.00000000    0.00000000
     atom   36 type  5   force =     0.00000000    0.00000000    0.00000000
     atom   37 type  5   force =     0.00000000    0.00000000    0.00000000
     atom   38 type  5   force =     0.00000000    0.00000000    0.00000000
     atom   39 type  5   force =     0.00000000    0.00000000    0.00000000
     atom   40 type  5   force =     0.00000000    0.00000000    0.00000000
     atom   41 type  2   force =     0.00000000    0.00000000    0.00000000
     atom   42 type  2   force =     0.00000000    0.00000000    0.00000000
     atom   43 type  2   force =     0.00000000    0.00000000    0.00000000
     atom   44 type  2   force =     0.00000000    0.00000000    0.00000000
     The SCF correction term to forces
     atom    1 type  3   force =     0.00000000    0.00000374   -0.00000000
     atom    2 type  3   force =    -0.00000000   -0.00000348   -0.00000000
     atom    3 type  4   force =    -0.00000000    0.00001043   -0.00000000
     atom    4 type  4   force =    -0.00000000    0.00000582    0.00000000
     atom    5 type  4   force =    -0.00000000   -0.00001397    0.00000000
     atom    6 type  4   force =     0.00000000   -0.00001787    0.00000000
     atom    7 type  4   force =     0.00000000    0.00000432   -0.00000000
     atom    8 type  4   force =     0.00000000    0.00001146   -0.00000000
     atom    9 type  6   force =    -0.00000198   -0.00000679   -0.00001131
     atom   10 type  6   force =     0.00000198   -0.00000679    0.00001131
     atom   11 type  6   force =     0.00000403    0.00000484    0.00001726
     atom   12 type  6   force =    -0.00000403    0.00000484   -0.00001726
     atom   13 type  6   force =     0.00000343    0.00000235   -0.00001250
     atom   14 type  6   force =    -0.00000343    0.00000235    0.00001250
     atom   15 type  1   force =    -0.00000035   -0.00000065    0.00000401
     atom   16 type  1   force =     0.00000035   -0.00000065   -0.00000401
     atom   17 type  5   force =    -0.00000143    0.00000276   -0.00001411
     atom   18 type  5   force =     0.00000143    0.00000276    0.00001411
     atom   19 type  5   force =     0.00000030    0.00000134    0.00002013
     atom   20 type  5   force =    -0.00000030    0.00000134   -0.00002013
     atom   21 type  5   force =     0.00000283   -0.00000434   -0.00001508
     atom   22 type  5   force =    -0.00000283   -0.00000434    0.00001508
     atom   23 type  5   force =     0.00000008    0.00000117    0.00000676
     atom   24 type  5   force =    -0.00000008    0.00000117   -0.00000676
     atom   25 type  5   force =    -0.00000293   -0.00000147   -0.00001200
     atom   26 type  5   force =     0.00000293   -0.00000147    0.00001200
     atom   27 type  5   force =     0.00000187   -0.00000335   -0.00001707
     atom   28 type  5   force =    -0.00000187   -0.00000335    0.00001707
     atom   29 type  5   force =     0.00000113    0.00000287    0.00001366
     atom   30 type  5   force =    -0.00000113    0.00000287   -0.00001366
     atom   31 type  5   force =     0.00000136    0.00000871   -0.00001623
     atom   32 type  5   force =    -0.00000136    0.00000871    0.00001623
     atom   33 type  5   force =     0.00000330    0.00000412   -0.00001056
     atom   34 type  5   force =    -0.00000330    0.00000412    0.00001056
     atom   35 type  5   force =     0.00000179   -0.00000743    0.00000734
     atom   36 type  5   force =    -0.00000179   -0.00000743   -0.00000734
     atom   37 type  5   force =    -0.00000052   -0.00000398   -0.00001141
     atom   38 type  5   force =     0.00000052   -0.00000398    0.00001141
     atom   39 type  5   force =    -0.00000027    0.00000347   -0.00001626
     atom   40 type  5   force =     0.00000027    0.00000347    0.00001626
     atom   41 type  2   force =    -0.00000010   -0.00000013   -0.00000109
     atom   42 type  2   force =     0.00000010   -0.00000013    0.00000109
     atom   43 type  2   force =     0.00000015    0.00000029   -0.00000398
     atom   44 type  2   force =    -0.00000015    0.00000029    0.00000398

     DFT-D3 dispersion contribution to forces:
     atom    1 type  3   force =    -0.00000000    0.00056613    0.00000000
     atom    2 type  3   force =     0.00000000   -0.00040945    0.00000000
     atom    3 type  4   force =     0.00000000    0.00029798   -0.00000000
     atom    4 type  4   force =     0.00000000    0.00074007   -0.00000000
     atom    5 type  4   force =    -0.00000000   -0.00113113   -0.00000000
     atom    6 type  4   force =     0.00000000   -0.00059530    0.00000000
     atom    7 type  4   force =    -0.00000000    0.00111579    0.00000000
     atom    8 type  4   force =     0.00000000   -0.00023419   -0.00000000
     atom    9 type  6   force =     0.00005002   -0.00007564   -0.00030575
     atom   10 type  6   force =    -0.00005002   -0.00007564    0.00030575
     atom   11 type  6   force =     0.00005005    0.00006346    0.00025133
     atom   12 type  6   force =    -0.00005005    0.00006346   -0.00025133
     atom   13 type  6   force =    -0.00004173    0.00014930   -0.00023268
     atom   14 type  6   force =     0.00004173    0.00014930    0.00023268
     atom   15 type  1   force =     0.00003279    0.00005879   -0.00111146
     atom   16 type  1   force =    -0.00003279    0.00005879    0.00111146
     atom   17 type  5   force =    -0.00000354    0.00004833    0.00044425
     atom   18 type  5   force =     0.00000354    0.00004833   -0.00044425
     atom   19 type  5   force =    -0.00000114    0.00001394   -0.00035459
     atom   20 type  5   force =     0.00000114    0.00001394    0.00035459
     atom   21 type  5   force =    -0.00001325   -0.00005564    0.00038314
     atom   22 type  5   force =     0.00001325   -0.00005564   -0.00038314
     atom   23 type  5   force =    -0.00002359   -0.00001704    0.00009993
     atom   24 type  5   force =     0.00002359   -0.00001704   -0.00009993
     atom   25 type  5   force =    -0.00017034    0.00098056    0.00014548
     atom   26 type  5   force =     0.00017034    0.00098056   -0.00014548
     atom   27 type  5   force =     0.00080580    0.00006935    0.00017469
     atom   28 type  5   force =    -0.00080580    0.00006935   -0.00017469
     atom   29 type  5   force =     0.00042777   -0.00063716   -0.00012842
     atom   30 type  5   force =    -0.00042777   -0.00063716    0.00012842
     atom   31 type  5   force =    -0.00028532    0.00045843    0.00014916
     atom   32 type  5   force =     0.00028532    0.00045843   -0.00014916
     atom   33 type  5   force =     0.00087116   -0.00042615    0.00038534
     atom   34 type  5   force =    -0.00087116   -0.00042615   -0.00038534
     atom   35 type  5   force =     0.00061229   -0.00047676   -0.00035500
     atom   36 type  5   force =    -0.00061229   -0.00047676    0.00035500
     atom   37 type  5   force =    -0.00001448   -0.00005477   -0.00049416
     atom   38 type  5   force =     0.00001448   -0.00005477    0.00049416
     atom   39 type  5   force =     0.00001331    0.00005339   -0.00052447
     atom   40 type  5   force =    -0.00001331    0.00005339    0.00052447
     atom   41 type  2   force =     0.00001626    0.00009973   -0.00028707
     atom   42 type  2   force =    -0.00001626    0.00009973    0.00028707
     atom   43 type  2   force =     0.00008134   -0.00042709   -0.00026917
     atom   44 type  2   force =    -0.00008134   -0.00042709    0.00026917

     Total force =     0.003428     Total SCF correction =     0.000086

     DFT-D3 dispersion Force =     0.004317


     Computing stress (Cartesian axis) and pressure

          total   stress  (Ry/bohr**3)                   (kbar)     P=       15.39
   0.00010446   0.00000000  -0.00000381           15.37        0.00       -0.56
   0.00000000   0.00010800   0.00000000            0.00       15.89        0.00
  -0.00000381   0.00000000   0.00010133           -0.56        0.00       14.91

     kinetic stress (kbar)  19367.77      0.00     -5.31
                                0.00  19364.80      0.00
                               -5.31      0.00  19046.60

     local   stress (kbar) -34454.66      0.00    -33.85
                                0.00 -34221.17      0.00
                              -33.85      0.00  11777.22

     nonloc. stress (kbar)   5141.11      0.00     -0.38
                                0.00   5141.09      0.00
                               -0.38      0.00   5132.40

     hartree stress (kbar)  19166.02     -0.00     11.71
                               -0.00  19062.41      0.00
                               11.71      0.00  -3474.87

     exc-cor stress (kbar)  -2820.18     -0.00      0.05
                               -0.00  -2820.20      0.00
                                0.05      0.00  -2816.82

     corecor stress (kbar)  -1878.74      0.00      0.10
                                0.00  -1878.79     -0.00
                                0.10     -0.00  -1880.34

     ewald   stress (kbar)  -4490.13     -0.00     27.07
                               -0.00  -4616.35     -0.00
                               27.07     -0.00 -27757.26

     hubbard stress (kbar)      0.00      0.00      0.00
                                0.00      0.00      0.00
                                0.00      0.00      0.00

     DFT-D   stress (kbar)    -15.82     -0.00      0.04
                               -0.00    -15.90     -0.00
                                0.04     -0.00    -12.01

     XDM     stress (kbar)      0.00      0.00      0.00
                                0.00      0.00      0.00
                                0.00      0.00      0.00

     dft-nl  stress (kbar)      0.00      0.00      0.00
                                0.00      0.00      0.00
                                0.00      0.00      0.00

     TS-vdW  stress (kbar)      0.00      0.00      0.00
                                0.00      0.00      0.00
                                0.00      0.00      0.00

     MDB     stress (kbar)      0.00      0.00      0.00
                                0.00      0.00      0.00
                                0.00      0.00      0.00

     3D-RISM stress (kbar)      0.00      0.00      0.00
                                0.00      0.00      0.00
                                0.00      0.00      0.00

     Energy error            =      2.0E-05 Ry
     Gradient error          =      9.6E-04 Ry/Bohr

     bfgs converged in  10 scf cycles and   9 bfgs steps
     (criteria: energy <  1.0E-04 Ry, force <  1.0E-03 Ry/Bohr)

     End of BFGS Geometry Optimization

     Final energy             =   -2443.7022885451 Ry

     File ./temp/phl-fe0-dftd3.bfgs deleted, as requested
Begin final coordinates

ATOMIC_POSITIONS (crystal)
K                0.0000000000        0.4928576729        0.0000000000
K                0.5000000000        0.0047969131        0.0000000000
Mg              -0.0000000000        0.0042658554        0.5000000000
Mg              -0.0000000000        0.3332396222        0.5000000000
Mg              -0.0000000000        0.6651665053        0.5000000000
Mg               0.5000000000        0.4932172298        0.5000000000
Mg               0.5000000000        0.8345591536        0.5000000000
Mg               0.5000000000        0.1721908950        0.5000000000
Si               0.0832764521        0.1651013214        0.2220334798
Si               0.9167235339        0.1651013214        0.7779665502
Si               0.9346917617        0.8343420580        0.7715389067
Si               0.0653082383        0.8343420580        0.2284610933
Si               0.5638601133        0.6664656100        0.2262702821
Si               0.4361398867        0.6664656100        0.7737297029
Al               0.4154198727        0.3310902551        0.7760779857
Al               0.5845801273        0.3310902551        0.2239220143
O                0.1272460744        0.1636368377        0.3844599871
O                0.8727538956        0.1636368377        0.6155400419
O                0.8745783431        0.8331184530        0.6104476004
O                0.1254216569        0.8331184530        0.3895523996
O                0.6251585451        0.6689400783        0.3880525001
O                0.3748414549        0.6689400783        0.6119474999
O                0.3612412505        0.3329995440        0.6039226310
O                0.6387587495        0.3329995440        0.3960773690
O                0.3430573729        0.2026459111        0.1646552724
O                0.6569426271        0.2026459111        0.8353446976
O                0.9951858810        0.9972458589        0.1670788767
O                0.0048141190        0.9972458589        0.8329211083
O                0.6831640249        0.7752667184        0.8314383717
O                0.3168359751        0.7752667184        0.1685616283
O                0.8155047855        0.7319258113        0.1676041884
O                0.1844952145        0.7319258113        0.8323958116
O                0.4959707559        0.5077547485        0.1613919017
O                0.5040292141        0.5077547485        0.8386081133
O                0.1431857178        0.2768277916        0.8414919310
O                0.8568142972        0.2768277916        0.1585080690
O                0.1302505541        0.5041927170        0.3937162149
O                0.8697494609        0.5041927170        0.6062837851
O                0.6322521337        0.9992581632        0.3971824560
O                0.3677478663        0.9992581632        0.6028175140
H                0.0989133058        0.4951165442        0.2979959016
H                0.9010867242        0.4951165442        0.7020040984
H                0.5954154235        0.0139221811        0.3019556925
H                0.4045845765        0.0139221811        0.6980443075
End final coordinates



     Writing all to output data dir ./temp/phl-fe0-dftd3.save/ :
     XML data file, charge density, pseudopotentials, collected wavefunctions

     init_run     :    115.75s CPU    116.64s WALL (       1 calls)
     electrons    :  42026.23s CPU  42263.48s WALL (      10 calls)
     update_pot   :      8.19s CPU      8.32s WALL (       9 calls)
     forces       :    778.36s CPU    784.15s WALL (      10 calls)
     force_dftd3  :     37.97s CPU     38.03s WALL (      10 calls)
     stress       :   2064.03s CPU   2090.69s WALL (      10 calls)
     stres_dftd3  :     37.97s CPU     37.98s WALL (      10 calls)

     Called by init_run:
     wfcinit      :    110.91s CPU    111.31s WALL (       1 calls)
     wfcinit:atom :      0.16s CPU      0.16s WALL (      20 calls)
     wfcinit:wfcr :    109.25s CPU    109.64s WALL (      20 calls)
     potinit      :      1.04s CPU      1.06s WALL (       1 calls)
     hinit0       :      0.66s CPU      0.67s WALL (       1 calls)

     Called by electrons:
     c_bands      :  39135.56s CPU  39276.61s WALL (      94 calls)
     sum_band     :   2535.37s CPU   2592.99s WALL (      94 calls)
     v_of_rho     :     20.22s CPU     20.75s WALL (      97 calls)
     v_h          :      1.78s CPU      1.83s WALL (      97 calls)
     v_xc         :     22.21s CPU     22.88s WALL (     117 calls)
     newd         :    281.22s CPU    323.17s WALL (      97 calls)
     PAW_pot      :     59.43s CPU     59.46s WALL (     106 calls)
     mix_rho      :      3.45s CPU      3.56s WALL (      94 calls)
     energy_dftd3 :     30.48s CPU     30.48s WALL (      10 calls)

     Called by c_bands:
     init_us_2    :     94.60s CPU     94.72s WALL (    4360 calls)
     cegterg      :  38993.49s CPU  39132.74s WALL (    1880 calls)

     Called by sum_band:
     sum_band:wei :      0.00s CPU      0.00s WALL (      94 calls)
     sum_band:loo :   2135.78s CPU   2150.46s WALL (      94 calls)
     sum_band:buf :     10.65s CPU     10.68s WALL (    1880 calls)
     sum_band:ini :     41.33s CPU     41.39s WALL (    1880 calls)
     sum_band:cal :   1681.37s CPU   1682.69s WALL (    2060 calls)
     sum_band:bec :      2.85s CPU      2.86s WALL (    2060 calls)
     addusdens    :    394.38s CPU    437.12s WALL (      94 calls)
                                        0.00s GPU  (      94 calls)
     addusd:skk   :      2.91s CPU      4.61s WALL (     564 calls)
                                        0.00s GPU  (     564 calls)

     Called by *egterg:
     cdiaghg      :    626.88s CPU    627.08s WALL (   14337 calls)
     cegterg:over :   4610.47s CPU   4613.06s WALL (   12777 calls)
     cegterg:upda :   2861.05s CPU   2867.88s WALL (   12777 calls)
     cegterg:last :   8072.89s CPU   8075.20s WALL (    7345 calls)
     h_psi        :  15709.23s CPU  15806.08s WALL (   14677 calls)
     s_psi        :   6201.49s CPU   6203.97s WALL (   14677 calls)
     g_psi        :     16.92s CPU     16.94s WALL (   12777 calls)

     Called by h_psi:
     h_psi:calbec :   6212.79s CPU   6216.59s WALL (   14677 calls)
     vloc_psi     :   3256.93s CPU   3335.86s WALL (   14677 calls)
     add_vuspsi   :   6206.67s CPU   6208.50s WALL (   14677 calls)

     General routines
     calbec       :   8707.17s CPU   8712.51s WALL (   17737 calls)
     fft          :     16.20s CPU     17.17s WALL (    1507 calls)
     ffts         :      0.67s CPU      0.69s WALL (     191 calls)
     fftw         :   2467.65s CPU   2525.12s WALL ( 2190116 calls)
     interpolate  :      1.75s CPU      1.83s WALL (      97 calls)

     Parallel routines

     PAW routines
     PAW_pot      :     59.43s CPU     59.46s WALL (     106 calls)
     PAW_symme    :      0.03s CPU      0.03s WALL (     200 calls)

     PWSCF        :     12h32m CPU     12h37m WALL


   This run was terminated on:  12:47: 5  26Dec2024            

=------------------------------------------------------------------------------=
   JOB DONE.
=------------------------------------------------------------------------------=
