
     Program PWSCF v.7.3.1 starts on  7Dec2025 at 14:27: 5 

     This program is part of the open-source Quantum ESPRESSO suite
     for quantum simulation of materials; please cite
         "P. Giannozzi et al., J. Phys.:Condens. Matter 21 395502 (2009);
         "P. Giannozzi et al., J. Phys.:Condens. Matter 29 465901 (2017);
         "P. Giannozzi et al., J. Chem. Phys. 152 154105 (2020);
          URL http://www.quantum-espresso.org", 
     in publications or presentations arising from this work. More details at
     http://www.quantum-espresso.org/quote

     Parallel version (MPI), running on    14 processors

     MPI processes distributed on     1 nodes
     24704 MiB available memory on the printing compute node when the environment starts

     Reading input from relax.in

     Current dimensions of program PWSCF are:
     Max number of different atomic species (ntypx) = 10
     Max number of k-points (npk) =  40000
     Max angular momentum in pseudopotentials (lmaxx) =  4
     file Al.pbe-n-kjpaw_psl.1.0.0.UPF: wavefunction(s)  3S 3P renormalized
     file H.pbe-kjpaw_psl.1.0.0.UPF: wavefunction(s)  1S renormalized
     file K.pbe-spn-kjpaw_psl.1.0.0.UPF: wavefunction(s)  3S renormalized
     file Mg.pbe-spnl-kjpaw_psl.1.0.0.UPF: wavefunction(s)  2P renormalized
     file O.pbe-n-kjpaw_psl.1.0.0.UPF: wavefunction(s)  2S 2P renormalized
     file Si.pbe-n-kjpaw_psl.1.0.0.UPF: wavefunction(s)  3S 3P renormalized

     K-points division:     npool     =       2
     R & G space division:  proc/nbgrp/npool/nimage =       7
     Subspace diagonalization in iterative solution of the eigenvalue problem:
     a serial algorithm will be used


     Parallelization info
     --------------------
     sticks:   dense  smooth     PW     G-vecs:    dense   smooth      PW
     Min        1425     712    191               153973    54439    7571
     Max        1426     713    192               153974    54443    7575
     Sum        9981    4989   1341              1077817   381081   53011

     Using Slab Decomposition



     bravais-lattice index     =          -12
     lattice parameter (alat)  =      10.0136  a.u.
     unit-cell volume          =    3303.4414 (a.u.)^3
     number of atoms/cell      =           44
     number of atomic types    =            6
     number of electrons       =       256.00
     number of Kohn-Sham states=          128
     kinetic-energy cutoff     =      90.0000  Ry
     charge density cutoff     =     720.0000  Ry
     scf convergence threshold =      1.0E-08
     mixing beta               =       0.7000
     number of iterations used =            8  plain     mixing
     energy convergence thresh.=      1.0E-05
     force convergence thresh. =      1.0E-04
     Exchange-correlation= SLA  PW   PBX  PBC
                           (   1   4   3   4   0   0   0)
     nstep                     =          100


     celldm(1)=  10.013640  celldm(2)=   1.735306  celldm(3)=   1.926511
     celldm(4)=   0.000000  celldm(5)=  -0.177565  celldm(6)=   0.000000

     crystal axes: (cart. coord. in units of alat)
               a(1) = (   1.000000   0.000000   0.000000 )  
               a(2) = (   0.000000   1.735306   0.000000 )  
               a(3) = (  -0.342081   0.000000   1.895896 )  

     reciprocal axes: (cart. coord. in units 2 pi/alat)
               b(1) = (  1.000000 -0.000000  0.180432 )  
               b(2) = (  0.000000  0.576267 -0.000000 )  
               b(3) = (  0.000000  0.000000  0.527455 )  


     PseudoPot. # 1 for Al read from file:
     ./../../pseudos/Al.pbe-n-kjpaw_psl.1.0.0.UPF
     MD5 check sum: 502b6b27b9c6270cab5dd1084b96fa6d
     Pseudo is Projector augmented-wave + core cor, Zval =  3.0
     Generated using &quot;atomic&quot; code by A. Dal Corso  v.6.3
     Shape of augmentation charge: PSQ
     Using radial grid of 1135 points,  6 beta functions with: 
                l(1) =   0
                l(2) =   0
                l(3) =   1
                l(4) =   1
                l(5) =   2
                l(6) =   2
     Q(r) pseudized with 0 coefficients 


     PseudoPot. # 2 for H  read from file:
     ./../../pseudos/H.pbe-kjpaw_psl.1.0.0.UPF
     MD5 check sum: d81a744832360e4a8af0b0b5b123bc2a
     Pseudo is Projector augmented-wave, Zval =  1.0
     Generated using &quot;atomic&quot; code by A. Dal Corso  v.6.3MaX
     Shape of augmentation charge: PSQ
     Using radial grid of  929 points,  2 beta functions with: 
                l(1) =   0
                l(2) =   0
     Q(r) pseudized with 0 coefficients 


     PseudoPot. # 3 for K  read from file:
     ./../../pseudos/K.pbe-spn-kjpaw_psl.1.0.0.UPF
     MD5 check sum: 34cc42130a09071ebe376fd42eb21491
     Pseudo is Projector augmented-wave + core cor, Zval =  9.0
     Generated using &quot;atomic&quot; code by A. Dal Corso  v.6.2.2
     Shape of augmentation charge: PSQ
     Using radial grid of 1165 points,  6 beta functions with: 
                l(1) =   0
                l(2) =   0
                l(3) =   1
                l(4) =   1
                l(5) =   2
                l(6) =   2
     Q(r) pseudized with 0 coefficients 


     PseudoPot. # 4 for Mg read from file:
     ./../../pseudos/Mg.pbe-spnl-kjpaw_psl.1.0.0.UPF
     MD5 check sum: fda14e0d92a6a9a5ebed782e5a4b3067
     Pseudo is Projector augmented-wave + core cor, Zval = 10.0
     Generated using &quot;atomic&quot; code by A. Dal Corso  v.6.3
     Shape of augmentation charge: PSQ
     Using radial grid of 1129 points,  4 beta functions with: 
                l(1) =   0
                l(2) =   0
                l(3) =   1
                l(4) =   1
     Q(r) pseudized with 0 coefficients 


     PseudoPot. # 5 for O  read from file:
     ./../../pseudos/O.pbe-n-kjpaw_psl.1.0.0.UPF
     MD5 check sum: e99d9cef9b487d1ca56f5b95ecd0fd7a
     Pseudo is Projector augmented-wave + core cor, Zval =  6.0
     Generated using &quot;atomic&quot; code by A. Dal Corso  v.6.3
     Shape of augmentation charge: PSQ
     Using radial grid of 1095 points,  4 beta functions with: 
                l(1) =   0
                l(2) =   0
                l(3) =   1
                l(4) =   1
     Q(r) pseudized with 0 coefficients 


     PseudoPot. # 6 for Si read from file:
     ./../../pseudos/Si.pbe-n-kjpaw_psl.1.0.0.UPF
     MD5 check sum: c39c59da582df4a0d9f10159256ea34e
     Pseudo is Projector augmented-wave + core cor, Zval =  4.0
     Generated using &quot;atomic&quot; code by A. Dal Corso  v.6.3
     Shape of augmentation charge: PSQ
     Using radial grid of 1141 points,  6 beta functions with: 
                l(1) =   0
                l(2) =   0
                l(3) =   1
                l(4) =   1
                l(5) =   2
                l(6) =   2
     Q(r) pseudized with 0 coefficients 


     atomic species   valence    mass     pseudopotential
     Al                3.00    26.98154     Al( 1.00)
     H                 1.00     1.00794     H ( 1.00)
     K                 9.00    39.09830     K ( 1.00)
     Mg               10.00    24.30500     Mg( 1.00)
     O                 6.00    15.99940     O ( 1.00)
     Si                4.00    28.08550     Si( 1.00)

      2 Sym. Ops. (no inversion) found


                                    s                        frac. trans.

      isym =  1     identity                                     

 cryst.   s( 1) = (     1          0          0      )
                  (     0          1          0      )
                  (     0          0          1      )

 cart.    s( 1) = (  1.0000000  0.0000000 -0.0000000 )
                  (  0.0000000  1.0000000  0.0000000 )
                  (  0.0000000  0.0000000  1.0000000 )


      isym =  2     180 deg rotation - cart. axis [0,1,0]        

 cryst.   s( 2) = (    -1          0          0      )
                  (     0          1          0      )
                  (     0          0         -1      )

 cart.    s( 2) = ( -1.0000000  0.0000000  0.0000000 )
                  (  0.0000000  1.0000000  0.0000000 )
                  (  0.0000000  0.0000000 -1.0000000 )


     point group C_2  (2)   
     there are  2 classes
     the character table:

       E     C2   
A      1.00  1.00
B      1.00 -1.00

     the symmetry operations in each class and the name of the first element:

     E        1
          identity                                               
     C2       2
          180 deg rotation - cart. axis [0,1,0]                  

   Cartesian axes

     site n.     atom                  positions (alat units)
         1        K      tau(   1) = (   0.0000000   0.8559224   0.0000000  )
         2        K      tau(   2) = (   0.5000000   0.0093568   0.0000000  )
         3        Mg     tau(   3) = (  -0.1710407   0.0067712   0.9479482  )
         4        Mg     tau(   4) = (  -0.1710407   0.5780843   0.9479482  )
         5        Mg     tau(   5) = (  -0.1710407   1.1543881   0.9479482  )
         6        Mg     tau(   6) = (   0.3289593   0.8562226   0.9479482  )
         7        Mg     tau(   7) = (   0.3289593   1.4480089   0.9479482  )
         8        Mg     tau(   8) = (   0.3289593   0.2986375   0.9479482  )
         9        Si     tau(   9) = (   0.0066674   0.2865251   0.4219393  )
        10        Si     tau(  10) = (   0.6512512   0.2865251   1.4739571  )
        11        Si     tau(  11) = (   0.6701371   1.4476688   1.4628623  )
        12        Si     tau(  12) = (  -0.0122184   1.4476688   0.4330341  )
        13        Si     tau(  13) = (   0.4872056   1.1568454   0.4292651  )
        14        Si     tau(  14) = (   0.1707131   1.1568454   1.4666313  )
        15        Al     tau(  15) = (   0.1506005   0.5746762   1.4713786  )
        16        Al     tau(  16) = (   0.5073182   0.5746762   0.4245178  )
        17        O      tau(  17) = (  -0.0043508   0.2833738   0.7297400  )
        18        O      tau(  18) = (   0.6622695   0.2833738   1.1661564  )
        19        O      tau(  19) = (   0.6658139   1.4451231   1.1576912  )
        20        O      tau(  20) = (  -0.0078952   1.4451231   0.7382052  )
        21        O      tau(  21) = (   0.4926234   1.1618863   0.7357690  )
        22        O      tau(  22) = (   0.1652953   1.1618863   1.1601274  )
        23        O      tau(  23) = (   0.1548298   0.5779784   1.1454267  )
        24        O      tau(  24) = (   0.5030889   0.5779784   0.7504697  )
        25        O      tau(  25) = (   0.2847398   0.3548857   0.3143567  )
        26        O      tau(  26) = (   0.3731789   0.3548857   1.5815397  )
        27        O      tau(  27) = (   0.9404978   1.7303189   0.3181314  )
        28        O      tau(  28) = (  -0.2825791   1.7303189   1.5777650  )
        29        O      tau(  29) = (   0.3988927   1.3439356   1.5754330  )
        30        O      tau(  30) = (   0.2590260   1.3439356   0.3204634  )
        31        O      tau(  31) = (   0.7582660   1.2710892   0.3185125  )
        32        O      tau(  32) = (  -0.1003473   1.2710892   1.5773839  )
        33        O      tau(  33) = (   0.4432368   0.8811364   0.3085875  )
        34        O      tau(  34) = (   0.2146819   0.8811364   1.5873090  )
        35        O      tau(  35) = (  -0.1423236   0.4782556   1.5925436  )
        36        O      tau(  36) = (   0.8002423   0.4782556   0.3033529  )
        37        O      tau(  37) = (  -0.0041068   0.8750247   0.7469263  )
        38        O      tau(  38) = (   0.6620255   0.8750247   1.1489701  )
        39        O      tau(  39) = (   0.4966158   1.7335917   0.7534577  )
        40        O      tau(  40) = (   0.1613029   1.7335917   1.1424387  )
        41        H      tau(  41) = (  -0.0032097   0.8603995   0.5673129  )
        42        H      tau(  42) = (   0.6611284   0.8603995   1.3285835  )
        43        H      tau(  43) = (   0.4926802   0.0219534   0.5746291  )
        44        H      tau(  44) = (   0.1652385   0.0219534   1.3212673  )

     --------------------------------------------
     DFT-D3 Dispersion Correction (3-body terms):
     --------------------------------------------
       Reference C6 values for interpolation: 

         atom   Coordination number   C6
         H          0.912             6.05
         H          0.000            15.18
         O          0.000            31.01
         O          0.993            25.63
         O          1.989            20.74
         Mg         0.000          1366.75
         Mg         0.963           902.54
         Mg         1.950           351.12
         Al         0.000          1081.08
         Al         0.965           875.51
         Al         1.931           513.50
         Al         2.915           307.19
         Si         0.000           635.71
         Si         0.951           540.53
         Si         1.944           466.25
         Si         2.941           443.01
         Si         3.868           299.55
         K          0.000          9967.00
         K          0.977           676.04

       Values used:

         atom   Coordination number  R0_AB[au]  C6      C8
         K         13.618            4.007    676.04 129074.98
         K         13.832            4.007    676.04 129074.98
         Mg        11.862            3.292    351.12  31436.69
         Mg        12.215            3.292    351.12  31436.69
         Mg        11.802            3.292    351.12  31436.69
         Mg        12.075            3.292    351.12  31436.69
         Mg        11.766            3.292    351.12  31436.69
         Mg        12.233            3.292    351.12  31436.69
         Si         6.969            3.583    299.55  21425.58
         Si         6.969            3.583    299.55  21425.58
         Si         6.546            3.583    299.55  21425.58
         Si         6.546            3.583    299.55  21425.58
         Si         6.597            3.583    299.55  21425.58
         Si         6.597            3.583    299.55  21425.58
         Al         7.870            3.789    307.19  29441.29
         Al         7.870            3.789    307.19  29441.29
         O          3.931            2.345     20.74    418.58
         O          3.931            2.345     20.74    418.58
         O          3.930            2.345     20.74    418.58
         O          3.930            2.345     20.74    418.58
         O          3.913            2.345     20.74    418.58
         O          3.913            2.345     20.74    418.58
         O          3.992            2.345     20.74    418.58
         O          3.992            2.345     20.74    418.58
         O          3.192            2.345     20.74    418.58
         O          3.192            2.345     20.74    418.58
         O          3.154            2.345     20.74    418.58
         O          3.154            2.345     20.74    418.58
         O          3.056            2.345     20.74    418.58
         O          3.056            2.345     20.74    418.58
         O          3.060            2.345     20.74    418.58
         O          3.060            2.345     20.74    418.58
         O          3.190            2.345     20.74    418.58
         O          3.190            2.345     20.74    418.58
         O          3.263            2.345     20.74    418.58
         O          3.263            2.345     20.74    418.58
         O          4.005            2.345     20.74    418.58
         O          4.005            2.345     20.74    418.58
         O          4.004            2.345     20.74    418.58
         O          4.004            2.345     20.74    418.58
         H          1.323            2.062      6.07     73.32
         H          1.323            2.062      6.07     73.32
         H          1.300            2.062      6.07     73.35
         H          1.300            2.062      6.07     73.35

         Molecular C6 ( Ry / a.u.^6 ) =    168241.01


   Crystallographic axes

     site n.     atom                  positions (cryst. coord.)
         1        K      tau(   1) = (  0.0000000  0.4932400  0.0000000  )
         2        K      tau(   2) = (  0.5000000  0.0053920  0.0000000  )
         3        Mg     tau(   3) = (  0.0000000  0.0039020  0.5000000  )
         4        Mg     tau(   4) = (  0.0000000  0.3331310  0.5000000  )
         5        Mg     tau(   5) = (  0.0000000  0.6652360  0.5000000  )
         6        Mg     tau(   6) = (  0.5000000  0.4934130  0.5000000  )
         7        Mg     tau(   7) = (  0.5000000  0.8344400  0.5000000  )
         8        Mg     tau(   8) = (  0.5000000  0.1720950  0.5000000  )
         9        Si     tau(   9) = (  0.0827990  0.1651150  0.2225540  )
        10        Si     tau(  10) = (  0.9172010  0.1651150  0.7774460  )
        11        Si     tau(  11) = (  0.9340850  0.8342440  0.7715940  )
        12        Si     tau(  12) = (  0.0659150  0.8342440  0.2284060  )
        13        Si     tau(  13) = (  0.5646590  0.6666520  0.2264180  )
        14        Si     tau(  14) = (  0.4353410  0.6666520  0.7735820  )
        15        Al     tau(  15) = (  0.4160850  0.3311670  0.7760860  )
        16        Al     tau(  16) = (  0.5839150  0.3311670  0.2239140  )
        17        O      tau(  17) = (  0.1273180  0.1632990  0.3849050  )
        18        O      tau(  18) = (  0.8726820  0.1632990  0.6150950  )
        19        O      tau(  19) = (  0.8746990  0.8327770  0.6106300  )
        20        O      tau(  20) = (  0.1253010  0.8327770  0.3893700  )
        21        O      tau(  21) = (  0.6253800  0.6695570  0.3880850  )
        22        O      tau(  22) = (  0.3746200  0.6695570  0.6119150  )
        23        O      tau(  23) = (  0.3615020  0.3330700  0.6041610  )
        24        O      tau(  24) = (  0.6384980  0.3330700  0.3958390  )
        25        O      tau(  25) = (  0.3414600  0.2045090  0.1658090  )
        26        O      tau(  26) = (  0.6585400  0.2045090  0.8341910  )
        27        O      tau(  27) = (  0.9978990  0.9971260  0.1678000  )
        28        O      tau(  28) = (  0.0021010  0.9971260  0.8322000  )
        29        O      tau(  29) = (  0.6831520  0.7744660  0.8309700  )
        30        O      tau(  30) = (  0.3168480  0.7744660  0.1690300  )
        31        O      tau(  31) = (  0.8157360  0.7324870  0.1680010  )
        32        O      tau(  32) = (  0.1842640  0.7324870  0.8319990  )
        33        O      tau(  33) = (  0.4989160  0.5077700  0.1627660  )
        34        O      tau(  34) = (  0.5010840  0.5077700  0.8372340  )
        35        O      tau(  35) = (  0.1450230  0.2756030  0.8399950  )
        36        O      tau(  36) = (  0.8549770  0.2756030  0.1600050  )
        37        O      tau(  37) = (  0.1306630  0.5042480  0.3939700  )
        38        O      tau(  38) = (  0.8693370  0.5042480  0.6060300  )
        39        O      tau(  39) = (  0.6325640  0.9990120  0.3974150  )
        40        O      tau(  40) = (  0.3674360  0.9990120  0.6025850  )
        41        H      tau(  41) = (  0.0991520  0.4958200  0.2992320  )
        42        H      tau(  42) = (  0.9008480  0.4958200  0.7007680  )
        43        H      tau(  43) = (  0.5963620  0.0126510  0.3030910  )
        44        H      tau(  44) = (  0.4036380  0.0126510  0.6969090  )

     number of k points=    20
                       cart. coord. in units 2pi/alat
        k(    1) = (   0.0000000   0.0000000   0.0000000), wk =   0.0370370
        k(    2) = (   0.0000000   0.0000000   0.1758183), wk =   0.0740741
        k(    3) = (   0.0000000   0.1920891   0.0000000), wk =   0.0740741
        k(    4) = (   0.0000000   0.1920891   0.1758183), wk =   0.1481481
        k(    5) = (   0.1666667   0.0000000   0.0300721), wk =   0.0740741
        k(    6) = (   0.1666667   0.0000000   0.2058904), wk =   0.0740741
        k(    7) = (   0.1666667   0.0000000  -0.1457462), wk =   0.0740741
        k(    8) = (   0.1666667   0.1920891   0.0300721), wk =   0.1481481
        k(    9) = (   0.1666667   0.1920891   0.2058904), wk =   0.1481481
        k(   10) = (   0.1666667   0.1920891  -0.1457462), wk =   0.1481481
        k(   11) = (   0.3333333   0.0000000   0.0601442), wk =   0.0740741
        k(   12) = (   0.3333333   0.0000000   0.2359625), wk =   0.0740741
        k(   13) = (   0.3333333   0.0000000  -0.1156742), wk =   0.0740741
        k(   14) = (   0.3333333   0.1920891   0.0601442), wk =   0.1481481
        k(   15) = (   0.3333333   0.1920891   0.2359625), wk =   0.1481481
        k(   16) = (   0.3333333   0.1920891  -0.1156742), wk =   0.1481481
        k(   17) = (  -0.5000000   0.0000000  -0.0902162), wk =   0.0370370
        k(   18) = (  -0.5000000   0.0000000   0.0856021), wk =   0.0740741
        k(   19) = (  -0.5000000   0.1920891  -0.0902162), wk =   0.0740741
        k(   20) = (  -0.5000000   0.1920891   0.0856021), wk =   0.1481481

                       cryst. coord.
        k(    1) = (   0.0000000   0.0000000   0.0000000), wk =   0.0370370
        k(    2) = (   0.0000000   0.0000000   0.3333333), wk =   0.0740741
        k(    3) = (   0.0000000   0.3333333   0.0000000), wk =   0.0740741
        k(    4) = (   0.0000000   0.3333333   0.3333333), wk =   0.1481481
        k(    5) = (   0.1666667   0.0000000  -0.0000000), wk =   0.0740741
        k(    6) = (   0.1666667   0.0000000   0.3333333), wk =   0.0740741
        k(    7) = (   0.1666667   0.0000000  -0.3333333), wk =   0.0740741
        k(    8) = (   0.1666667   0.3333333  -0.0000000), wk =   0.1481481
        k(    9) = (   0.1666667   0.3333333   0.3333333), wk =   0.1481481
        k(   10) = (   0.1666667   0.3333333  -0.3333333), wk =   0.1481481
        k(   11) = (   0.3333333   0.0000000  -0.0000000), wk =   0.0740741
        k(   12) = (   0.3333333   0.0000000   0.3333333), wk =   0.0740741
        k(   13) = (   0.3333333   0.0000000  -0.3333333), wk =   0.0740741
        k(   14) = (   0.3333333   0.3333333  -0.0000000), wk =   0.1481481
        k(   15) = (   0.3333333   0.3333333   0.3333333), wk =   0.1481481
        k(   16) = (   0.3333333   0.3333333  -0.3333333), wk =   0.1481481
        k(   17) = (  -0.5000000   0.0000000   0.0000000), wk =   0.0370370
        k(   18) = (  -0.5000000   0.0000000   0.3333333), wk =   0.0740741
        k(   19) = (  -0.5000000   0.3333333   0.0000000), wk =   0.0740741
        k(   20) = (  -0.5000000   0.3333333   0.3333333), wk =   0.1481481

     Dense  grid:  1077817 G-vectors     FFT dimensions: (  90, 150, 180)

     Smooth grid:   381081 G-vectors     FFT dimensions: (  64, 108, 120)

     Dynamical RAM for                 wfc:      13.29 MB

     Dynamical RAM for     wfc (w. buffer):     146.18 MB

     Dynamical RAM for           str. fact:      14.10 MB

     Dynamical RAM for           local pot:       0.00 MB

     Dynamical RAM for          nlocal pot:      44.44 MB

     Dynamical RAM for                qrad:      12.92 MB

     Dynamical RAM for          rho,v,vnew:      15.08 MB

     Dynamical RAM for               rhoin:       5.03 MB

     Dynamical RAM for            rho*nmix:      37.59 MB

     Dynamical RAM for           G-vectors:       9.23 MB

     Dynamical RAM for          h,s,v(r/c):       3.00 MB

     Dynamical RAM for          <psi|beta>:       0.84 MB

     Dynamical RAM for                 psi:      26.58 MB

     Dynamical RAM for                hpsi:      26.58 MB

     Dynamical RAM for                spsi:      26.58 MB

     Dynamical RAM for      wfcinit/wfcrot:      37.69 MB

     Dynamical RAM for           addusdens:     247.86 MB

     Dynamical RAM for          addusforce:     302.00 MB

     Estimated static dynamical RAM per process >     276.80 MB

     Estimated max dynamical RAM per process >     616.38 MB

     Estimated total dynamical RAM >       8.17 GB

     Check: negative core charge=   -0.000002

     Initial potential from superposition of free atoms

     starting charge     255.9488, renormalised to     256.0000
     Starting wfcs are  178 randomized atomic wfcs
     Checking if some PAW data can be deallocated... 
       PAW data deallocated on   13 nodes for type:  1
       PAW data deallocated on   12 nodes for type:  2
       PAW data deallocated on   13 nodes for type:  3
       PAW data deallocated on   12 nodes for type:  4
       PAW data deallocated on    5 nodes for type:  5
       PAW data deallocated on   12 nodes for type:  6

     total cpu time spent up to now is      109.8 secs

     Self-consistent Calculation

     iteration #  1     ecut=    90.00 Ry     beta= 0.70
     Davidson diagonalization with overlap

---- Real-time Memory Report at c_bands before calling an iterative solver
           350 MiB given to the printing process from OS
             0 MiB allocation reported by mallinfo(arena+hblkhd)
         20099 MiB available memory on the node where the printing process lives
------------------
     ethr =  1.00E-02,  avg # of iterations =  2.0

     total cpu time spent up to now is      357.4 secs

     total energy              =   -2436.30776763 Ry
     estimated scf accuracy    <      12.59264121 Ry

     iteration #  2     ecut=    90.00 Ry     beta= 0.70
     Davidson diagonalization with overlap

---- Real-time Memory Report at c_bands before calling an iterative solver
           587 MiB given to the printing process from OS
             0 MiB allocation reported by mallinfo(arena+hblkhd)
         17144 MiB available memory on the node where the printing process lives
------------------
     ethr =  4.92E-03,  avg # of iterations =  5.5

     total cpu time spent up to now is      816.0 secs

     total energy              =   -2442.00556309 Ry
     estimated scf accuracy    <      10.66063131 Ry

     iteration #  3     ecut=    90.00 Ry     beta= 0.70
     Davidson diagonalization with overlap

---- Real-time Memory Report at c_bands before calling an iterative solver
           589 MiB given to the printing process from OS
             0 MiB allocation reported by mallinfo(arena+hblkhd)
         16853 MiB available memory on the node where the printing process lives
------------------
     ethr =  4.16E-03,  avg # of iterations =  2.0

     total cpu time spent up to now is     1034.0 secs

     total energy              =   -2441.19351213 Ry
     estimated scf accuracy    <       2.41211557 Ry

     iteration #  4     ecut=    90.00 Ry     beta= 0.70
     Davidson diagonalization with overlap

---- Real-time Memory Report at c_bands before calling an iterative solver
           591 MiB given to the printing process from OS
             0 MiB allocation reported by mallinfo(arena+hblkhd)
         16862 MiB available memory on the node where the printing process lives
------------------
     ethr =  9.42E-04,  avg # of iterations =  6.7

     total cpu time spent up to now is     1577.1 secs

     total energy              =   -2443.96686020 Ry
     estimated scf accuracy    <       2.48137199 Ry

     iteration #  5     ecut=    90.00 Ry     beta= 0.70
     Davidson diagonalization with overlap

---- Real-time Memory Report at c_bands before calling an iterative solver
           593 MiB given to the printing process from OS
             0 MiB allocation reported by mallinfo(arena+hblkhd)
         17057 MiB available memory on the node where the printing process lives
------------------
     ethr =  9.42E-04,  avg # of iterations =  1.0

     total cpu time spent up to now is     1763.6 secs

     total energy              =   -2443.28306960 Ry
     estimated scf accuracy    <       1.54015409 Ry

     iteration #  6     ecut=    90.00 Ry     beta= 0.70
     Davidson diagonalization with overlap

---- Real-time Memory Report at c_bands before calling an iterative solver
           595 MiB given to the printing process from OS
             0 MiB allocation reported by mallinfo(arena+hblkhd)
         17064 MiB available memory on the node where the printing process lives
------------------
     ethr =  6.02E-04,  avg # of iterations =  5.0

     total cpu time spent up to now is     2038.7 secs

     total energy              =   -2443.56852612 Ry
     estimated scf accuracy    <       0.14887136 Ry

     iteration #  7     ecut=    90.00 Ry     beta= 0.70
     Davidson diagonalization with overlap

---- Real-time Memory Report at c_bands before calling an iterative solver
           596 MiB given to the printing process from OS
             0 MiB allocation reported by mallinfo(arena+hblkhd)
         16935 MiB available memory on the node where the printing process lives
------------------
     ethr =  5.82E-05,  avg # of iterations =  6.5

     total cpu time spent up to now is     2523.2 secs

     total energy              =   -2443.73542510 Ry
     estimated scf accuracy    <       0.02896573 Ry

     iteration #  8     ecut=    90.00 Ry     beta= 0.70
     Davidson diagonalization with overlap

---- Real-time Memory Report at c_bands before calling an iterative solver
           598 MiB given to the printing process from OS
             0 MiB allocation reported by mallinfo(arena+hblkhd)
         17013 MiB available memory on the node where the printing process lives
------------------
     ethr =  1.13E-05,  avg # of iterations =  4.4

     total cpu time spent up to now is     2849.8 secs

     total energy              =   -2443.74203251 Ry
     estimated scf accuracy    <       0.00801849 Ry

     iteration #  9     ecut=    90.00 Ry     beta= 0.70
     Davidson diagonalization with overlap

---- Real-time Memory Report at c_bands before calling an iterative solver
           600 MiB given to the printing process from OS
             0 MiB allocation reported by mallinfo(arena+hblkhd)
         16756 MiB available memory on the node where the printing process lives
------------------
     ethr =  3.13E-06,  avg # of iterations =  7.8

     total cpu time spent up to now is     3247.5 secs

     total energy              =   -2443.74577495 Ry
     estimated scf accuracy    <       0.00208840 Ry

     iteration # 10     ecut=    90.00 Ry     beta= 0.70
     Davidson diagonalization with overlap

---- Real-time Memory Report at c_bands before calling an iterative solver
           602 MiB given to the printing process from OS
             0 MiB allocation reported by mallinfo(arena+hblkhd)
         17263 MiB available memory on the node where the printing process lives
------------------
     ethr =  8.16E-07,  avg # of iterations =  9.0

     total cpu time spent up to now is     3866.5 secs

     total energy              =   -2443.74858544 Ry
     estimated scf accuracy    <       0.00508017 Ry

     iteration # 11     ecut=    90.00 Ry     beta= 0.70
     Davidson diagonalization with overlap

---- Real-time Memory Report at c_bands before calling an iterative solver
           602 MiB given to the printing process from OS
             0 MiB allocation reported by mallinfo(arena+hblkhd)
         16653 MiB available memory on the node where the printing process lives
------------------
     ethr =  8.16E-07,  avg # of iterations =  4.8

     total cpu time spent up to now is     4122.0 secs

     total energy              =   -2443.74760000 Ry
     estimated scf accuracy    <       0.00656585 Ry

     iteration # 12     ecut=    90.00 Ry     beta= 0.70
     Davidson diagonalization with overlap

---- Real-time Memory Report at c_bands before calling an iterative solver
           602 MiB given to the printing process from OS
             0 MiB allocation reported by mallinfo(arena+hblkhd)
         17064 MiB available memory on the node where the printing process lives
------------------
     ethr =  8.16E-07,  avg # of iterations =  5.1

     total cpu time spent up to now is     4404.4 secs

     total energy              =   -2443.74620101 Ry
     estimated scf accuracy    <       0.00498991 Ry

     iteration # 13     ecut=    90.00 Ry     beta= 0.70
     Davidson diagonalization with overlap

---- Real-time Memory Report at c_bands before calling an iterative solver
           602 MiB given to the printing process from OS
             0 MiB allocation reported by mallinfo(arena+hblkhd)
         17097 MiB available memory on the node where the printing process lives
------------------
     ethr =  8.16E-07,  avg # of iterations =  4.2

     total cpu time spent up to now is     4675.2 secs

     total energy              =   -2443.74668488 Ry
     estimated scf accuracy    <       0.00150358 Ry

     iteration # 14     ecut=    90.00 Ry     beta= 0.70
     Davidson diagonalization with overlap

---- Real-time Memory Report at c_bands before calling an iterative solver
           602 MiB given to the printing process from OS
             0 MiB allocation reported by mallinfo(arena+hblkhd)
         16939 MiB available memory on the node where the printing process lives
------------------
     ethr =  5.87E-07,  avg # of iterations =  2.0

     total cpu time spent up to now is     4914.8 secs

     total energy              =   -2443.74661465 Ry
     estimated scf accuracy    <       0.00128029 Ry

     iteration # 15     ecut=    90.00 Ry     beta= 0.70
     Davidson diagonalization with overlap

---- Real-time Memory Report at c_bands before calling an iterative solver
           602 MiB given to the printing process from OS
             0 MiB allocation reported by mallinfo(arena+hblkhd)
         16920 MiB available memory on the node where the printing process lives
------------------
     ethr =  5.00E-07,  avg # of iterations =  2.0

     total cpu time spent up to now is     5145.1 secs

     total energy              =   -2443.74636658 Ry
     estimated scf accuracy    <       0.00072763 Ry

     iteration # 16     ecut=    90.00 Ry     beta= 0.70
     Davidson diagonalization with overlap

---- Real-time Memory Report at c_bands before calling an iterative solver
           602 MiB given to the printing process from OS
             0 MiB allocation reported by mallinfo(arena+hblkhd)
         16554 MiB available memory on the node where the printing process lives
------------------
     ethr =  2.84E-07,  avg # of iterations =  6.3

     total cpu time spent up to now is     5575.7 secs

     total energy              =   -2443.74686186 Ry
     estimated scf accuracy    <       0.00034112 Ry

     iteration # 17     ecut=    90.00 Ry     beta= 0.70
     Davidson diagonalization with overlap

---- Real-time Memory Report at c_bands before calling an iterative solver
           602 MiB given to the printing process from OS
             0 MiB allocation reported by mallinfo(arena+hblkhd)
         16778 MiB available memory on the node where the printing process lives
------------------
     ethr =  1.33E-07,  avg # of iterations =  2.0

     total cpu time spent up to now is     5797.3 secs

     total energy              =   -2443.74678398 Ry
     estimated scf accuracy    <       0.00028383 Ry

     iteration # 18     ecut=    90.00 Ry     beta= 0.70
     Davidson diagonalization with overlap

---- Real-time Memory Report at c_bands before calling an iterative solver
           602 MiB given to the printing process from OS
             0 MiB allocation reported by mallinfo(arena+hblkhd)
         17521 MiB available memory on the node where the printing process lives
------------------
     ethr =  1.11E-07,  avg # of iterations =  2.0

     total cpu time spent up to now is     6032.8 secs

     total energy              =   -2443.74678752 Ry
     estimated scf accuracy    <       0.00012086 Ry

     iteration # 19     ecut=    90.00 Ry     beta= 0.70
     Davidson diagonalization with overlap

---- Real-time Memory Report at c_bands before calling an iterative solver
           602 MiB given to the printing process from OS
             0 MiB allocation reported by mallinfo(arena+hblkhd)
         16586 MiB available memory on the node where the printing process lives
------------------
     ethr =  4.72E-08,  avg # of iterations =  5.2

     total cpu time spent up to now is     6306.9 secs

     total energy              =   -2443.74680821 Ry
     estimated scf accuracy    <       0.00004436 Ry

     iteration # 20     ecut=    90.00 Ry     beta= 0.70
     Davidson diagonalization with overlap

---- Real-time Memory Report at c_bands before calling an iterative solver
           602 MiB given to the printing process from OS
             0 MiB allocation reported by mallinfo(arena+hblkhd)
         16755 MiB available memory on the node where the printing process lives
------------------
     ethr =  1.73E-08,  avg # of iterations =  5.2

     total cpu time spent up to now is     6646.9 secs

     total energy              =   -2443.74682016 Ry
     estimated scf accuracy    <       0.00002158 Ry

     iteration # 21     ecut=    90.00 Ry     beta= 0.70
     Davidson diagonalization with overlap

---- Real-time Memory Report at c_bands before calling an iterative solver
           602 MiB given to the printing process from OS
             0 MiB allocation reported by mallinfo(arena+hblkhd)
         16946 MiB available memory on the node where the printing process lives
------------------
     ethr =  8.43E-09,  avg # of iterations =  3.8

     total cpu time spent up to now is     6905.2 secs

     total energy              =   -2443.74682033 Ry
     estimated scf accuracy    <       0.00000838 Ry

     iteration # 22     ecut=    90.00 Ry     beta= 0.70
     Davidson diagonalization with overlap

---- Real-time Memory Report at c_bands before calling an iterative solver
           602 MiB given to the printing process from OS
             0 MiB allocation reported by mallinfo(arena+hblkhd)
         16554 MiB available memory on the node where the printing process lives
------------------
     ethr =  3.27E-09,  avg # of iterations =  7.8

     total cpu time spent up to now is     7357.9 secs

     total energy              =   -2443.74682560 Ry
     estimated scf accuracy    <       0.00000029 Ry

     iteration # 23     ecut=    90.00 Ry     beta= 0.70
     Davidson diagonalization with overlap

---- Real-time Memory Report at c_bands before calling an iterative solver
           602 MiB given to the printing process from OS
             0 MiB allocation reported by mallinfo(arena+hblkhd)
         17075 MiB available memory on the node where the printing process lives
------------------
     c_bands:  5 eigenvalues not converged
     ethr =  1.12E-10,  avg # of iterations = 18.9

     total cpu time spent up to now is     8658.7 secs

     total energy              =   -2443.74682719 Ry
     estimated scf accuracy    <       0.00000052 Ry

     iteration # 24     ecut=    90.00 Ry     beta= 0.70
     Davidson diagonalization with overlap

---- Real-time Memory Report at c_bands before calling an iterative solver
           602 MiB given to the printing process from OS
             0 MiB allocation reported by mallinfo(arena+hblkhd)
         16717 MiB available memory on the node where the printing process lives
------------------
     ethr =  1.12E-10,  avg # of iterations =  4.3

     total cpu time spent up to now is     9008.2 secs

     total energy              =   -2443.74682706 Ry
     estimated scf accuracy    <       0.00000058 Ry

     iteration # 25     ecut=    90.00 Ry     beta= 0.70
     Davidson diagonalization with overlap

---- Real-time Memory Report at c_bands before calling an iterative solver
           602 MiB given to the printing process from OS
             0 MiB allocation reported by mallinfo(arena+hblkhd)
         16855 MiB available memory on the node where the printing process lives
------------------
     ethr =  1.12E-10,  avg # of iterations =  4.6

     total cpu time spent up to now is     9282.2 secs

     total energy              =   -2443.74682707 Ry
     estimated scf accuracy    <       0.00000018 Ry

     iteration # 26     ecut=    90.00 Ry     beta= 0.70
     Davidson diagonalization with overlap

---- Real-time Memory Report at c_bands before calling an iterative solver
           602 MiB given to the printing process from OS
             0 MiB allocation reported by mallinfo(arena+hblkhd)
         16855 MiB available memory on the node where the printing process lives
------------------
     ethr =  7.01E-11,  avg # of iterations =  4.6

     total cpu time spent up to now is     9571.5 secs

     total energy              =   -2443.74682712 Ry
     estimated scf accuracy    <       0.00000003 Ry

     iteration # 27     ecut=    90.00 Ry     beta= 0.70
     Davidson diagonalization with overlap

---- Real-time Memory Report at c_bands before calling an iterative solver
           602 MiB given to the printing process from OS
             0 MiB allocation reported by mallinfo(arena+hblkhd)
         16910 MiB available memory on the node where the printing process lives
------------------
     ethr =  1.25E-11,  avg # of iterations =  7.4

     total cpu time spent up to now is     9966.5 secs

     total energy              =   -2443.74682712 Ry
     estimated scf accuracy    <       0.00000003 Ry

     iteration # 28     ecut=    90.00 Ry     beta= 0.70
     Davidson diagonalization with overlap

---- Real-time Memory Report at c_bands before calling an iterative solver
           602 MiB given to the printing process from OS
             0 MiB allocation reported by mallinfo(arena+hblkhd)
         17083 MiB available memory on the node where the printing process lives
------------------
     ethr =  1.11E-11,  avg # of iterations =  5.2

     total cpu time spent up to now is    10304.9 secs

     End of self-consistent calculation

          k = 0.0000 0.0000 0.0000 ( 47593 PWs)   bands (ev):

   -67.6899 -67.6874 -67.5754 -67.2065 -67.1142 -67.1072 -34.4794 -34.4606
   -34.4563 -34.4496 -34.4409 -34.4386 -34.3507 -34.3481 -34.3222 -33.9771
   -33.9712 -33.9690 -33.9002 -33.8995 -33.8855 -33.8673 -33.8595 -33.8404
   -23.2046 -23.1857 -15.2392 -15.1865 -14.2944 -14.2498 -13.7834 -13.7599
   -13.5402 -13.4326 -13.3936 -13.2172 -13.0210 -12.9772 -12.9713 -12.9613
   -12.8819 -12.7734 -12.6088 -12.5337 -12.4302 -12.4024 -12.3343 -12.1978
   -11.1742 -10.9296  -6.7753  -6.7492  -6.6971  -6.6897  -6.6620  -6.6578
    -4.4415  -4.3832  -2.5694  -2.4737  -1.9374  -1.4530  -1.2996  -1.2937
    -1.2460  -1.1612  -0.7799  -0.7051  -0.5884  -0.4986  -0.4980  -0.2908
    -0.1006  -0.0050   0.1198   0.3615   0.4416   0.4684   0.5674   0.7449
     0.7758   1.0181   1.2003   1.2161   1.2820   1.4048   1.4281   1.5291
     1.7494   1.7525   1.8687   1.9545   1.9577   2.1122   2.1379   2.1995
     2.3140   2.3637   2.5038   2.5165   2.5937   2.6326   2.7387   2.7790
     2.7949   2.8879   2.9076   2.9931   3.1156   3.1789   3.2174   3.2913
     3.3367   3.3849   3.4683   3.4834   3.5405   3.6519   3.7176   3.7243
     3.7847   3.8279   3.8319   4.0166   4.0462   4.2160   4.3814   4.4990

     occupation numbers 
     1.0000   1.0000   1.0000   1.0000   1.0000   1.0000   1.0000   1.0000
     1.0000   1.0000   1.0000   1.0000   1.0000   1.0000   1.0000   1.0000
     1.0000   1.0000   1.0000   1.0000   1.0000   1.0000   1.0000   1.0000
     1.0000   1.0000   1.0000   1.0000   1.0000   1.0000   1.0000   1.0000
     1.0000   1.0000   1.0000   1.0000   1.0000   1.0000   1.0000   1.0000
     1.0000   1.0000   1.0000   1.0000   1.0000   1.0000   1.0000   1.0000
     1.0000   1.0000   1.0000   1.0000   1.0000   1.0000   1.0000   1.0000
     1.0000   1.0000   1.0000   1.0000   1.0000   1.0000   1.0000   1.0000
     1.0000   1.0000   1.0000   1.0000   1.0000   1.0000   1.0000   1.0000
     1.0000   1.0000   1.0000   1.0000   1.0000   1.0000   1.0000   1.0000
     1.0000   1.0000   1.0000   1.0000   1.0000   1.0000   1.0000   1.0000
     1.0000   1.0000   1.0000   1.0000   1.0000   1.0000   1.0000   1.0000
     1.0000   1.0000   1.0000   1.0000   1.0000   1.0000   1.0000   1.0000
     1.0000   1.0000   1.0000   1.0000   1.0000   1.0000   1.0000   1.0000
     1.0000   1.0000   1.0000   1.0000   1.0000   1.0000   1.0000   1.0000
     1.0000   1.0000   1.0000   1.0000   1.0000   1.0000   1.0000   1.0000

          k = 0.0000 0.0000 0.1758 ( 47610 PWs)   bands (ev):

   -67.6899 -67.6874 -67.5754 -67.2065 -67.1142 -67.1072 -34.4794 -34.4606
   -34.4563 -34.4496 -34.4409 -34.4386 -34.3507 -34.3481 -34.3222 -33.9771
   -33.9712 -33.9690 -33.9002 -33.8995 -33.8855 -33.8673 -33.8595 -33.8404
   -23.2046 -23.1857 -15.2265 -15.2000 -14.2839 -14.2608 -13.7839 -13.7595
   -13.5281 -13.4529 -13.3863 -13.2131 -13.0223 -12.9820 -12.9704 -12.9602
   -12.8759 -12.7775 -12.6020 -12.5404 -12.4329 -12.3990 -12.3281 -12.2043
   -11.1738 -10.9303  -6.7753  -6.7492  -6.6971  -6.6896  -6.6618  -6.6578
    -4.4374  -4.3877  -2.5473  -2.4996  -1.9046  -1.4384  -1.3223  -1.2680
    -1.2380  -1.1850  -0.7543  -0.7178  -0.6198  -0.5073  -0.4743  -0.3902
    -0.0712   0.0235   0.0674   0.3120   0.4328   0.4370   0.5929   0.7735
     0.8152   1.0972   1.1282   1.2414   1.3096   1.3557   1.4631   1.5908
     1.7622   1.7791   1.9424   1.9537   2.0014   2.1165   2.1493   2.1938
     2.2741   2.3254   2.4851   2.5077   2.5657   2.6116   2.6867   2.7255
     2.7550   2.9548   2.9895   2.9983   3.0226   3.1909   3.2337   3.2830
     3.3143   3.3318   3.4606   3.5661   3.6052   3.6399   3.7036   3.7314
     3.7533   3.7870   3.8094   4.0403   4.0546   4.2189   4.3799   4.5020

     occupation numbers 
     1.0000   1.0000   1.0000   1.0000   1.0000   1.0000   1.0000   1.0000
     1.0000   1.0000   1.0000   1.0000   1.0000   1.0000   1.0000   1.0000
     1.0000   1.0000   1.0000   1.0000   1.0000   1.0000   1.0000   1.0000
     1.0000   1.0000   1.0000   1.0000   1.0000   1.0000   1.0000   1.0000
     1.0000   1.0000   1.0000   1.0000   1.0000   1.0000   1.0000   1.0000
     1.0000   1.0000   1.0000   1.0000   1.0000   1.0000   1.0000   1.0000
     1.0000   1.0000   1.0000   1.0000   1.0000   1.0000   1.0000   1.0000
     1.0000   1.0000   1.0000   1.0000   1.0000   1.0000   1.0000   1.0000
     1.0000   1.0000   1.0000   1.0000   1.0000   1.0000   1.0000   1.0000
     1.0000   1.0000   1.0000   1.0000   1.0000   1.0000   1.0000   1.0000
     1.0000   1.0000   1.0000   1.0000   1.0000   1.0000   1.0000   1.0000
     1.0000   1.0000   1.0000   1.0000   1.0000   1.0000   1.0000   1.0000
     1.0000   1.0000   1.0000   1.0000   1.0000   1.0000   1.0000   1.0000
     1.0000   1.0000   1.0000   1.0000   1.0000   1.0000   1.0000   1.0000
     1.0000   1.0000   1.0000   1.0000   1.0000   1.0000   1.0000   1.0000
     1.0000   1.0000   1.0000   1.0000   1.0000   1.0000   1.0000   1.0000

          k = 0.0000 0.1921 0.0000 ( 47636 PWs)   bands (ev):

   -67.6899 -67.6874 -67.5754 -67.2065 -67.1142 -67.1072 -34.4794 -34.4606
   -34.4563 -34.4496 -34.4409 -34.4386 -34.3507 -34.3481 -34.3222 -33.9771
   -33.9712 -33.9690 -33.9002 -33.8995 -33.8855 -33.8673 -33.8595 -33.8404
   -23.2046 -23.1857 -15.2343 -15.1816 -14.3277 -14.2799 -13.7835 -13.7600
   -13.4534 -13.3765 -13.3278 -13.2372 -13.0800 -13.0439 -13.0129 -12.9523
   -12.8882 -12.7703 -12.5991 -12.5298 -12.4299 -12.4021 -12.3288 -12.1945
   -11.1729 -10.9290  -6.7715  -6.7533  -6.6966  -6.6875  -6.6637  -6.6586
    -4.4018  -4.3427  -2.7167  -2.6132  -1.8876  -1.4947  -1.2395  -1.2364
    -1.1282  -1.0815  -0.8585  -0.7740  -0.6040  -0.4320  -0.4116  -0.2730
    -0.1941   0.0348   0.1035   0.3287   0.3984   0.4478   0.5756   0.7514
     0.7821   1.0284   1.0936   1.2016   1.2802   1.4147   1.4514   1.5818
     1.8029   1.8034   1.8339   1.9449   2.0277   2.1094   2.2096   2.2723
     2.2837   2.3619   2.4281   2.5436   2.5817   2.6769   2.7387   2.7725
     2.8300   2.8972   2.9459   3.0095   3.1409   3.1841   3.2614   3.2741
     3.3473   3.3637   3.3730   3.4766   3.5534   3.5829   3.6977   3.7137
     3.7969   3.8042   3.8317   3.9978   4.0553   4.1845   4.1994   4.4963

     occupation numbers 
     1.0000   1.0000   1.0000   1.0000   1.0000   1.0000   1.0000   1.0000
     1.0000   1.0000   1.0000   1.0000   1.0000   1.0000   1.0000   1.0000
     1.0000   1.0000   1.0000   1.0000   1.0000   1.0000   1.0000   1.0000
     1.0000   1.0000   1.0000   1.0000   1.0000   1.0000   1.0000   1.0000
     1.0000   1.0000   1.0000   1.0000   1.0000   1.0000   1.0000   1.0000
     1.0000   1.0000   1.0000   1.0000   1.0000   1.0000   1.0000   1.0000
     1.0000   1.0000   1.0000   1.0000   1.0000   1.0000   1.0000   1.0000
     1.0000   1.0000   1.0000   1.0000   1.0000   1.0000   1.0000   1.0000
     1.0000   1.0000   1.0000   1.0000   1.0000   1.0000   1.0000   1.0000
     1.0000   1.0000   1.0000   1.0000   1.0000   1.0000   1.0000   1.0000
     1.0000   1.0000   1.0000   1.0000   1.0000   1.0000   1.0000   1.0000
     1.0000   1.0000   1.0000   1.0000   1.0000   1.0000   1.0000   1.0000
     1.0000   1.0000   1.0000   1.0000   1.0000   1.0000   1.0000   1.0000
     1.0000   1.0000   1.0000   1.0000   1.0000   1.0000   1.0000   1.0000
     1.0000   1.0000   1.0000   1.0000   1.0000   1.0000   1.0000   1.0000
     1.0000   1.0000   1.0000   1.0000   1.0000   1.0000   1.0000   1.0000

          k = 0.0000 0.1921 0.1758 ( 47607 PWs)   bands (ev):

   -67.6899 -67.6874 -67.5754 -67.2065 -67.1142 -67.1072 -34.4794 -34.4606
   -34.4563 -34.4496 -34.4409 -34.4386 -34.3507 -34.3481 -34.3222 -33.9771
   -33.9712 -33.9690 -33.9002 -33.8995 -33.8855 -33.8673 -33.8595 -33.8404
   -23.2046 -23.1857 -15.2215 -15.1951 -14.3161 -14.2923 -13.7840 -13.7595
   -13.4462 -13.3696 -13.3460 -13.2277 -13.0950 -13.0283 -13.0143 -12.9549
   -12.8850 -12.7746 -12.5927 -12.5363 -12.4326 -12.3988 -12.3223 -12.2009
   -11.1726 -10.9297  -6.7715  -6.7533  -6.6966  -6.6874  -6.6636  -6.6586
    -4.3952  -4.3498  -2.6934  -2.6389  -1.8593  -1.4828  -1.2389  -1.2340
    -1.1277  -1.0871  -0.8389  -0.7948  -0.6199  -0.4587  -0.4006  -0.3483
    -0.1479   0.0288   0.0479   0.3144   0.3978   0.4054   0.6142   0.7501
     0.8407   0.9978   1.0747   1.2591   1.3292   1.4145   1.5474   1.6095
     1.7505   1.8315   1.8869   1.9289   2.0054   2.1418   2.2104   2.2507
     2.3055   2.3431   2.3998   2.5057   2.5843   2.6419   2.7024   2.7503
     2.8201   2.9285   2.9490   3.0632   3.0920   3.1320   3.2447   3.2850
     3.3038   3.3520   3.4290   3.5040   3.5418   3.6369   3.6793   3.7173
     3.7593   3.7954   3.8187   3.9913   4.0645   4.1979   4.2182   4.4997

     occupation numbers 
     1.0000   1.0000   1.0000   1.0000   1.0000   1.0000   1.0000   1.0000
     1.0000   1.0000   1.0000   1.0000   1.0000   1.0000   1.0000   1.0000
     1.0000   1.0000   1.0000   1.0000   1.0000   1.0000   1.0000   1.0000
     1.0000   1.0000   1.0000   1.0000   1.0000   1.0000   1.0000   1.0000
     1.0000   1.0000   1.0000   1.0000   1.0000   1.0000   1.0000   1.0000
     1.0000   1.0000   1.0000   1.0000   1.0000   1.0000   1.0000   1.0000
     1.0000   1.0000   1.0000   1.0000   1.0000   1.0000   1.0000   1.0000
     1.0000   1.0000   1.0000   1.0000   1.0000   1.0000   1.0000   1.0000
     1.0000   1.0000   1.0000   1.0000   1.0000   1.0000   1.0000   1.0000
     1.0000   1.0000   1.0000   1.0000   1.0000   1.0000   1.0000   1.0000
     1.0000   1.0000   1.0000   1.0000   1.0000   1.0000   1.0000   1.0000
     1.0000   1.0000   1.0000   1.0000   1.0000   1.0000   1.0000   1.0000
     1.0000   1.0000   1.0000   1.0000   1.0000   1.0000   1.0000   1.0000
     1.0000   1.0000   1.0000   1.0000   1.0000   1.0000   1.0000   1.0000
     1.0000   1.0000   1.0000   1.0000   1.0000   1.0000   1.0000   1.0000
     1.0000   1.0000   1.0000   1.0000   1.0000   1.0000   1.0000   1.0000

          k = 0.1667 0.0000 0.0301 ( 47599 PWs)   bands (ev):

   -67.6898 -67.6875 -67.5754 -67.2065 -67.1142 -67.1073 -34.4787 -34.4628
   -34.4550 -34.4494 -34.4409 -34.4387 -34.3506 -34.3481 -34.3223 -33.9770
   -33.9714 -33.9690 -33.9026 -33.8963 -33.8861 -33.8667 -33.8598 -33.8409
   -23.2044 -23.1856 -15.1808 -15.1292 -14.3137 -14.2717 -13.8946 -13.8643
   -13.4729 -13.3710 -13.3393 -13.2022 -13.0304 -13.0082 -12.9652 -12.9514
   -12.8743 -12.7807 -12.6259 -12.5515 -12.4906 -12.4412 -12.3147 -12.1867
   -11.1709 -10.9344  -6.7750  -6.7534  -6.6957  -6.6879  -6.6622  -6.6546
    -4.2843  -4.2227  -2.5372  -2.4406  -1.9421  -1.5873  -1.5379  -1.4178
    -1.0346  -0.9595  -0.7962  -0.7568  -0.5800  -0.4769  -0.4506  -0.2858
    -0.0964   0.0047   0.1010   0.3458   0.3809   0.5020   0.5156   0.6501
     0.9359   1.0560   1.1530   1.2206   1.2430   1.3447   1.4363   1.5053
     1.6355   1.7796   1.8100   1.9118   1.9557   2.1433   2.1768   2.2559
     2.3263   2.3825   2.4931   2.5521   2.5782   2.5971   2.7432   2.7494
     2.8249   2.8624   2.9502   3.0299   3.0785   3.1111   3.2176   3.2403
     3.3257   3.3869   3.4482   3.5261   3.5528   3.6350   3.6738   3.7248
     3.7434   3.7876   3.8362   3.9523   4.0150   4.2223   4.3713   4.4101

     occupation numbers 
     1.0000   1.0000   1.0000   1.0000   1.0000   1.0000   1.0000   1.0000
     1.0000   1.0000   1.0000   1.0000   1.0000   1.0000   1.0000   1.0000
     1.0000   1.0000   1.0000   1.0000   1.0000   1.0000   1.0000   1.0000
     1.0000   1.0000   1.0000   1.0000   1.0000   1.0000   1.0000   1.0000
     1.0000   1.0000   1.0000   1.0000   1.0000   1.0000   1.0000   1.0000
     1.0000   1.0000   1.0000   1.0000   1.0000   1.0000   1.0000   1.0000
     1.0000   1.0000   1.0000   1.0000   1.0000   1.0000   1.0000   1.0000
     1.0000   1.0000   1.0000   1.0000   1.0000   1.0000   1.0000   1.0000
     1.0000   1.0000   1.0000   1.0000   1.0000   1.0000   1.0000   1.0000
     1.0000   1.0000   1.0000   1.0000   1.0000   1.0000   1.0000   1.0000
     1.0000   1.0000   1.0000   1.0000   1.0000   1.0000   1.0000   1.0000
     1.0000   1.0000   1.0000   1.0000   1.0000   1.0000   1.0000   1.0000
     1.0000   1.0000   1.0000   1.0000   1.0000   1.0000   1.0000   1.0000
     1.0000   1.0000   1.0000   1.0000   1.0000   1.0000   1.0000   1.0000
     1.0000   1.0000   1.0000   1.0000   1.0000   1.0000   1.0000   1.0000
     1.0000   1.0000   1.0000   1.0000   1.0000   1.0000   1.0000   1.0000

          k = 0.1667 0.0000 0.2059 ( 47626 PWs)   bands (ev):

   -67.6898 -67.6875 -67.5754 -67.2065 -67.1142 -67.1073 -34.4787 -34.4628
   -34.4550 -34.4494 -34.4409 -34.4387 -34.3506 -34.3481 -34.3223 -33.9770
   -33.9714 -33.9690 -33.9026 -33.8963 -33.8861 -33.8667 -33.8598 -33.8409
   -23.2044 -23.1856 -15.1648 -15.1461 -14.3048 -14.2812 -13.8913 -13.8677
   -13.4613 -13.3878 -13.3357 -13.1972 -13.0304 -13.0041 -12.9813 -12.9432
   -12.8689 -12.7849 -12.6197 -12.5602 -12.4821 -12.4478 -12.3056 -12.1948
   -11.1704 -10.9352  -6.7751  -6.7534  -6.6957  -6.6879  -6.6620  -6.6546
    -4.2855  -4.2217  -2.5175  -2.4648  -1.9068  -1.6273  -1.5037  -1.4050
    -1.0326  -0.9635  -0.8011  -0.7495  -0.5843  -0.4747  -0.4448  -0.3988
    -0.0536   0.0398   0.0513   0.2786   0.3679   0.4839   0.5004   0.7107
     0.9961   1.0738   1.1254   1.2304   1.2600   1.3455   1.4628   1.5264
     1.6927   1.7630   1.8262   1.9124   2.0529   2.1580   2.1891   2.2504
     2.2945   2.3821   2.4443   2.4778   2.5558   2.6023   2.7077   2.7214
     2.7896   2.8894   2.9948   3.0488   3.0743   3.1158   3.1577   3.2139
     3.3319   3.3704   3.4458   3.5765   3.5975   3.6433   3.6726   3.7046
     3.7431   3.7544   3.7946   3.9641   4.0478   4.2117   4.3720   4.4293

     occupation numbers 
     1.0000   1.0000   1.0000   1.0000   1.0000   1.0000   1.0000   1.0000
     1.0000   1.0000   1.0000   1.0000   1.0000   1.0000   1.0000   1.0000
     1.0000   1.0000   1.0000   1.0000   1.0000   1.0000   1.0000   1.0000
     1.0000   1.0000   1.0000   1.0000   1.0000   1.0000   1.0000   1.0000
     1.0000   1.0000   1.0000   1.0000   1.0000   1.0000   1.0000   1.0000
     1.0000   1.0000   1.0000   1.0000   1.0000   1.0000   1.0000   1.0000
     1.0000   1.0000   1.0000   1.0000   1.0000   1.0000   1.0000   1.0000
     1.0000   1.0000   1.0000   1.0000   1.0000   1.0000   1.0000   1.0000
     1.0000   1.0000   1.0000   1.0000   1.0000   1.0000   1.0000   1.0000
     1.0000   1.0000   1.0000   1.0000   1.0000   1.0000   1.0000   1.0000
     1.0000   1.0000   1.0000   1.0000   1.0000   1.0000   1.0000   1.0000
     1.0000   1.0000   1.0000   1.0000   1.0000   1.0000   1.0000   1.0000
     1.0000   1.0000   1.0000   1.0000   1.0000   1.0000   1.0000   1.0000
     1.0000   1.0000   1.0000   1.0000   1.0000   1.0000   1.0000   1.0000
     1.0000   1.0000   1.0000   1.0000   1.0000   1.0000   1.0000   1.0000
     1.0000   1.0000   1.0000   1.0000   1.0000   1.0000   1.0000   1.0000

          k = 0.1667 0.0000-0.1457 ( 47637 PWs)   bands (ev):

   -67.6898 -67.6875 -67.5754 -67.2065 -67.1142 -67.1073 -34.4787 -34.4628
   -34.4550 -34.4494 -34.4409 -34.4387 -34.3506 -34.3481 -34.3223 -33.9770
   -33.9714 -33.9690 -33.9026 -33.8963 -33.8861 -33.8667 -33.8598 -33.8409
   -23.2044 -23.1856 -15.1718 -15.1389 -14.3056 -14.2803 -13.8902 -13.8688
   -13.4661 -13.3733 -13.3461 -13.1982 -13.0305 -13.0023 -12.9807 -12.9426
   -12.8714 -12.7852 -12.6162 -12.5627 -12.4723 -12.4580 -12.3059 -12.1936
   -11.1702 -10.9352  -6.7752  -6.7534  -6.6957  -6.6879  -6.6620  -6.6546
    -4.2687  -4.2390  -2.5139  -2.4667  -1.9207  -1.6208  -1.5072  -1.4084
    -1.0174  -0.9831  -0.7712  -0.7459  -0.6023  -0.4750  -0.4604  -0.3685
    -0.0919   0.0407   0.0654   0.2926   0.3975   0.4824   0.5531   0.6922
     0.9449   1.0619   1.1020   1.2252   1.2870   1.3762   1.4630   1.4930
     1.6884   1.7473   1.8626   1.8741   2.0036   2.1228   2.1984   2.2296
     2.3102   2.3850   2.4594   2.5289   2.5436   2.6276   2.6853   2.7729
     2.8018   2.8796   2.9913   3.0439   3.0944   3.1125   3.1693   3.2836
     3.3438   3.3565   3.4657   3.5146   3.5904   3.5970   3.6345   3.7154
     3.7436   3.7632   3.8050   3.9485   4.0726   4.2109   4.3760   4.4214

     occupation numbers 
     1.0000   1.0000   1.0000   1.0000   1.0000   1.0000   1.0000   1.0000
     1.0000   1.0000   1.0000   1.0000   1.0000   1.0000   1.0000   1.0000
     1.0000   1.0000   1.0000   1.0000   1.0000   1.0000   1.0000   1.0000
     1.0000   1.0000   1.0000   1.0000   1.0000   1.0000   1.0000   1.0000
     1.0000   1.0000   1.0000   1.0000   1.0000   1.0000   1.0000   1.0000
     1.0000   1.0000   1.0000   1.0000   1.0000   1.0000   1.0000   1.0000
     1.0000   1.0000   1.0000   1.0000   1.0000   1.0000   1.0000   1.0000
     1.0000   1.0000   1.0000   1.0000   1.0000   1.0000   1.0000   1.0000
     1.0000   1.0000   1.0000   1.0000   1.0000   1.0000   1.0000   1.0000
     1.0000   1.0000   1.0000   1.0000   1.0000   1.0000   1.0000   1.0000
     1.0000   1.0000   1.0000   1.0000   1.0000   1.0000   1.0000   1.0000
     1.0000   1.0000   1.0000   1.0000   1.0000   1.0000   1.0000   1.0000
     1.0000   1.0000   1.0000   1.0000   1.0000   1.0000   1.0000   1.0000
     1.0000   1.0000   1.0000   1.0000   1.0000   1.0000   1.0000   1.0000
     1.0000   1.0000   1.0000   1.0000   1.0000   1.0000   1.0000   1.0000
     1.0000   1.0000   1.0000   1.0000   1.0000   1.0000   1.0000   1.0000

          k = 0.1667 0.1921 0.0301 ( 47626 PWs)   bands (ev):

   -67.6898 -67.6875 -67.5754 -67.2065 -67.1142 -67.1073 -34.4787 -34.4628
   -34.4550 -34.4494 -34.4409 -34.4387 -34.3506 -34.3481 -34.3223 -33.9770
   -33.9714 -33.9690 -33.9026 -33.8963 -33.8861 -33.8667 -33.8599 -33.8409
   -23.2044 -23.1856 -15.1761 -15.1245 -14.3429 -14.2977 -13.8827 -13.8554
   -13.4169 -13.3483 -13.2759 -13.2032 -13.0644 -13.0446 -13.0239 -12.9526
   -12.8895 -12.7775 -12.6195 -12.5398 -12.4862 -12.4448 -12.3117 -12.1849
   -11.1698 -10.9340  -6.7722  -6.7568  -6.6955  -6.6862  -6.6633  -6.6550
    -4.2477  -4.1855  -2.6974  -2.5947  -1.8669  -1.4707  -1.4472  -1.4124
    -1.0253  -0.9636  -0.8879  -0.7230  -0.5843  -0.4094  -0.3877  -0.2542
    -0.1437   0.0021   0.0747   0.3054   0.3641   0.4721   0.5325   0.6221
     0.9525   0.9890   1.1488   1.2003   1.2575   1.3391   1.4165   1.5414
     1.6579   1.7613   1.7844   1.9464   2.0318   2.1557   2.2003   2.2553
     2.3318   2.3823   2.4425   2.5889   2.5935   2.7055   2.7251   2.7954
     2.8421   2.8983   2.9895   3.0350   3.0860   3.1447   3.2068   3.2527
     3.3075   3.3455   3.4141   3.4946   3.5532   3.5685   3.6354   3.6985
     3.7238   3.7532   3.8553   3.9655   3.9992   4.1796   4.2559   4.4426

     occupation numbers 
     1.0000   1.0000   1.0000   1.0000   1.0000   1.0000   1.0000   1.0000
     1.0000   1.0000   1.0000   1.0000   1.0000   1.0000   1.0000   1.0000
     1.0000   1.0000   1.0000   1.0000   1.0000   1.0000   1.0000   1.0000
     1.0000   1.0000   1.0000   1.0000   1.0000   1.0000   1.0000   1.0000
     1.0000   1.0000   1.0000   1.0000   1.0000   1.0000   1.0000   1.0000
     1.0000   1.0000   1.0000   1.0000   1.0000   1.0000   1.0000   1.0000
     1.0000   1.0000   1.0000   1.0000   1.0000   1.0000   1.0000   1.0000
     1.0000   1.0000   1.0000   1.0000   1.0000   1.0000   1.0000   1.0000
     1.0000   1.0000   1.0000   1.0000   1.0000   1.0000   1.0000   1.0000
     1.0000   1.0000   1.0000   1.0000   1.0000   1.0000   1.0000   1.0000
     1.0000   1.0000   1.0000   1.0000   1.0000   1.0000   1.0000   1.0000
     1.0000   1.0000   1.0000   1.0000   1.0000   1.0000   1.0000   1.0000
     1.0000   1.0000   1.0000   1.0000   1.0000   1.0000   1.0000   1.0000
     1.0000   1.0000   1.0000   1.0000   1.0000   1.0000   1.0000   1.0000
     1.0000   1.0000   1.0000   1.0000   1.0000   1.0000   1.0000   1.0000
     1.0000   1.0000   1.0000   1.0000   1.0000   1.0000   1.0000   1.0000

          k = 0.1667 0.1921 0.2059 ( 47621 PWs)   bands (ev):

   -67.6898 -67.6875 -67.5754 -67.2065 -67.1142 -67.1073 -34.4787 -34.4628
   -34.4550 -34.4494 -34.4409 -34.4387 -34.3506 -34.3481 -34.3223 -33.9770
   -33.9714 -33.9690 -33.9026 -33.8963 -33.8861 -33.8667 -33.8599 -33.8409
   -23.2044 -23.1856 -15.1601 -15.1414 -14.3314 -14.3099 -13.8812 -13.8570
   -13.4101 -13.3414 -13.2959 -13.1910 -13.0800 -13.0302 -13.0260 -12.9519
   -12.8871 -12.7820 -12.6141 -12.5478 -12.4808 -12.4484 -12.3026 -12.1927
   -11.1694 -10.9348  -6.7722  -6.7568  -6.6955  -6.6862  -6.6632  -6.6550
    -4.2460  -4.1874  -2.6731  -2.6217  -1.8397  -1.4728  -1.4555  -1.3903
    -1.0308  -0.9581  -0.8884  -0.7179  -0.5886  -0.4703  -0.3657  -0.3127
    -0.1016  -0.0130   0.0562   0.2733   0.3406   0.4548   0.5152   0.6736
     0.9578   0.9958   1.1254   1.2701   1.2826   1.3587   1.4647   1.6031
     1.6784   1.7275   1.7888   1.9273   2.0606   2.1490   2.2307   2.2773
     2.3396   2.3763   2.4024   2.5065   2.5931   2.6762   2.7153   2.7556
     2.8439   2.9094   3.0107   3.0316   3.0922   3.1217   3.1796   3.2378
     3.2791   3.3646   3.4520   3.4858   3.5397   3.6038   3.6309   3.6826
     3.7094   3.7827   3.8184   3.9759   4.0187   4.1802   4.2654   4.4548

     occupation numbers 
     1.0000   1.0000   1.0000   1.0000   1.0000   1.0000   1.0000   1.0000
     1.0000   1.0000   1.0000   1.0000   1.0000   1.0000   1.0000   1.0000
     1.0000   1.0000   1.0000   1.0000   1.0000   1.0000   1.0000   1.0000
     1.0000   1.0000   1.0000   1.0000   1.0000   1.0000   1.0000   1.0000
     1.0000   1.0000   1.0000   1.0000   1.0000   1.0000   1.0000   1.0000
     1.0000   1.0000   1.0000   1.0000   1.0000   1.0000   1.0000   1.0000
     1.0000   1.0000   1.0000   1.0000   1.0000   1.0000   1.0000   1.0000
     1.0000   1.0000   1.0000   1.0000   1.0000   1.0000   1.0000   1.0000
     1.0000   1.0000   1.0000   1.0000   1.0000   1.0000   1.0000   1.0000
     1.0000   1.0000   1.0000   1.0000   1.0000   1.0000   1.0000   1.0000
     1.0000   1.0000   1.0000   1.0000   1.0000   1.0000   1.0000   1.0000
     1.0000   1.0000   1.0000   1.0000   1.0000   1.0000   1.0000   1.0000
     1.0000   1.0000   1.0000   1.0000   1.0000   1.0000   1.0000   1.0000
     1.0000   1.0000   1.0000   1.0000   1.0000   1.0000   1.0000   1.0000
     1.0000   1.0000   1.0000   1.0000   1.0000   1.0000   1.0000   1.0000
     1.0000   1.0000   1.0000   1.0000   1.0000   1.0000   1.0000   1.0000

          k = 0.1667 0.1921-0.1457 ( 47598 PWs)   bands (ev):

   -67.6898 -67.6875 -67.5754 -67.2065 -67.1142 -67.1073 -34.4787 -34.4628
   -34.4550 -34.4494 -34.4409 -34.4387 -34.3506 -34.3481 -34.3223 -33.9770
   -33.9714 -33.9690 -33.9026 -33.8963 -33.8861 -33.8667 -33.8599 -33.8409
   -23.2044 -23.1856 -15.1671 -15.1342 -14.3338 -14.3074 -13.8787 -13.8595
   -13.4131 -13.3408 -13.2908 -13.1959 -13.0765 -13.0350 -13.0231 -12.9539
   -12.8864 -12.7818 -12.6101 -12.5499 -12.4728 -12.4576 -12.3029 -12.1918
   -11.1692 -10.9348  -6.7723  -6.7569  -6.6955  -6.6861  -6.6632  -6.6550
    -4.2303  -4.2035  -2.6734  -2.6209  -1.8498  -1.4779  -1.4550  -1.3891
    -1.0082  -0.9844  -0.8554  -0.7300  -0.6133  -0.4320  -0.3733  -0.3078
    -0.1327  -0.0011   0.0410   0.3043   0.3635   0.4481   0.5696   0.6600
     0.9391   0.9641   1.1125   1.2386   1.2880   1.3827   1.4613   1.5676
     1.6868   1.7280   1.7859   1.9487   2.0425   2.1112   2.2186   2.2707
     2.3177   2.3827   2.4158   2.5343   2.6395   2.6646   2.6851   2.7836
     2.8670   2.9282   2.9930   3.0582   3.0845   3.1181   3.1979   3.2697
     3.3091   3.3547   3.4327   3.4906   3.5358   3.5956   3.6246   3.6683
     3.7180   3.7584   3.7882   3.9735   4.0416   4.1728   4.2644   4.4482

     occupation numbers 
     1.0000   1.0000   1.0000   1.0000   1.0000   1.0000   1.0000   1.0000
     1.0000   1.0000   1.0000   1.0000   1.0000   1.0000   1.0000   1.0000
     1.0000   1.0000   1.0000   1.0000   1.0000   1.0000   1.0000   1.0000
     1.0000   1.0000   1.0000   1.0000   1.0000   1.0000   1.0000   1.0000
     1.0000   1.0000   1.0000   1.0000   1.0000   1.0000   1.0000   1.0000
     1.0000   1.0000   1.0000   1.0000   1.0000   1.0000   1.0000   1.0000
     1.0000   1.0000   1.0000   1.0000   1.0000   1.0000   1.0000   1.0000
     1.0000   1.0000   1.0000   1.0000   1.0000   1.0000   1.0000   1.0000
     1.0000   1.0000   1.0000   1.0000   1.0000   1.0000   1.0000   1.0000
     1.0000   1.0000   1.0000   1.0000   1.0000   1.0000   1.0000   1.0000
     1.0000   1.0000   1.0000   1.0000   1.0000   1.0000   1.0000   1.0000
     1.0000   1.0000   1.0000   1.0000   1.0000   1.0000   1.0000   1.0000
     1.0000   1.0000   1.0000   1.0000   1.0000   1.0000   1.0000   1.0000
     1.0000   1.0000   1.0000   1.0000   1.0000   1.0000   1.0000   1.0000
     1.0000   1.0000   1.0000   1.0000   1.0000   1.0000   1.0000   1.0000
     1.0000   1.0000   1.0000   1.0000   1.0000   1.0000   1.0000   1.0000

          k = 0.3333 0.0000 0.0601 ( 47621 PWs)   bands (ev):

   -67.6896 -67.6877 -67.5754 -67.2065 -67.1141 -67.1074 -34.4769 -34.4662
   -34.4535 -34.4488 -34.4409 -34.4391 -34.3505 -34.3483 -34.3223 -33.9766
   -33.9718 -33.9689 -33.9038 -33.8932 -33.8875 -33.8652 -33.8610 -33.8418
   -23.2041 -23.1853 -15.0203 -14.9723 -14.4379 -14.4005 -14.0123 -13.9771
   -13.3711 -13.2739 -13.2100 -13.1767 -13.0652 -13.0551 -12.9840 -12.9537
   -12.8801 -12.7874 -12.6834 -12.6230 -12.5631 -12.4792 -12.2946 -12.1779
   -11.1650 -10.9445  -6.7748  -6.7621  -6.6926  -6.6846  -6.6626  -6.6478
    -3.8739  -3.8017  -2.6760  -2.5661  -1.9490  -1.8040  -1.5248  -1.3626
    -0.9878  -0.8710  -0.8456  -0.8150  -0.5023  -0.4289  -0.3406  -0.2540
    -0.1934   0.0148   0.1238   0.3051   0.3651   0.4938   0.5267   0.5965
     0.8930   0.9988   1.1182   1.1764   1.2886   1.3311   1.4503   1.4870
     1.5177   1.5703   1.6698   1.8707   1.9601   2.1857   2.2163   2.2719
     2.3241   2.4263   2.5405   2.5724   2.6341   2.6564   2.7251   2.7959
     2.8451   2.8682   2.9828   3.0450   3.0535   3.1012   3.1051   3.1519
     3.3335   3.3660   3.4397   3.4692   3.5057   3.5597   3.6197   3.6454
     3.6783   3.7315   3.8874   3.9114   3.9579   4.2366   4.3165   4.3450

     occupation numbers 
     1.0000   1.0000   1.0000   1.0000   1.0000   1.0000   1.0000   1.0000
     1.0000   1.0000   1.0000   1.0000   1.0000   1.0000   1.0000   1.0000
     1.0000   1.0000   1.0000   1.0000   1.0000   1.0000   1.0000   1.0000
     1.0000   1.0000   1.0000   1.0000   1.0000   1.0000   1.0000   1.0000
     1.0000   1.0000   1.0000   1.0000   1.0000   1.0000   1.0000   1.0000
     1.0000   1.0000   1.0000   1.0000   1.0000   1.0000   1.0000   1.0000
     1.0000   1.0000   1.0000   1.0000   1.0000   1.0000   1.0000   1.0000
     1.0000   1.0000   1.0000   1.0000   1.0000   1.0000   1.0000   1.0000
     1.0000   1.0000   1.0000   1.0000   1.0000   1.0000   1.0000   1.0000
     1.0000   1.0000   1.0000   1.0000   1.0000   1.0000   1.0000   1.0000
     1.0000   1.0000   1.0000   1.0000   1.0000   1.0000   1.0000   1.0000
     1.0000   1.0000   1.0000   1.0000   1.0000   1.0000   1.0000   1.0000
     1.0000   1.0000   1.0000   1.0000   1.0000   1.0000   1.0000   1.0000
     1.0000   1.0000   1.0000   1.0000   1.0000   1.0000   1.0000   1.0000
     1.0000   1.0000   1.0000   1.0000   1.0000   1.0000   1.0000   1.0000
     1.0000   1.0000   1.0000   1.0000   1.0000   1.0000   1.0000   1.0000

          k = 0.3333 0.0000 0.2360 ( 47663 PWs)   bands (ev):

   -67.6896 -67.6877 -67.5754 -67.2065 -67.1141 -67.1074 -34.4769 -34.4662
   -34.4535 -34.4488 -34.4409 -34.4391 -34.3505 -34.3483 -34.3223 -33.9766
   -33.9718 -33.9689 -33.9038 -33.8932 -33.8875 -33.8652 -33.8610 -33.8418
   -23.2041 -23.1853 -15.0028 -14.9907 -14.4360 -14.4025 -14.0063 -13.9835
   -13.3640 -13.2752 -13.2228 -13.1702 -13.0589 -13.0514 -12.9998 -12.9465
   -12.8786 -12.7904 -12.6759 -12.6343 -12.5480 -12.4899 -12.2849 -12.1867
   -11.1641 -10.9455  -6.7750  -6.7621  -6.6925  -6.6846  -6.6625  -6.6478
    -3.8751  -3.8006  -2.6495  -2.5960  -1.9201  -1.8409  -1.4960  -1.3531
    -0.9899  -0.8795  -0.8375  -0.8031  -0.4724  -0.4298  -0.3746  -0.3426
    -0.1377  -0.0345   0.1384   0.2656   0.3744   0.4705   0.5036   0.6554
     0.9417   1.0180   1.0829   1.1788   1.2200   1.3817   1.4683   1.5132
     1.5735   1.5996   1.6147   1.9242   2.0012   2.1461   2.2213   2.2668
     2.3027   2.3695   2.5250   2.6027   2.6404   2.6585   2.7180   2.7590
     2.8010   2.9063   2.9335   3.0340   3.0438   3.0867   3.1597   3.1976
     3.3428   3.3881   3.4341   3.4630   3.4977   3.5528   3.5753   3.6441
     3.7041   3.7473   3.8032   3.8972   4.0366   4.2159   4.3383   4.3589

     occupation numbers 
     1.0000   1.0000   1.0000   1.0000   1.0000   1.0000   1.0000   1.0000
     1.0000   1.0000   1.0000   1.0000   1.0000   1.0000   1.0000   1.0000
     1.0000   1.0000   1.0000   1.0000   1.0000   1.0000   1.0000   1.0000
     1.0000   1.0000   1.0000   1.0000   1.0000   1.0000   1.0000   1.0000
     1.0000   1.0000   1.0000   1.0000   1.0000   1.0000   1.0000   1.0000
     1.0000   1.0000   1.0000   1.0000   1.0000   1.0000   1.0000   1.0000
     1.0000   1.0000   1.0000   1.0000   1.0000   1.0000   1.0000   1.0000
     1.0000   1.0000   1.0000   1.0000   1.0000   1.0000   1.0000   1.0000
     1.0000   1.0000   1.0000   1.0000   1.0000   1.0000   1.0000   1.0000
     1.0000   1.0000   1.0000   1.0000   1.0000   1.0000   1.0000   1.0000
     1.0000   1.0000   1.0000   1.0000   1.0000   1.0000   1.0000   1.0000
     1.0000   1.0000   1.0000   1.0000   1.0000   1.0000   1.0000   1.0000
     1.0000   1.0000   1.0000   1.0000   1.0000   1.0000   1.0000   1.0000
     1.0000   1.0000   1.0000   1.0000   1.0000   1.0000   1.0000   1.0000
     1.0000   1.0000   1.0000   1.0000   1.0000   1.0000   1.0000   1.0000
     1.0000   1.0000   1.0000   1.0000   1.0000   1.0000   1.0000   1.0000

          k = 0.3333 0.0000-0.1157 ( 47692 PWs)   bands (ev):

   -67.6896 -67.6877 -67.5754 -67.2065 -67.1141 -67.1074 -34.4769 -34.4662
   -34.4535 -34.4488 -34.4409 -34.4391 -34.3505 -34.3483 -34.3223 -33.9766
   -33.9718 -33.9689 -33.9038 -33.8932 -33.8875 -33.8652 -33.8610 -33.8418
   -23.2041 -23.1853 -15.0150 -14.9780 -14.4304 -14.4084 -14.0074 -13.9823
   -13.3699 -13.2609 -13.2304 -13.1737 -13.0563 -13.0508 -13.0040 -12.9422
   -12.8787 -12.7920 -12.6719 -12.6392 -12.5433 -12.4932 -12.2861 -12.1852
   -11.1640 -10.9454  -6.7750  -6.7622  -6.6925  -6.6845  -6.6625  -6.6478
    -3.8412  -3.8355  -2.6644  -2.5799  -1.9339  -1.8215  -1.5186  -1.3566
    -0.9792  -0.8633  -0.8248  -0.8156  -0.5097  -0.4135  -0.3718  -0.3024
    -0.1958  -0.0152   0.1601   0.2681   0.3923   0.4648   0.5616   0.6104
     0.9380   0.9917   1.1011   1.1788   1.2594   1.3369   1.4610   1.5095
     1.5175   1.5766   1.6751   1.8858   1.9680   2.1428   2.2076   2.2512
     2.3027   2.4359   2.5767   2.5902   2.6033   2.6832   2.7007   2.7852
     2.8262   2.8684   2.9599   3.0134   3.0537   3.1339   3.1856   3.2307
     3.3411   3.3625   3.4371   3.4659   3.4940   3.5331   3.5497   3.6247
     3.6902   3.7373   3.8345   3.8778   4.0361   4.2267   4.3272   4.3607

     occupation numbers 
     1.0000   1.0000   1.0000   1.0000   1.0000   1.0000   1.0000   1.0000
     1.0000   1.0000   1.0000   1.0000   1.0000   1.0000   1.0000   1.0000
     1.0000   1.0000   1.0000   1.0000   1.0000   1.0000   1.0000   1.0000
     1.0000   1.0000   1.0000   1.0000   1.0000   1.0000   1.0000   1.0000
     1.0000   1.0000   1.0000   1.0000   1.0000   1.0000   1.0000   1.0000
     1.0000   1.0000   1.0000   1.0000   1.0000   1.0000   1.0000   1.0000
     1.0000   1.0000   1.0000   1.0000   1.0000   1.0000   1.0000   1.0000
     1.0000   1.0000   1.0000   1.0000   1.0000   1.0000   1.0000   1.0000
     1.0000   1.0000   1.0000   1.0000   1.0000   1.0000   1.0000   1.0000
     1.0000   1.0000   1.0000   1.0000   1.0000   1.0000   1.0000   1.0000
     1.0000   1.0000   1.0000   1.0000   1.0000   1.0000   1.0000   1.0000
     1.0000   1.0000   1.0000   1.0000   1.0000   1.0000   1.0000   1.0000
     1.0000   1.0000   1.0000   1.0000   1.0000   1.0000   1.0000   1.0000
     1.0000   1.0000   1.0000   1.0000   1.0000   1.0000   1.0000   1.0000
     1.0000   1.0000   1.0000   1.0000   1.0000   1.0000   1.0000   1.0000
     1.0000   1.0000   1.0000   1.0000   1.0000   1.0000   1.0000   1.0000

          k = 0.3333 0.1921 0.0601 ( 47632 PWs)   bands (ev):

   -67.6896 -67.6877 -67.5754 -67.2065 -67.1141 -67.1074 -34.4769 -34.4662
   -34.4535 -34.4488 -34.4409 -34.4391 -34.3505 -34.3483 -34.3223 -33.9766
   -33.9718 -33.9689 -33.9039 -33.8932 -33.8875 -33.8652 -33.8610 -33.8418
   -23.2041 -23.1853 -15.0167 -14.9687 -14.4492 -14.4103 -14.0089 -13.9761
   -13.3433 -13.2813 -13.1872 -13.1393 -13.0847 -13.0637 -13.0288 -12.9573
   -12.8898 -12.7890 -12.6763 -12.6087 -12.5635 -12.4857 -12.2933 -12.1776
   -11.1645 -10.9445  -6.7738  -6.7642  -6.6928  -6.6838  -6.6624  -6.6479
    -3.8513  -3.7794  -2.7794  -2.6784  -1.8647  -1.6963  -1.4740  -1.3857
    -1.0008  -0.8998  -0.8543  -0.7667  -0.5031  -0.3799  -0.3270  -0.2277
    -0.1673  -0.0295   0.1044   0.2909   0.3708   0.4691   0.5040   0.5480
     0.8585   0.9270   1.1705   1.2191   1.2753   1.3451   1.4032   1.4843
     1.5193   1.5823   1.6807   1.8137   2.0182   2.1655   2.2223   2.2714
     2.3201   2.4245   2.5086   2.5786   2.6435   2.7032   2.7657   2.8228
     2.8529   2.9386   2.9856   3.0204   3.0996   3.1195   3.1871   3.2117
     3.2768   3.3330   3.3664   3.4562   3.4748   3.5165   3.5821   3.6209
     3.7184   3.7613   3.8578   3.9267   3.9596   4.2043   4.2755   4.3390

     occupation numbers 
     1.0000   1.0000   1.0000   1.0000   1.0000   1.0000   1.0000   1.0000
     1.0000   1.0000   1.0000   1.0000   1.0000   1.0000   1.0000   1.0000
     1.0000   1.0000   1.0000   1.0000   1.0000   1.0000   1.0000   1.0000
     1.0000   1.0000   1.0000   1.0000   1.0000   1.0000   1.0000   1.0000
     1.0000   1.0000   1.0000   1.0000   1.0000   1.0000   1.0000   1.0000
     1.0000   1.0000   1.0000   1.0000   1.0000   1.0000   1.0000   1.0000
     1.0000   1.0000   1.0000   1.0000   1.0000   1.0000   1.0000   1.0000
     1.0000   1.0000   1.0000   1.0000   1.0000   1.0000   1.0000   1.0000
     1.0000   1.0000   1.0000   1.0000   1.0000   1.0000   1.0000   1.0000
     1.0000   1.0000   1.0000   1.0000   1.0000   1.0000   1.0000   1.0000
     1.0000   1.0000   1.0000   1.0000   1.0000   1.0000   1.0000   1.0000
     1.0000   1.0000   1.0000   1.0000   1.0000   1.0000   1.0000   1.0000
     1.0000   1.0000   1.0000   1.0000   1.0000   1.0000   1.0000   1.0000
     1.0000   1.0000   1.0000   1.0000   1.0000   1.0000   1.0000   1.0000
     1.0000   1.0000   1.0000   1.0000   1.0000   1.0000   1.0000   1.0000
     1.0000   1.0000   1.0000   1.0000   1.0000   1.0000   1.0000   1.0000

          k = 0.3333 0.1921 0.2360 ( 47630 PWs)   bands (ev):

   -67.6896 -67.6877 -67.5754 -67.2065 -67.1141 -67.1074 -34.4769 -34.4662
   -34.4535 -34.4488 -34.4409 -34.4391 -34.3505 -34.3483 -34.3223 -33.9766
   -33.9718 -33.9689 -33.9039 -33.8932 -33.8875 -33.8652 -33.8610 -33.8418
   -23.2041 -23.1853 -14.9995 -14.9867 -14.4455 -14.4141 -14.0033 -13.9822
   -13.3391 -13.2734 -13.2064 -13.1310 -13.0855 -13.0598 -13.0339 -12.9533
   -12.8883 -12.7930 -12.6677 -12.6242 -12.5484 -12.4943 -12.2837 -12.1862
   -11.1637 -10.9454  -6.7739  -6.7643  -6.6927  -6.6838  -6.6623  -6.6479
    -3.8498  -3.7807  -2.7460  -2.7153  -1.8451  -1.7234  -1.4487  -1.3748
    -0.9948  -0.9261  -0.8048  -0.7852  -0.4744  -0.4318  -0.3382  -0.2566
    -0.1433  -0.0719   0.1405   0.2434   0.3555   0.4441   0.4953   0.5963
     0.8549   0.9569   1.1517   1.2070   1.2942   1.3370   1.4565   1.4974
     1.5580   1.6340   1.6607   1.8140   2.0506   2.1160   2.2348   2.2631
     2.2931   2.4306   2.4826   2.5945   2.6477   2.6693   2.7381   2.7939
     2.8542   2.9165   2.9879   3.0369   3.0719   3.1219   3.1895   3.2455
     3.2843   3.3695   3.4022   3.4473   3.4662   3.5145   3.5466   3.6027
     3.7384   3.7830   3.8131   3.8797   4.0306   4.1770   4.2887   4.3614

     occupation numbers 
     1.0000   1.0000   1.0000   1.0000   1.0000   1.0000   1.0000   1.0000
     1.0000   1.0000   1.0000   1.0000   1.0000   1.0000   1.0000   1.0000
     1.0000   1.0000   1.0000   1.0000   1.0000   1.0000   1.0000   1.0000
     1.0000   1.0000   1.0000   1.0000   1.0000   1.0000   1.0000   1.0000
     1.0000   1.0000   1.0000   1.0000   1.0000   1.0000   1.0000   1.0000
     1.0000   1.0000   1.0000   1.0000   1.0000   1.0000   1.0000   1.0000
     1.0000   1.0000   1.0000   1.0000   1.0000   1.0000   1.0000   1.0000
     1.0000   1.0000   1.0000   1.0000   1.0000   1.0000   1.0000   1.0000
     1.0000   1.0000   1.0000   1.0000   1.0000   1.0000   1.0000   1.0000
     1.0000   1.0000   1.0000   1.0000   1.0000   1.0000   1.0000   1.0000
     1.0000   1.0000   1.0000   1.0000   1.0000   1.0000   1.0000   1.0000
     1.0000   1.0000   1.0000   1.0000   1.0000   1.0000   1.0000   1.0000
     1.0000   1.0000   1.0000   1.0000   1.0000   1.0000   1.0000   1.0000
     1.0000   1.0000   1.0000   1.0000   1.0000   1.0000   1.0000   1.0000
     1.0000   1.0000   1.0000   1.0000   1.0000   1.0000   1.0000   1.0000
     1.0000   1.0000   1.0000   1.0000   1.0000   1.0000   1.0000   1.0000

          k = 0.3333 0.1921-0.1157 ( 47645 PWs)   bands (ev):

   -67.6896 -67.6877 -67.5754 -67.2065 -67.1141 -67.1074 -34.4769 -34.4662
   -34.4535 -34.4488 -34.4409 -34.4391 -34.3505 -34.3483 -34.3223 -33.9766
   -33.9718 -33.9689 -33.9039 -33.8932 -33.8875 -33.8652 -33.8610 -33.8418
   -23.2041 -23.1853 -15.0114 -14.9743 -14.4418 -14.4181 -14.0031 -13.9823
   -13.3430 -13.2749 -13.1955 -13.1389 -13.0737 -13.0595 -13.0472 -12.9526
   -12.8879 -12.7922 -12.6650 -12.6258 -12.5426 -12.5001 -12.2848 -12.1848
   -11.1636 -10.9454  -6.7739  -6.7643  -6.6927  -6.6837  -6.6623  -6.6479
    -3.8200  -3.8118  -2.7659  -2.6937  -1.8564  -1.7055  -1.4702  -1.3808
    -0.9819  -0.9028  -0.8345  -0.7657  -0.5134  -0.3706  -0.3544  -0.2361
    -0.1977  -0.0569   0.1092   0.2979   0.3848   0.4494   0.5283   0.5524
     0.8855   0.9185   1.1491   1.2051   1.2974   1.3442   1.4486   1.4548
[...]
     atom   16 type  1   force =     0.00053922   -0.00207590    0.01058667
     atom   17 type  5   force =    -0.00018164    0.00021322    0.00640240
     atom   18 type  5   force =     0.00018163    0.00021322   -0.00640239
     atom   19 type  5   force =    -0.00012907    0.00005544   -0.00694881
     atom   20 type  5   force =     0.00012907    0.00005544    0.00694881
     atom   21 type  5   force =     0.00009097   -0.00019260    0.00680844
     atom   22 type  5   force =    -0.00009097   -0.00019260   -0.00680844
     atom   23 type  5   force =     0.00011612    0.00006198   -0.00317119
     atom   24 type  5   force =    -0.00011612    0.00006198    0.00317119
     atom   25 type  5   force =     0.00467570   -0.00199737   -0.00574895
     atom   26 type  5   force =    -0.00467571   -0.00199737    0.00574892
     atom   27 type  5   force =    -0.00363712    0.00081665   -0.00710569
     atom   28 type  5   force =     0.00363712    0.00081665    0.00710567
     atom   29 type  5   force =    -0.00166063    0.00238403    0.00726923
     atom   30 type  5   force =     0.00166063    0.00238403   -0.00726923
     atom   31 type  5   force =     0.00094713   -0.00224953   -0.00744304
     atom   32 type  5   force =    -0.00094713   -0.00224953    0.00744304
     atom   33 type  5   force =    -0.00259239   -0.00346983   -0.00650437
     atom   34 type  5   force =     0.00259237   -0.00346983    0.00650439
     atom   35 type  5   force =     0.00092789    0.00434802    0.00642110
     atom   36 type  5   force =    -0.00092789    0.00434803   -0.00642110
     atom   37 type  5   force =     0.00001029    0.00083991    0.01120041
     atom   38 type  5   force =    -0.00001028    0.00083991   -0.01120041
     atom   39 type  5   force =     0.00018838   -0.00171052    0.01090099
     atom   40 type  5   force =    -0.00018837   -0.00171051   -0.01090097
     atom   41 type  2   force =     0.00000000    0.00000000    0.00000000
     atom   42 type  2   force =     0.00000000    0.00000000    0.00000000
     atom   43 type  2   force =     0.00000000    0.00000000    0.00000000
     atom   44 type  2   force =     0.00000000    0.00000000    0.00000000
     The Hubbard contrib.    to forces
     atom    1 type  3   force =     0.00000000    0.00000000    0.00000000
     atom    2 type  3   force =     0.00000000    0.00000000    0.00000000
     atom    3 type  4   force =     0.00000000    0.00000000    0.00000000
     atom    4 type  4   force =     0.00000000    0.00000000    0.00000000
     atom    5 type  4   force =     0.00000000    0.00000000    0.00000000
     atom    6 type  4   force =     0.00000000    0.00000000    0.00000000
     atom    7 type  4   force =     0.00000000    0.00000000    0.00000000
     atom    8 type  4   force =     0.00000000    0.00000000    0.00000000
     atom    9 type  6   force =     0.00000000    0.00000000    0.00000000
     atom   10 type  6   force =     0.00000000    0.00000000    0.00000000
     atom   11 type  6   force =     0.00000000    0.00000000    0.00000000
     atom   12 type  6   force =     0.00000000    0.00000000    0.00000000
     atom   13 type  6   force =     0.00000000    0.00000000    0.00000000
     atom   14 type  6   force =     0.00000000    0.00000000    0.00000000
     atom   15 type  1   force =     0.00000000    0.00000000    0.00000000
     atom   16 type  1   force =     0.00000000    0.00000000    0.00000000
     atom   17 type  5   force =     0.00000000    0.00000000    0.00000000
     atom   18 type  5   force =     0.00000000    0.00000000    0.00000000
     atom   19 type  5   force =     0.00000000    0.00000000    0.00000000
     atom   20 type  5   force =     0.00000000    0.00000000    0.00000000
     atom   21 type  5   force =     0.00000000    0.00000000    0.00000000
     atom   22 type  5   force =     0.00000000    0.00000000    0.00000000
     atom   23 type  5   force =     0.00000000    0.00000000    0.00000000
     atom   24 type  5   force =     0.00000000    0.00000000    0.00000000
     atom   25 type  5   force =     0.00000000    0.00000000    0.00000000
     atom   26 type  5   force =     0.00000000    0.00000000    0.00000000
     atom   27 type  5   force =     0.00000000    0.00000000    0.00000000
     atom   28 type  5   force =     0.00000000    0.00000000    0.00000000
     atom   29 type  5   force =     0.00000000    0.00000000    0.00000000
     atom   30 type  5   force =     0.00000000    0.00000000    0.00000000
     atom   31 type  5   force =     0.00000000    0.00000000    0.00000000
     atom   32 type  5   force =     0.00000000    0.00000000    0.00000000
     atom   33 type  5   force =     0.00000000    0.00000000    0.00000000
     atom   34 type  5   force =     0.00000000    0.00000000    0.00000000
     atom   35 type  5   force =     0.00000000    0.00000000    0.00000000
     atom   36 type  5   force =     0.00000000    0.00000000    0.00000000
     atom   37 type  5   force =     0.00000000    0.00000000    0.00000000
     atom   38 type  5   force =     0.00000000    0.00000000    0.00000000
     atom   39 type  5   force =     0.00000000    0.00000000    0.00000000
     atom   40 type  5   force =     0.00000000    0.00000000    0.00000000
     atom   41 type  2   force =     0.00000000    0.00000000    0.00000000
     atom   42 type  2   force =     0.00000000    0.00000000    0.00000000
     atom   43 type  2   force =     0.00000000    0.00000000    0.00000000
     atom   44 type  2   force =     0.00000000    0.00000000    0.00000000
     The SCF correction term to forces
     atom    1 type  3   force =    -0.00000000   -0.00000523   -0.00000000
     atom    2 type  3   force =     0.00000000    0.00000457   -0.00000000
     atom    3 type  4   force =     0.00000000   -0.00000026   -0.00000000
     atom    4 type  4   force =    -0.00000000    0.00000111    0.00000000
     atom    5 type  4   force =     0.00000000    0.00000003   -0.00000000
     atom    6 type  4   force =    -0.00000000    0.00000157   -0.00000000
     atom    7 type  4   force =    -0.00000000   -0.00000398   -0.00000000
     atom    8 type  4   force =     0.00000000    0.00000404   -0.00000000
     atom    9 type  6   force =     0.00000043    0.00000060   -0.00000092
     atom   10 type  6   force =    -0.00000043    0.00000060    0.00000092
     atom   11 type  6   force =     0.00000039    0.00000121   -0.00000123
     atom   12 type  6   force =    -0.00000039    0.00000121    0.00000123
     atom   13 type  6   force =    -0.00000014   -0.00000151    0.00000200
     atom   14 type  6   force =     0.00000014   -0.00000151   -0.00000200
     atom   15 type  1   force =     0.00000021   -0.00000021    0.00000033
     atom   16 type  1   force =    -0.00000021   -0.00000021   -0.00000033
     atom   17 type  5   force =    -0.00000025    0.00000070   -0.00000114
     atom   18 type  5   force =     0.00000025    0.00000070    0.00000114
     atom   19 type  5   force =    -0.00000034   -0.00000125   -0.00000116
     atom   20 type  5   force =     0.00000034   -0.00000125    0.00000116
     atom   21 type  5   force =    -0.00000029   -0.00000067    0.00000183
     atom   22 type  5   force =     0.00000029   -0.00000067   -0.00000183
     atom   23 type  5   force =     0.00000040    0.00000084    0.00000020
     atom   24 type  5   force =    -0.00000040    0.00000084   -0.00000020
     atom   25 type  5   force =    -0.00000135    0.00000188   -0.00000148
     atom   26 type  5   force =     0.00000135    0.00000188    0.00000148
     atom   27 type  5   force =    -0.00000033    0.00000214    0.00000074
     atom   28 type  5   force =     0.00000033    0.00000214   -0.00000074
     atom   29 type  5   force =    -0.00000135    0.00000056   -0.00000236
     atom   30 type  5   force =     0.00000135    0.00000056    0.00000236
     atom   31 type  5   force =     0.00000046   -0.00000040    0.00000187
     atom   32 type  5   force =    -0.00000046   -0.00000040   -0.00000187
     atom   33 type  5   force =    -0.00000079   -0.00000209    0.00000167
     atom   34 type  5   force =     0.00000079   -0.00000209   -0.00000167
     atom   35 type  5   force =    -0.00000039    0.00000018    0.00000076
     atom   36 type  5   force =     0.00000039    0.00000018   -0.00000076
     atom   37 type  5   force =     0.00000038    0.00000010    0.00000104
     atom   38 type  5   force =    -0.00000038    0.00000010   -0.00000104
     atom   39 type  5   force =     0.00000034   -0.00000059    0.00000000
     atom   40 type  5   force =    -0.00000034   -0.00000059   -0.00000000
     atom   41 type  2   force =     0.00000006   -0.00000016    0.00000010
     atom   42 type  2   force =    -0.00000006   -0.00000016   -0.00000010
     atom   43 type  2   force =    -0.00000001    0.00000019   -0.00000033
     atom   44 type  2   force =     0.00000001    0.00000019    0.00000033

     DFT-D3 dispersion contribution to forces:
     atom    1 type  3   force =    -0.00000000    0.00050614    0.00000000
     atom    2 type  3   force =     0.00000000   -0.00021383    0.00000000
     atom    3 type  4   force =     0.00000000    0.00030079   -0.00000000
     atom    4 type  4   force =     0.00000000    0.00070906   -0.00000000
     atom    5 type  4   force =    -0.00000000   -0.00115929   -0.00000000
     atom    6 type  4   force =     0.00000000   -0.00060600    0.00000000
     atom    7 type  4   force =    -0.00000000    0.00115554    0.00000000
     atom    8 type  4   force =     0.00000000   -0.00019646   -0.00000000
     atom    9 type  6   force =     0.00005385   -0.00008415   -0.00029826
     atom   10 type  6   force =    -0.00005385   -0.00008415    0.00029826
     atom   11 type  6   force =     0.00006627    0.00006457    0.00024431
     atom   12 type  6   force =    -0.00006627    0.00006457   -0.00024431
     atom   13 type  6   force =    -0.00004730    0.00015974   -0.00022657
     atom   14 type  6   force =     0.00004730    0.00015974    0.00022657
     atom   15 type  1   force =     0.00004240    0.00004676   -0.00105824
     atom   16 type  1   force =    -0.00004240    0.00004676    0.00105824
     atom   17 type  5   force =    -0.00000380    0.00004568    0.00045417
     atom   18 type  5   force =     0.00000380    0.00004568   -0.00045417
     atom   19 type  5   force =    -0.00000221    0.00001326   -0.00033999
     atom   20 type  5   force =     0.00000221    0.00001326    0.00033999
     atom   21 type  5   force =    -0.00001306   -0.00005613    0.00036610
     atom   22 type  5   force =     0.00001306   -0.00005613   -0.00036610
     atom   23 type  5   force =    -0.00002296   -0.00001230    0.00008609
     atom   24 type  5   force =     0.00002296   -0.00001230   -0.00008609
     atom   25 type  5   force =    -0.00019362    0.00104549    0.00010818
     atom   26 type  5   force =     0.00019362    0.00104549   -0.00010818
     atom   27 type  5   force =     0.00080332    0.00007709    0.00017628
     atom   28 type  5   force =    -0.00080332    0.00007709   -0.00017628
     atom   29 type  5   force =     0.00041765   -0.00059621   -0.00017612
     atom   30 type  5   force =    -0.00041765   -0.00059621    0.00017612
     atom   31 type  5   force =    -0.00026180    0.00039829    0.00021842
     atom   32 type  5   force =     0.00026180    0.00039829   -0.00021842
     atom   33 type  5   force =     0.00087340   -0.00042946    0.00038612
     atom   34 type  5   force =    -0.00087340   -0.00042946   -0.00038612
     atom   35 type  5   force =     0.00064851   -0.00055227   -0.00031813
     atom   36 type  5   force =    -0.00064851   -0.00055227    0.00031813
     atom   37 type  5   force =    -0.00001736   -0.00005205   -0.00049448
     atom   38 type  5   force =     0.00001736   -0.00005205    0.00049448
     atom   39 type  5   force =     0.00000964    0.00004627   -0.00052378
     atom   40 type  5   force =    -0.00000964    0.00004627    0.00052378
     atom   41 type  2   force =     0.00001964    0.00015224   -0.00029169
     atom   42 type  2   force =    -0.00001964    0.00015224    0.00029169
     atom   43 type  2   force =     0.00012228   -0.00051479   -0.00023126
     atom   44 type  2   force =    -0.00012228   -0.00051479    0.00023126

     Total force =     0.000361     Total SCF correction =     0.000014

     DFT-D3 dispersion Force =     0.004331
     Energy error            =      2.9E-07 Ry
     Gradient error          =      8.8E-05 Ry/Bohr

     bfgs converged in  32 scf cycles and  31 bfgs steps
     (criteria: energy <  1.0E-05 Ry, force <  1.0E-04 Ry/Bohr)

     End of BFGS Geometry Optimization

     Final energy             =   -2443.7489353178 Ry

     File ./temp/phl-fe0-dftd3.bfgs deleted, as requested
Begin final coordinates

ATOMIC_POSITIONS (crystal)
K                0.0000000000        0.4958353190        0.0000000000
K                0.5000000000        0.0010877345        0.0000000000
Mg              -0.0000000000        0.0045582200        0.5000000000
Mg              -0.0000000000        0.3332494302        0.5000000000
Mg              -0.0000000000        0.6651455472        0.5000000000
Mg               0.5000000000        0.4929654074        0.5000000000
Mg               0.5000000000        0.8348507561        0.5000000000
Mg               0.5000000000        0.1724003980        0.5000000000
Si               0.0850037440        0.1650931887        0.2220972355
Si               0.9149962420        0.1650931887        0.7779027945
Si               0.9360909366        0.8344308994        0.7713451418
Si               0.0639090634        0.8344308994        0.2286548582
Si               0.5625795471        0.6662805829        0.2265520991
Si               0.4374204529        0.6662805829        0.7734478859
Al               0.4137285221        0.3308026740        0.7762443480
Al               0.5862714779        0.3308026740        0.2237556520
O                0.1278487878        0.1637509421        0.3845316654
O                0.8721511822        0.1637509421        0.6154683636
O                0.8751312509        0.8332862976        0.6102958983
O                0.1248687491        0.8332862976        0.3897041017
O                0.6246570179        0.6689889295        0.3882942879
O                0.3753429821        0.6689889295        0.6117057121
O                0.3609985620        0.3328699978        0.6040159334
O                0.6390014380        0.3328699978        0.3959840666
O                0.3461425744        0.2010189691        0.1651067952
O                0.6538574256        0.2010189691        0.8348931748
O                0.9951576386        0.9974510478        0.1671027489
O                0.0048423614        0.9974510478        0.8328972361
O                0.6855490991        0.7742161751        0.8314431232
O                0.3144509009        0.7742161751        0.1685568768
O                0.8133153439        0.7326760032        0.1676388748
O                0.1866846561        0.7326760032        0.8323611252
O                0.4959547272        0.5074677100        0.1615582392
O                0.5040452428        0.5074677100        0.8384417758
O                0.1397104087        0.2781240603        0.8412361290
O                0.8602896063        0.2781240603        0.1587638710
O                0.1304351359        0.5041470952        0.3939147953
O                0.8695648791        0.5041470952        0.6060852047
O                0.6324560978        0.9994812994        0.3972938009
O                0.3675439022        0.9994812994        0.6027061691
H                0.0990787993        0.4931898580        0.2983690174
H                0.9009212307        0.4931898580        0.7016309826
H                0.5936870557        0.0166753901        0.3024486605
H                0.4063129443        0.0166753901        0.6975513395
End final coordinates



     Writing all to output data dir ./temp/phl-fe0-dftd3.save/ :
     XML data file, charge density, pseudopotentials, collected wavefunctions

     init_run     :    108.43s CPU    109.42s WALL (       1 calls)
     electrons    : 193121.92s CPU 195142.66s WALL (      32 calls)
     update_pot   :     33.67s CPU     34.89s WALL (      31 calls)
     forces       :   2775.16s CPU   2812.68s WALL (      32 calls)
     force_dftd3  :     66.56s CPU     67.51s WALL (      32 calls)

     Called by init_run:
     wfcinit      :    103.88s CPU    104.34s WALL (       1 calls)
     wfcinit:atom :      0.06s CPU      0.06s WALL (      10 calls)
     wfcinit:wfcr :    103.18s CPU    103.62s WALL (      10 calls)
     potinit      :      1.06s CPU      1.12s WALL (       1 calls)
     hinit0       :      0.69s CPU      0.73s WALL (       1 calls)

     Called by electrons:
     c_bands      : 181162.90s CPU 182774.46s WALL (     368 calls)
     sum_band     :  10806.13s CPU  11090.58s WALL (     368 calls)
     v_of_rho     :    149.79s CPU    156.33s WALL (     371 calls)
     v_h          :     12.17s CPU     12.95s WALL (     371 calls)
     v_xc         :    149.19s CPU    155.84s WALL (     403 calls)
     newd         :    862.18s CPU    988.27s WALL (     371 calls)
     PAW_pot      :    168.14s CPU    169.07s WALL (     402 calls)
     mix_rho      :     17.43s CPU     18.11s WALL (     368 calls)
     energy_dftd3 :     49.42s CPU     49.61s WALL (      32 calls)

     Called by c_bands:
     init_us_2    :    279.57s CPU    282.22s WALL (    8000 calls)
     cegterg      : 176256.69s CPU 177842.16s WALL (    3680 calls)

     Called by sum_band:
     sum_band:wei :      0.31s CPU      0.36s WALL (     368 calls)
     sum_band:loo :   9589.07s CPU   9718.03s WALL (     368 calls)
     sum_band:buf :     29.06s CPU     29.51s WALL (    3680 calls)
     sum_band:ini :    111.07s CPU    112.04s WALL (    3680 calls)
     sum_band:cal :   7595.83s CPU   7646.54s WALL (    3990 calls)
     sum_band:bec :      5.62s CPU      5.68s WALL (    3990 calls)
     addusdens    :   1113.22s CPU   1265.51s WALL (     368 calls)
                                        0.00s GPU  (     368 calls)
     addusd:skk   :      6.85s CPU     10.88s WALL (    2208 calls)
                                        0.00s GPU  (    2208 calls)

     Called by *egterg:
     cdiaghg      :   2069.81s CPU   2080.65s WALL (   28328 calls)
     cegterg:over :  23508.98s CPU  23637.54s WALL (   25248 calls)
     cegterg:upda :  12549.91s CPU  12638.46s WALL (   25248 calls)
     cegterg:last :  34712.24s CPU  34897.83s WALL (   14228 calls)
     h_psi        :  69316.58s CPU  70222.88s WALL (   28938 calls)
     s_psi        :  26826.40s CPU  26976.41s WALL (   28938 calls)
     g_psi        :     75.33s CPU     75.87s WALL (   25248 calls)

     Called by h_psi:
     h_psi:calbec :  27965.22s CPU  28128.82s WALL (   28938 calls)
     vloc_psi     :  14206.52s CPU  14752.29s WALL (   28938 calls)
     add_vuspsi   :  27063.33s CPU  27218.99s WALL (   28938 calls)

     General routines
     calbec       :  37999.61s CPU  38233.07s WALL (   34208 calls)
     fft          :    123.10s CPU    132.39s WALL (    5171 calls)
     ffts         :      4.47s CPU      4.89s WALL (     739 calls)
     fftw         :  12026.70s CPU  12534.46s WALL ( 4266014 calls)
     interpolate  :     13.36s CPU     14.16s WALL (     371 calls)

     Parallel routines

     PAW routines
     PAW_pot      :    168.14s CPU    169.07s WALL (     402 calls)
     PAW_symme    :      0.40s CPU      0.42s WALL (     770 calls)

     PWSCF        :   2d 6h39m CPU   2d 7h13m WALL


   This run was terminated on:  21:40:47   9Dec2025            

=------------------------------------------------------------------------------=
   JOB DONE.
=------------------------------------------------------------------------------=
