
     Program PWSCF v.7.3.1 starts on 12Mar2025 at 21: 9:22 

     This program is part of the open-source Quantum ESPRESSO suite
     for quantum simulation of materials; please cite
         "P. Giannozzi et al., J. Phys.:Condens. Matter 21 395502 (2009);
         "P. Giannozzi et al., J. Phys.:Condens. Matter 29 465901 (2017);
         "P. Giannozzi et al., J. Chem. Phys. 152 154105 (2020);
          URL http://www.quantum-espresso.org", 
     in publications or presentations arising from this work. More details at
     http://www.quantum-espresso.org/quote

     Parallel version (MPI), running on     6 processors

     MPI processes distributed on     1 nodes
     10556 MiB available memory on the printing compute node when the environment starts

     Reading input from vc_relax.in

     Current dimensions of program PWSCF are:
     Max number of different atomic species (ntypx) = 10
     Max number of k-points (npk) =  40000
     Max angular momentum in pseudopotentials (lmaxx) =  4
     file Al.pbe-n-kjpaw_psl.1.0.0.UPF: wavefunction(s)  3S 3P renormalized
     file Ti.pbe-spn-kjpaw_psl.1.0.0.UPF: wavefunction(s)  3S 3P 3D renormalized
     file H.pbe-kjpaw_psl.1.0.0.UPF: wavefunction(s)  1S renormalized
     file K.pbe-spn-kjpaw_psl.1.0.0.UPF: wavefunction(s)  3S renormalized
     file Mg.pbe-spnl-kjpaw_psl.1.0.0.UPF: wavefunction(s)  2P renormalized
     file O.pbe-n-kjpaw_psl.1.0.0.UPF: wavefunction(s)  2S 2P renormalized
     file Si.pbe-n-kjpaw_psl.1.0.0.UPF: wavefunction(s)  3S 3P renormalized

     R & G space division:  proc/nbgrp/npool/nimage =       6
     Subspace diagonalization in iterative solution of the eigenvalue problem:
     a serial algorithm will be used


     Parallelization info
     --------------------
     sticks:   dense  smooth     PW     G-vecs:    dense   smooth      PW
     Min        1105     554    150                97744    34578    4918
     Max        1106     555    151                97745    34580    4920
     Sum        6633    3329    905               586467   207475   29511

     Using Slab Decomposition



     bravais-lattice index     =          -12
     lattice parameter (alat)  =      10.0136  a.u.
     unit-cell volume          =    3303.4414 (a.u.)^3
     number of atoms/cell      =           43
     number of atomic types    =            7
     number of electrons       =       248.00
     number of Kohn-Sham states=          149
     kinetic-energy cutoff     =      60.0000  Ry
     charge density cutoff     =     480.0000  Ry
     scf convergence threshold =      1.0E-06
     mixing beta               =       0.7000
     number of iterations used =            8  plain     mixing
     energy convergence thresh.=      1.0E-04
     force convergence thresh. =      1.0E-03
     press convergence thresh. =      5.0E-01
     Exchange-correlation= SLA  PW   PBX  PBC
                           (   1   4   3   4   0   0   0)
     nstep                     =           50


     celldm(1)=  10.013640  celldm(2)=   1.735306  celldm(3)=   1.926511
     celldm(4)=   0.000000  celldm(5)=  -0.177565  celldm(6)=   0.000000

     crystal axes: (cart. coord. in units of alat)
               a(1) = (   1.000000   0.000000   0.000000 )  
               a(2) = (   0.000000   1.735306   0.000000 )  
               a(3) = (  -0.342081   0.000000   1.895896 )  

     reciprocal axes: (cart. coord. in units 2 pi/alat)
               b(1) = (  1.000000 -0.000000  0.180432 )  
               b(2) = (  0.000000  0.576267 -0.000000 )  
               b(3) = (  0.000000  0.000000  0.527455 )  


     PseudoPot. # 1 for Al read from file:
     ./../../../pseudos/Al.pbe-n-kjpaw_psl.1.0.0.UPF
     MD5 check sum: 502b6b27b9c6270cab5dd1084b96fa6d
     Pseudo is Projector augmented-wave + core cor, Zval =  3.0
     Generated using &quot;atomic&quot; code by A. Dal Corso  v.6.3
     Shape of augmentation charge: PSQ
     Using radial grid of 1135 points,  6 beta functions with: 
                l(1) =   0
                l(2) =   0
                l(3) =   1
                l(4) =   1
                l(5) =   2
                l(6) =   2
     Q(r) pseudized with 0 coefficients 


     PseudoPot. # 2 for Ti read from file:
     ./../../../pseudos/Ti.pbe-spn-kjpaw_psl.1.0.0.UPF
     MD5 check sum: 01f69b0d8ba4438b2e03ac6ea4af1c0b
     Pseudo is Projector augmented-wave + core cor, Zval = 12.0
     Generated using &quot;atomic&quot; code by A. Dal Corso  v.6.2.2
     Shape of augmentation charge: PSQ
     Using radial grid of 1177 points,  6 beta functions with: 
                l(1) =   0
                l(2) =   0
                l(3) =   1
                l(4) =   1
                l(5) =   2
                l(6) =   2
     Q(r) pseudized with 0 coefficients 


     PseudoPot. # 3 for H  read from file:
     ./../../../pseudos/H.pbe-kjpaw_psl.1.0.0.UPF
     MD5 check sum: d81a744832360e4a8af0b0b5b123bc2a
     Pseudo is Projector augmented-wave, Zval =  1.0
     Generated using &quot;atomic&quot; code by A. Dal Corso  v.6.3MaX
     Shape of augmentation charge: PSQ
     Using radial grid of  929 points,  2 beta functions with: 
                l(1) =   0
                l(2) =   0
     Q(r) pseudized with 0 coefficients 


     PseudoPot. # 4 for K  read from file:
     ./../../../pseudos/K.pbe-spn-kjpaw_psl.1.0.0.UPF
     MD5 check sum: 34cc42130a09071ebe376fd42eb21491
     Pseudo is Projector augmented-wave + core cor, Zval =  9.0
     Generated using &quot;atomic&quot; code by A. Dal Corso  v.6.2.2
     Shape of augmentation charge: PSQ
     Using radial grid of 1165 points,  6 beta functions with: 
                l(1) =   0
                l(2) =   0
                l(3) =   1
                l(4) =   1
                l(5) =   2
                l(6) =   2
     Q(r) pseudized with 0 coefficients 


     PseudoPot. # 5 for Mg read from file:
     ./../../../pseudos/Mg.pbe-spnl-kjpaw_psl.1.0.0.UPF
     MD5 check sum: fda14e0d92a6a9a5ebed782e5a4b3067
     Pseudo is Projector augmented-wave + core cor, Zval = 10.0
     Generated using &quot;atomic&quot; code by A. Dal Corso  v.6.3
     Shape of augmentation charge: PSQ
     Using radial grid of 1129 points,  4 beta functions with: 
                l(1) =   0
                l(2) =   0
                l(3) =   1
                l(4) =   1
     Q(r) pseudized with 0 coefficients 


     PseudoPot. # 6 for O  read from file:
     ./../../../pseudos/O.pbe-n-kjpaw_psl.1.0.0.UPF
     MD5 check sum: e99d9cef9b487d1ca56f5b95ecd0fd7a
     Pseudo is Projector augmented-wave + core cor, Zval =  6.0
     Generated using &quot;atomic&quot; code by A. Dal Corso  v.6.3
     Shape of augmentation charge: PSQ
     Using radial grid of 1095 points,  4 beta functions with: 
                l(1) =   0
                l(2) =   0
                l(3) =   1
                l(4) =   1
     Q(r) pseudized with 0 coefficients 


     PseudoPot. # 7 for Si read from file:
     ./../../../pseudos/Si.pbe-n-kjpaw_psl.1.0.0.UPF
     MD5 check sum: c39c59da582df4a0d9f10159256ea34e
     Pseudo is Projector augmented-wave + core cor, Zval =  4.0
     Generated using &quot;atomic&quot; code by A. Dal Corso  v.6.3
     Shape of augmentation charge: PSQ
     Using radial grid of 1141 points,  6 beta functions with: 
                l(1) =   0
                l(2) =   0
                l(3) =   1
                l(4) =   1
                l(5) =   2
                l(6) =   2
     Q(r) pseudized with 0 coefficients 


     atomic species   valence    mass     pseudopotential
     Al                3.00    26.98154     Al( 1.00)
     Ti               12.00    47.86700     Ti( 1.00)
     H                 1.00     1.00794     H ( 1.00)
     K                 9.00    39.09830     K ( 1.00)
     Mg               10.00    24.30500     Mg( 1.00)
     O                 6.00    15.99940     O ( 1.00)
     Si                4.00    28.08550     Si( 1.00)

     Starting magnetic structure 
     atomic species   magnetization
     Al              0.000
     Ti              0.300
     H               0.000
     K               0.000
     Mg              0.000
     O               0.000
     Si              0.000

      2 Sym. Ops. (no inversion) found


                                    s                        frac. trans.

      isym =  1     identity                                     

 cryst.   s( 1) = (     1          0          0      )
                  (     0          1          0      )
                  (     0          0          1      )

 cart.    s( 1) = (  1.0000000  0.0000000 -0.0000000 )
                  (  0.0000000  1.0000000  0.0000000 )
                  (  0.0000000  0.0000000  1.0000000 )


      isym =  2     180 deg rotation - cart. axis [0,1,0]        

 cryst.   s( 2) = (    -1          0          0      )
                  (     0          1          0      )
                  (     0          0         -1      )

 cart.    s( 2) = ( -1.0000000  0.0000000  0.0000000 )
                  (  0.0000000  1.0000000  0.0000000 )
                  (  0.0000000  0.0000000 -1.0000000 )


     point group C_2  (2)   
     there are  2 classes
     the character table:

       E     C2   
A      1.00  1.00
B      1.00 -1.00

     the symmetry operations in each class and the name of the first element:

     E        1
          identity                                               
     C2       2
          180 deg rotation - cart. axis [0,1,0]                  

   Cartesian axes

     site n.     atom                  positions (alat units)
         1        K      tau(   1) = (   0.0000000   0.8770766   0.0000000  )
         2        K      tau(   2) = (   0.5000000   1.7168817   0.0000000  )
         3        Mg     tau(   3) = (  -0.1710407   1.1336907   0.9479482  )
         4        Mg     tau(   4) = (   0.3289593   0.8568649   0.9479482  )
         5        Mg     tau(   5) = (   0.3289593   1.4431476   0.9479482  )
         6        Mg     tau(   6) = (   0.3289593   0.3365003   0.9479482  )
         7        Si     tau(   7) = (   0.0153383   0.2791051   0.4041606  )
         8        Si     tau(   8) = (   0.6425804   0.2791051   1.4917359  )
         9        Si     tau(   9) = (   0.6793433   1.4452276   1.4636366  )
        10        Si     tau(  10) = (  -0.0214245   1.4452276   0.4322598  )
        11        Si     tau(  11) = (   0.4807714   1.1515974   0.4314055  )
        12        Si     tau(  12) = (   0.1771473   1.1515974   1.4644909  )
        13        Al     tau(  13) = (   0.1403586   0.5793340   1.4697011  )
        14        Al     tau(  14) = (   0.5175600   0.5793340   0.4261954  )
        15        O      tau(  15) = (  -0.0060867   0.2518546   0.7190614  )
        16        O      tau(  16) = (   0.6640053   0.2518546   1.1768351  )
        17        O      tau(  17) = (   0.6752576   1.4711312   1.1530713  )
        18        O      tau(  18) = (  -0.0173389   1.4711312   0.7428251  )
        19        O      tau(  19) = (   0.4936237   1.1728525   0.7368423  )
        20        O      tau(  20) = (   0.1642950   1.1728525   1.1590541  )
        21        O      tau(  21) = (   0.1548378   0.5844143   1.1481103  )
        22        O      tau(  22) = (   0.5030810   0.5844143   0.7477861  )
        23        O      tau(  23) = (   0.3025887   0.3385028   0.3206591  )
        24        O      tau(  24) = (   0.3553300   0.3385028   1.5752372  )
        25        O      tau(  25) = (  -0.0538757   1.7262347   0.3029717  )
        26        O      tau(  26) = (   0.7117944   1.7262347   1.5929246  )
        27        O      tau(  27) = (   0.4122577   1.3331803   1.5702914  )
        28        O      tau(  28) = (   0.2456610   1.3331803   0.3256050  )
        29        O      tau(  29) = (   0.7389506   1.2908437   0.3164991  )
        30        O      tau(  30) = (  -0.0810319   1.2908437   1.5793973  )
        31        O      tau(  31) = (   0.4605311   0.8807831   0.2961238  )
        32        O      tau(  32) = (   0.1973875   0.8807831   1.5997725  )
        33        O      tau(  33) = (  -0.1524469   0.4744137   1.5977508  )
        34        O      tau(  34) = (   0.8103656   0.4744137   0.2981456  )
        35        O      tau(  35) = (   0.0192536   0.9181743   0.7107629  )
        36        O      tau(  36) = (   0.6386652   0.9181743   1.1851336  )
        37        O      tau(  37) = (   0.5058364   0.0113467   0.7580720  )
        38        O      tau(  38) = (   0.1520824   0.0113467   1.1378244  )
        39        H      tau(  39) = (  -0.0777899   0.7618795   0.7057584  )
        40        H      tau(  40) = (   0.7357087   0.7618795   1.1901380  )
        41        H      tau(  41) = (   0.4905948   0.0573611   0.5803306  )
        42        H      tau(  42) = (   0.1673239   0.0573611   1.3155658  )
        43        Ti     tau(  43) = (  -0.1710407   0.0427017   0.9479482  )

     --------------------------------------------
     DFT-D3 Dispersion Correction (3-body terms):
     --------------------------------------------
       Reference C6 values for interpolation: 

         atom   Coordination number   C6
         H          0.912             6.05
         H          0.000            15.18
         O          0.000            31.01
         O          0.993            25.63
         O          1.989            20.74
         Mg         0.000          1366.75
         Mg         0.963           902.54
         Mg         1.950           351.12
         Al         0.000          1081.08
         Al         0.965           875.51
         Al         1.931           513.50
         Al         2.915           307.19
         Si         0.000           635.71
         Si         0.951           540.53
         Si         1.944           466.25
         Si         2.941           443.01
         Si         3.868           299.55
         K          0.000          9967.00
         K          0.977           676.04
         Ti         0.000          2723.84
         Ti         1.830           604.00
         Ti         3.868           643.18

       Values used:

         atom   Coordination number  R0_AB[au]  C6      C8
         K         13.431            4.007    676.04 129074.98
         K         14.452            4.007    676.04 129074.98
         Mg        10.532            3.292    351.12  31436.69
         Mg        10.646            3.292    351.12  31436.69
         Mg        11.040            3.292    351.12  31436.69
         Mg        10.180            3.292    351.12  31436.69
         Si         6.562            3.583    299.55  21425.58
         Si         6.562            3.583    299.55  21425.58
         Si         6.602            3.583    299.55  21425.58
         Si         6.602            3.583    299.55  21425.58
         Si         6.854            3.583    299.55  21425.58
         Si         6.854            3.583    299.55  21425.58
         Al         7.289            3.789    307.19  29441.29
         Al         7.289            3.789    307.19  29441.29
         O          2.967            2.345     20.74    418.58
         O          2.967            2.345     20.74    418.58
         O          3.797            2.345     20.74    418.58
         O          3.797            2.345     20.74    418.58
         O          3.896            2.345     20.74    418.58
         O          3.896            2.345     20.74    418.58
         O          3.027            2.345     20.74    418.58
         O          3.027            2.345     20.74    418.58
         O          3.074            2.345     20.74    418.58
         O          3.074            2.345     20.74    418.58
         O          3.227            2.345     20.74    418.58
         O          3.227            2.345     20.74    418.58
         O          3.226            2.345     20.74    418.58
         O          3.226            2.345     20.74    418.58
         O          3.302            2.345     20.74    418.58
         O          3.302            2.345     20.74    418.58
         O          3.277            2.345     20.74    418.58
         O          3.277            2.345     20.74    418.58
         O          3.122            2.345     20.74    418.58
         O          3.122            2.345     20.74    418.58
         O          3.089            2.345     20.74    418.58
         O          3.089            2.345     20.74    418.58
         O          3.908            2.345     20.74    418.58
         O          3.908            2.345     20.74    418.58
         H          1.191            2.062      6.09     73.56
         H          1.191            2.062      6.09     73.56
         H          1.251            2.062      6.07     73.43
         H          1.251            2.062      6.07     73.43
         Ti         9.931            3.557    643.18  76289.64

         Molecular C6 ( Ry / a.u.^6 ) =    158921.32


   Crystallographic axes

     site n.     atom                  positions (cryst. coord.)
         1        K      tau(   1) = (  0.0000000  0.5054305  0.0000000  )
         2        K      tau(   2) = (  0.5000000  0.9893826  0.0000000  )
         3        Mg     tau(   3) = (  0.0000000  0.6533087  0.5000000  )
         4        Mg     tau(   4) = (  0.5000000  0.4937831  0.5000000  )
         5        Mg     tau(   5) = (  0.5000000  0.8316386  0.5000000  )
         6        Mg     tau(   6) = (  0.5000000  0.1939141  0.5000000  )
         7        Si     tau(   7) = (  0.0882620  0.1608391  0.2131765  )
         8        Si     tau(   8) = (  0.9117380  0.1608391  0.7868235  )
         9        Si     tau(   9) = (  0.9434308  0.8328372  0.7720024  )
        10        Si     tau(  10) = (  0.0565692  0.8328372  0.2279976  )
        11        Si     tau(  11) = (  0.5586110  0.6636278  0.2275470  )
        12        Si     tau(  12) = (  0.4413890  0.6636278  0.7724530  )
        13        Al     tau(  13) = (  0.4055405  0.3338512  0.7752011  )
        14        Al     tau(  14) = (  0.5944595  0.3338512  0.2247989  )
        15        O      tau(  15) = (  0.1236553  0.1451356  0.3792725  )
        16        O      tau(  16) = (  0.8763446  0.1451356  0.6207275  )
        17        O      tau(  17) = (  0.8833091  0.8477646  0.6081932  )
        18        O      tau(  18) = (  0.1166909  0.8477646  0.3918068  )
        19        O      tau(  19) = (  0.6265740  0.6758764  0.3886511  )
        20        O      tau(  20) = (  0.3734260  0.6758764  0.6113489  )
        21        O      tau(  21) = (  0.3619942  0.3367788  0.6055765  )
        22        O      tau(  22) = (  0.6380059  0.3367788  0.3944235  )
        23        O      tau(  23) = (  0.3604461  0.1950680  0.1691332  )
        24        O      tau(  24) = (  0.6395540  0.1950680  0.8308667  )
        25        O      tau(  25) = (  0.0007902  0.9947724  0.1598040  )
        26        O      tau(  26) = (  0.9992098  0.9947724  0.8401960  )
        27        O      tau(  27) = (  0.6955893  0.7682680  0.8282580  )
        28        O      tau(  28) = (  0.3044107  0.7682680  0.1717420  )
        29        O      tau(  29) = (  0.7960573  0.7438709  0.1669390  )
        30        O      tau(  30) = (  0.2039427  0.7438709  0.8330610  )
        31        O      tau(  31) = (  0.5139615  0.5075664  0.1561920  )
        32        O      tau(  32) = (  0.4860384  0.5075664  0.8438080  )
        33        O      tau(  33) = (  0.1358393  0.2733890  0.8427416  )
        34        O      tau(  34) = (  0.8641607  0.2733890  0.1572584  )
        35        O      tau(  35) = (  0.1474983  0.5291137  0.3748954  )
        36        O      tau(  36) = (  0.8525017  0.5291137  0.6251046  )
        37        O      tau(  37) = (  0.6426172  0.0065387  0.3998488  )
        38        O      tau(  38) = (  0.3573828  0.0065387  0.6001511  )
        39        H      tau(  39) = (  0.0495518  0.4390461  0.3722558  )
        40        H      tau(  40) = (  0.9504482  0.4390461  0.6277442  )
        41        H      tau(  41) = (  0.5953053  0.0330553  0.3060983  )
        42        H      tau(  42) = (  0.4046947  0.0330553  0.6939017  )
        43        Ti     tau(  43) = (  0.0000000  0.0246076  0.5000000  )

     number of k points=    20  Gaussian smearing, width (Ry)=  0.0010
                       cart. coord. in units 2pi/alat
        k(    1) = (   0.0000000   0.0000000   0.0000000), wk =   0.0185185
        k(    2) = (   0.0000000   0.0000000   0.1758183), wk =   0.0370370
        k(    3) = (   0.0000000   0.1920891   0.0000000), wk =   0.0370370
        k(    4) = (   0.0000000   0.1920891   0.1758183), wk =   0.0740741
        k(    5) = (   0.1666667   0.0000000   0.0300721), wk =   0.0370370
        k(    6) = (   0.1666667   0.0000000   0.2058904), wk =   0.0370370
        k(    7) = (   0.1666667   0.0000000  -0.1457462), wk =   0.0370370
        k(    8) = (   0.1666667   0.1920891   0.0300721), wk =   0.0740741
        k(    9) = (   0.1666667   0.1920891   0.2058904), wk =   0.0740741
        k(   10) = (   0.1666667   0.1920891  -0.1457462), wk =   0.0740741
        k(   11) = (   0.3333333   0.0000000   0.0601442), wk =   0.0370370
        k(   12) = (   0.3333333   0.0000000   0.2359625), wk =   0.0370370
        k(   13) = (   0.3333333   0.0000000  -0.1156742), wk =   0.0370370
        k(   14) = (   0.3333333   0.1920891   0.0601442), wk =   0.0740741
        k(   15) = (   0.3333333   0.1920891   0.2359625), wk =   0.0740741
        k(   16) = (   0.3333333   0.1920891  -0.1156742), wk =   0.0740741
        k(   17) = (  -0.5000000   0.0000000  -0.0902162), wk =   0.0185185
        k(   18) = (  -0.5000000   0.0000000   0.0856021), wk =   0.0370370
        k(   19) = (  -0.5000000   0.1920891  -0.0902162), wk =   0.0370370
        k(   20) = (  -0.5000000   0.1920891   0.0856021), wk =   0.0740741

                       cryst. coord.
        k(    1) = (   0.0000000   0.0000000   0.0000000), wk =   0.0185185
        k(    2) = (   0.0000000   0.0000000   0.3333333), wk =   0.0370370
        k(    3) = (   0.0000000   0.3333333   0.0000000), wk =   0.0370370
        k(    4) = (   0.0000000   0.3333333   0.3333333), wk =   0.0740741
        k(    5) = (   0.1666667   0.0000000  -0.0000000), wk =   0.0370370
        k(    6) = (   0.1666667   0.0000000   0.3333333), wk =   0.0370370
        k(    7) = (   0.1666667   0.0000000  -0.3333333), wk =   0.0370370
        k(    8) = (   0.1666667   0.3333333  -0.0000000), wk =   0.0740741
        k(    9) = (   0.1666667   0.3333333   0.3333333), wk =   0.0740741
        k(   10) = (   0.1666667   0.3333333  -0.3333333), wk =   0.0740741
        k(   11) = (   0.3333333   0.0000000  -0.0000000), wk =   0.0370370
        k(   12) = (   0.3333333   0.0000000   0.3333333), wk =   0.0370370
        k(   13) = (   0.3333333   0.0000000  -0.3333333), wk =   0.0370370
        k(   14) = (   0.3333333   0.3333333  -0.0000000), wk =   0.0740741
        k(   15) = (   0.3333333   0.3333333   0.3333333), wk =   0.0740741
        k(   16) = (   0.3333333   0.3333333  -0.3333333), wk =   0.0740741
        k(   17) = (  -0.5000000   0.0000000   0.0000000), wk =   0.0185185
        k(   18) = (  -0.5000000   0.0000000   0.3333333), wk =   0.0370370
        k(   19) = (  -0.5000000   0.3333333   0.0000000), wk =   0.0370370
        k(   20) = (  -0.5000000   0.3333333   0.3333333), wk =   0.0740741

     Dense  grid:   586467 G-vectors     FFT dimensions: (  72, 125, 135)

     Smooth grid:   207475 G-vectors     FFT dimensions: (  50,  90,  96)

     Dynamical RAM for                 wfc:       9.82 MB

     Dynamical RAM for     wfc (w. buffer):     402.79 MB

     Dynamical RAM for           str. fact:      10.44 MB

     Dynamical RAM for           local pot:       0.00 MB

     Dynamical RAM for          nlocal pot:      28.35 MB

     Dynamical RAM for                qrad:      24.61 MB

     Dynamical RAM for          rho,v,vnew:      18.42 MB

     Dynamical RAM for               rhoin:       6.14 MB

     Dynamical RAM for            rho*nmix:      47.73 MB

     Dynamical RAM for           G-vectors:       5.86 MB

     Dynamical RAM for          h,s,v(r/c):       4.07 MB

     Dynamical RAM for          <psi|beta>:       0.98 MB

     Dynamical RAM for                 psi:      19.65 MB

     Dynamical RAM for                hpsi:      19.65 MB

     Dynamical RAM for                spsi:      19.65 MB

     Dynamical RAM for      wfcinit/wfcrot:      24.20 MB

     Dynamical RAM for           addusdens:     314.70 MB

     Dynamical RAM for          addusforce:     383.50 MB

     Dynamical RAM for         addusstress:     302.02 MB

     Estimated static dynamical RAM per process >     518.02 MB

     Estimated max dynamical RAM per process >     949.24 MB

     Estimated total dynamical RAM >       5.56 GB

     Check: negative core charge=   -0.000004
     Generating pointlists ...
     new r_m :   0.1328 (alat units)  1.3299 (a.u.) for type    1
     new r_m :   0.1449 (alat units)  1.4507 (a.u.) for type    2
     new r_m :   0.0759 (alat units)  0.7602 (a.u.) for type    3
     new r_m :   0.2140 (alat units)  2.1431 (a.u.) for type    4
     new r_m :   0.1498 (alat units)  1.4998 (a.u.) for type    5
     new r_m :   0.0759 (alat units)  0.7602 (a.u.) for type    6
     new r_m :   0.1247 (alat units)  1.2488 (a.u.) for type    7

     Initial potential from superposition of free atoms

     starting charge     247.9492, renormalised to     248.0000
     Starting wfcs are  178 randomized atomic wfcs
     Checking if some PAW data can be deallocated... 
       PAW data deallocated on    5 nodes for type:  1
       PAW data deallocated on    5 nodes for type:  2
       PAW data deallocated on    5 nodes for type:  3
       PAW data deallocated on    5 nodes for type:  4
       PAW data deallocated on    5 nodes for type:  5
       PAW data deallocated on    1 nodes for type:  6
       PAW data deallocated on    4 nodes for type:  7

     total cpu time spent up to now is      159.9 secs

     Self-consistent Calculation

     iteration #  1     ecut=    60.00 Ry     beta= 0.70
     Davidson diagonalization with overlap

---- Real-time Memory Report at c_bands before calling an iterative solver
           584 MiB given to the printing process from OS
             0 MiB allocation reported by mallinfo(arena+hblkhd)
          7815 MiB available memory on the node where the printing process lives
------------------
     ethr =  1.00E-02,  avg # of iterations =  5.0

     total cpu time spent up to now is      615.3 secs

     total energy              =   -2336.04183075 Ry
     estimated scf accuracy    <      13.37366710 Ry

     total magnetization       =     0.00 Bohr mag/cell
     absolute magnetization    =     0.49 Bohr mag/cell

     iteration #  2     ecut=    60.00 Ry     beta= 0.70
     Davidson diagonalization with overlap

---- Real-time Memory Report at c_bands before calling an iterative solver
           881 MiB given to the printing process from OS
             0 MiB allocation reported by mallinfo(arena+hblkhd)
          6708 MiB available memory on the node where the printing process lives
------------------
     ethr =  5.39E-03,  avg # of iterations =  7.9

     total cpu time spent up to now is     1323.6 secs

     total energy              =   -2327.64317590 Ry
     estimated scf accuracy    <      83.95387260 Ry

     total magnetization       =     0.02 Bohr mag/cell
     absolute magnetization    =     0.66 Bohr mag/cell

     iteration #  3     ecut=    60.00 Ry     beta= 0.70
     Davidson diagonalization with overlap

---- Real-time Memory Report at c_bands before calling an iterative solver
           883 MiB given to the printing process from OS
             0 MiB allocation reported by mallinfo(arena+hblkhd)
          6720 MiB available memory on the node where the printing process lives
------------------
     ethr =  5.39E-03,  avg # of iterations =  7.1

     total cpu time spent up to now is     1787.4 secs

     total energy              =   -2341.46344425 Ry
     estimated scf accuracy    <      17.36472044 Ry

     total magnetization       =    -0.00 Bohr mag/cell
     absolute magnetization    =     0.45 Bohr mag/cell

     iteration #  4     ecut=    60.00 Ry     beta= 0.70
     Davidson diagonalization with overlap

---- Real-time Memory Report at c_bands before calling an iterative solver
           886 MiB given to the printing process from OS
             0 MiB allocation reported by mallinfo(arena+hblkhd)
          6714 MiB available memory on the node where the printing process lives
------------------
     ethr =  5.39E-03,  avg # of iterations =  2.0

     total cpu time spent up to now is     2183.3 secs

     total energy              =   -2343.47222535 Ry
     estimated scf accuracy    <       2.88304737 Ry

     total magnetization       =    -0.00 Bohr mag/cell
     absolute magnetization    =     0.34 Bohr mag/cell

     iteration #  5     ecut=    60.00 Ry     beta= 0.70
     Davidson diagonalization with overlap

---- Real-time Memory Report at c_bands before calling an iterative solver
           888 MiB given to the printing process from OS
             0 MiB allocation reported by mallinfo(arena+hblkhd)
          6721 MiB available memory on the node where the printing process lives
------------------
     ethr =  1.16E-03,  avg # of iterations =  9.2

     total cpu time spent up to now is     2780.8 secs

     total energy              =   -2344.18847847 Ry
     estimated scf accuracy    <       1.30050297 Ry

     total magnetization       =     0.00 Bohr mag/cell
     absolute magnetization    =     0.24 Bohr mag/cell

     iteration #  6     ecut=    60.00 Ry     beta= 0.70
     Davidson diagonalization with overlap

---- Real-time Memory Report at c_bands before calling an iterative solver
           890 MiB given to the printing process from OS
             0 MiB allocation reported by mallinfo(arena+hblkhd)
          6770 MiB available memory on the node where the printing process lives
------------------
     ethr =  5.24E-04,  avg # of iterations =  9.7

     total cpu time spent up to now is     3278.8 secs

     total energy              =   -2344.15338967 Ry
     estimated scf accuracy    <       0.70092646 Ry

     total magnetization       =    -0.00 Bohr mag/cell
     absolute magnetization    =     0.17 Bohr mag/cell

     iteration #  7     ecut=    60.00 Ry     beta= 0.70
     Davidson diagonalization with overlap

---- Real-time Memory Report at c_bands before calling an iterative solver
           893 MiB given to the printing process from OS
             0 MiB allocation reported by mallinfo(arena+hblkhd)
          6574 MiB available memory on the node where the printing process lives
------------------
     ethr =  2.83E-04,  avg # of iterations = 10.8

     total cpu time spent up to now is     3826.2 secs

     total energy              =   -2344.21718014 Ry
     estimated scf accuracy    <       0.17686872 Ry

     total magnetization       =     0.00 Bohr mag/cell
     absolute magnetization    =     0.13 Bohr mag/cell

     iteration #  8     ecut=    60.00 Ry     beta= 0.70
     Davidson diagonalization with overlap

---- Real-time Memory Report at c_bands before calling an iterative solver
           895 MiB given to the printing process from OS
             0 MiB allocation reported by mallinfo(arena+hblkhd)
          6650 MiB available memory on the node where the printing process lives
------------------
     c_bands:  1 eigenvalues not converged
     ethr =  7.13E-05,  avg # of iterations =  8.6

     total cpu time spent up to now is     4357.7 secs

     total energy              =   -2344.21376737 Ry
     estimated scf accuracy    <       0.07099163 Ry

     total magnetization       =    -0.00 Bohr mag/cell
     absolute magnetization    =     0.08 Bohr mag/cell

     iteration #  9     ecut=    60.00 Ry     beta= 0.70
     Davidson diagonalization with overlap

---- Real-time Memory Report at c_bands before calling an iterative solver
           897 MiB given to the printing process from OS
             0 MiB allocation reported by mallinfo(arena+hblkhd)
          6569 MiB available memory on the node where the printing process lives
------------------
     c_bands:  2 eigenvalues not converged
     c_bands:  1 eigenvalues not converged
     c_bands:  4 eigenvalues not converged
     c_bands:  1 eigenvalues not converged
     c_bands:  1 eigenvalues not converged
     c_bands:  1 eigenvalues not converged
     ethr =  2.86E-05,  avg # of iterations = 14.7

     total cpu time spent up to now is     5016.2 secs

     total energy              =   -2344.23233662 Ry
     estimated scf accuracy    <       0.01788405 Ry

     total magnetization       =    -0.00 Bohr mag/cell
     absolute magnetization    =     0.04 Bohr mag/cell

     iteration # 10     ecut=    60.00 Ry     beta= 0.70
     Davidson diagonalization with overlap

---- Real-time Memory Report at c_bands before calling an iterative solver
           900 MiB given to the printing process from OS
             0 MiB allocation reported by mallinfo(arena+hblkhd)
          6620 MiB available memory on the node where the printing process lives
------------------
     c_bands:  1 eigenvalues not converged
     c_bands:  1 eigenvalues not converged
     c_bands:  1 eigenvalues not converged
     c_bands:  1 eigenvalues not converged
     c_bands:  1 eigenvalues not converged
     c_bands:  1 eigenvalues not converged
     c_bands:  1 eigenvalues not converged
     c_bands:  1 eigenvalues not converged
     ethr =  7.21E-06,  avg # of iterations = 12.8

     total cpu time spent up to now is     5594.4 secs

     total energy              =   -2344.23494387 Ry
     estimated scf accuracy    <       0.01182861 Ry

     total magnetization       =     0.00 Bohr mag/cell
     absolute magnetization    =     0.03 Bohr mag/cell

     iteration # 11     ecut=    60.00 Ry     beta= 0.70
     Davidson diagonalization with overlap

---- Real-time Memory Report at c_bands before calling an iterative solver
           900 MiB given to the printing process from OS
             0 MiB allocation reported by mallinfo(arena+hblkhd)
          6351 MiB available memory on the node where the printing process lives
------------------
     c_bands:  1 eigenvalues not converged
     ethr =  4.77E-06,  avg # of iterations =  6.3

     total cpu time spent up to now is     6114.5 secs

     total energy              =   -2344.23159746 Ry
     estimated scf accuracy    <       0.01303000 Ry

     total magnetization       =    -0.00 Bohr mag/cell
     absolute magnetization    =     0.02 Bohr mag/cell

     iteration # 12     ecut=    60.00 Ry     beta= 0.70
     Davidson diagonalization with overlap

---- Real-time Memory Report at c_bands before calling an iterative solver
           900 MiB given to the printing process from OS
             0 MiB allocation reported by mallinfo(arena+hblkhd)
          6694 MiB available memory on the node where the printing process lives
------------------
     c_bands:  1 eigenvalues not converged
     c_bands:  1 eigenvalues not converged
     c_bands:  1 eigenvalues not converged
     c_bands:  1 eigenvalues not converged
     c_bands:  2 eigenvalues not converged
     ethr =  4.77E-06,  avg # of iterations =  8.9

     total cpu time spent up to now is     6579.2 secs

     total energy              =   -2344.23298933 Ry
     estimated scf accuracy    <       0.00116284 Ry

     total magnetization       =     0.00 Bohr mag/cell
     absolute magnetization    =     0.01 Bohr mag/cell

     iteration # 13     ecut=    60.00 Ry     beta= 0.70
     Davidson diagonalization with overlap

---- Real-time Memory Report at c_bands before calling an iterative solver
           900 MiB given to the printing process from OS
             0 MiB allocation reported by mallinfo(arena+hblkhd)
          6720 MiB available memory on the node where the printing process lives
------------------
     c_bands:  1 eigenvalues not converged
     c_bands:  1 eigenvalues not converged
     c_bands:  1 eigenvalues not converged
     c_bands:  1 eigenvalues not converged
     c_bands:  1 eigenvalues not converged
     c_bands:  1 eigenvalues not converged
     c_bands:  2 eigenvalues not converged
     c_bands:  1 eigenvalues not converged
     c_bands:  1 eigenvalues not converged
     c_bands:  2 eigenvalues not converged
     c_bands:  1 eigenvalues not converged
     c_bands:  1 eigenvalues not converged
     ethr =  4.69E-07,  avg # of iterations = 15.3

     total cpu time spent up to now is     7509.5 secs

     total energy              =   -2344.23420220 Ry
     estimated scf accuracy    <       0.00063986 Ry

     total magnetization       =    -0.00 Bohr mag/cell
     absolute magnetization    =     0.01 Bohr mag/cell

     iteration # 14     ecut=    60.00 Ry     beta= 0.70
     Davidson diagonalization with overlap

---- Real-time Memory Report at c_bands before calling an iterative solver
           900 MiB given to the printing process from OS
             0 MiB allocation reported by mallinfo(arena+hblkhd)
          6599 MiB available memory on the node where the printing process lives
------------------
     c_bands:  2 eigenvalues not converged
     ethr =  2.58E-07,  avg # of iterations =  2.7

     total cpu time spent up to now is     7888.9 secs

     total energy              =   -2344.23407358 Ry
     estimated scf accuracy    <       0.00029921 Ry

     total magnetization       =     0.00 Bohr mag/cell
     absolute magnetization    =     0.01 Bohr mag/cell

     iteration # 15     ecut=    60.00 Ry     beta= 0.70
     Davidson diagonalization with overlap

---- Real-time Memory Report at c_bands before calling an iterative solver
           900 MiB given to the printing process from OS
             0 MiB allocation reported by mallinfo(arena+hblkhd)
          6577 MiB available memory on the node where the printing process lives
------------------
     ethr =  1.21E-07,  avg # of iterations =  4.7

     total cpu time spent up to now is     8477.2 secs

     total energy              =   -2344.23420921 Ry
     estimated scf accuracy    <       0.00005510 Ry

     total magnetization       =    -0.00 Bohr mag/cell
     absolute magnetization    =     0.00 Bohr mag/cell

     iteration # 16     ecut=    60.00 Ry     beta= 0.70
     Davidson diagonalization with overlap

---- Real-time Memory Report at c_bands before calling an iterative solver
           900 MiB given to the printing process from OS
             0 MiB allocation reported by mallinfo(arena+hblkhd)
          6715 MiB available memory on the node where the printing process lives
------------------
     ethr =  2.22E-08,  avg # of iterations =  5.4

     total cpu time spent up to now is     9010.3 secs

     total energy              =   -2344.23420969 Ry
     estimated scf accuracy    <       0.00006174 Ry

     total magnetization       =    -0.00 Bohr mag/cell
     absolute magnetization    =     0.00 Bohr mag/cell

     iteration # 17     ecut=    60.00 Ry     beta= 0.70
     Davidson diagonalization with overlap

---- Real-time Memory Report at c_bands before calling an iterative solver
           900 MiB given to the printing process from OS
             0 MiB allocation reported by mallinfo(arena+hblkhd)
          6892 MiB available memory on the node where the printing process lives
------------------
     ethr =  2.22E-08,  avg # of iterations =  1.9

     total cpu time spent up to now is     9382.8 secs

     total energy              =   -2344.23420435 Ry
     estimated scf accuracy    <       0.00001719 Ry

     total magnetization       =    -0.00 Bohr mag/cell
     absolute magnetization    =     0.00 Bohr mag/cell

     iteration # 18     ecut=    60.00 Ry     beta= 0.70
     Davidson diagonalization with overlap

---- Real-time Memory Report at c_bands before calling an iterative solver
           900 MiB given to the printing process from OS
             0 MiB allocation reported by mallinfo(arena+hblkhd)
          6608 MiB available memory on the node where the printing process lives
------------------
     ethr =  6.93E-09,  avg # of iterations =  4.7

     total cpu time spent up to now is    10018.0 secs

     total energy              =   -2344.23421518 Ry
     estimated scf accuracy    <       0.00000546 Ry

     total magnetization       =     0.00 Bohr mag/cell
     absolute magnetization    =     0.00 Bohr mag/cell

     iteration # 19     ecut=    60.00 Ry     beta= 0.70
     Davidson diagonalization with overlap

---- Real-time Memory Report at c_bands before calling an iterative solver
           900 MiB given to the printing process from OS
             0 MiB allocation reported by mallinfo(arena+hblkhd)
          6724 MiB available memory on the node where the printing process lives
------------------
     ethr =  2.20E-09,  avg # of iterations =  2.2

     total cpu time spent up to now is    10401.2 secs

     total energy              =   -2344.23421490 Ry
     estimated scf accuracy    <       0.00000171 Ry

     total magnetization       =    -0.00 Bohr mag/cell
     absolute magnetization    =     0.00 Bohr mag/cell

     iteration # 20     ecut=    60.00 Ry     beta= 0.70
     Davidson diagonalization with overlap

---- Real-time Memory Report at c_bands before calling an iterative solver
           900 MiB given to the printing process from OS
             0 MiB allocation reported by mallinfo(arena+hblkhd)
          6761 MiB available memory on the node where the printing process lives
------------------
     ethr =  6.89E-10,  avg # of iterations =  6.0

     Magnetic moment per site  (integrated on atomic sphere of radius R)
     atom   1 (R=0.214)  charge=  7.5163  magn=  0.0000
     atom   2 (R=0.214)  charge=  7.5288  magn=  0.0000
     atom   3 (R=0.150)  charge=  8.0243  magn=  0.0000
     atom   4 (R=0.150)  charge=  8.0221  magn= -0.0000
     atom   5 (R=0.150)  charge=  8.0147  magn=  0.0000
     atom   6 (R=0.150)  charge=  8.0307  magn= -0.0000
     atom   7 (R=0.125)  charge=  0.5297  magn=  0.0000
     atom   8 (R=0.125)  charge=  0.5297  magn=  0.0000
     atom   9 (R=0.125)  charge=  0.5203  magn=  0.0000
     atom  10 (R=0.125)  charge=  0.5203  magn=  0.0000
     atom  11 (R=0.125)  charge=  0.5212  magn=  0.0000
     atom  12 (R=0.125)  charge=  0.5212  magn=  0.0000
     atom  13 (R=0.133)  charge=  0.3139  magn= -0.0000
     atom  14 (R=0.133)  charge=  0.3139  magn= -0.0000
     atom  15 (R=0.076)  charge=  1.9776  magn=  0.0000
     atom  16 (R=0.076)  charge=  1.9776  magn=  0.0000
     atom  17 (R=0.076)  charge=  1.9749  magn= -0.0000
     atom  18 (R=0.076)  charge=  1.9749  magn= -0.0000
     atom  19 (R=0.076)  charge=  1.9796  magn= -0.0000
     atom  20 (R=0.076)  charge=  1.9796  magn= -0.0000
     atom  21 (R=0.076)  charge=  1.9715  magn=  0.0000
     atom  22 (R=0.076)  charge=  1.9715  magn=  0.0000
     atom  23 (R=0.076)  charge=  1.9819  magn= -0.0000
     atom  24 (R=0.076)  charge=  1.9819  magn= -0.0000
     atom  25 (R=0.076)  charge=  1.9901  magn= -0.0000
     atom  26 (R=0.076)  charge=  1.9901  magn= -0.0000
     atom  27 (R=0.076)  charge=  1.9897  magn= -0.0000
     atom  28 (R=0.076)  charge=  1.9897  magn= -0.0000
     atom  29 (R=0.076)  charge=  1.9913  magn= -0.0000
     atom  30 (R=0.076)  charge=  1.9913  magn= -0.0000
     atom  31 (R=0.076)  charge=  1.9853  magn= -0.0000
     atom  32 (R=0.076)  charge=  1.9853  magn= -0.0000
     atom  33 (R=0.076)  charge=  1.9826  magn= -0.0000
     atom  34 (R=0.076)  charge=  1.9826  magn= -0.0000
     atom  35 (R=0.076)  charge=  1.9710  magn=  0.0000
     atom  36 (R=0.076)  charge=  1.9710  magn=  0.0000
     atom  37 (R=0.076)  charge=  1.9794  magn=  0.0000
     atom  38 (R=0.076)  charge=  1.9794  magn=  0.0000
     atom  39 (R=0.076)  charge=  0.4023  magn= -0.0000
     atom  40 (R=0.076)  charge=  0.4023  magn= -0.0000
     atom  41 (R=0.076)  charge=  0.3920  magn= -0.0000
     atom  42 (R=0.076)  charge=  0.3920  magn= -0.0000
     atom  43 (R=0.145)  charge=  8.2235  magn= -0.0000

     total cpu time spent up to now is    11059.9 secs

     End of self-consistent calculation

 ------ SPIN UP ------------


          k = 0.0000 0.0000 0.0000 ( 25927 PWs)   bands (ev):

   -68.5508 -67.7088 -67.4450 -66.6945 -53.0194 -35.3211 -35.2950 -35.2879
   -34.5039 -34.4503 -34.4238 -34.2111 -34.2087 -34.1661 -33.4704 -33.4482
   -33.4173 -29.3387 -29.2573 -29.2541 -23.3326 -22.9712 -15.4425 -15.3545
   -14.8040 -14.5790 -14.5412 -14.2971 -13.8368 -13.8130 -13.7076 -13.7041
   -13.6352 -13.3507 -13.1935 -13.1456 -13.0191 -12.9163 -12.7283 -12.7229
   -12.6820 -12.5676 -11.8256 -11.6936 -10.6112 -10.3874  -6.9040  -6.8401
    -6.8106  -6.4954  -6.4681  -6.4549  -4.6346  -4.5888  -3.0298  -2.8012
    -2.7467  -2.0192  -1.8315  -1.3892  -1.3645  -1.2825  -1.1697  -1.1079
    -1.0039  -0.7597  -0.5718  -0.5365  -0.3256  -0.1755  -0.1452  -0.1273
     0.0901   0.2428   0.4619   0.4985   0.6839   0.6925   0.7617   0.8097
     0.9026   1.1358   1.2045   1.2950   1.4015   1.4924   1.6594   1.6802
     1.7450   1.7984   1.8344   1.9564   1.9777   2.1038   2.2328   2.2689
     2.2833   2.3039   2.3867   2.4072   2.4146   2.4498   2.6786   2.7393
     2.7927   2.8099   3.0124   3.1098   3.1500   3.1606   3.2577   3.2651
     3.3387   3.5693   3.6257   3.8375   4.0309   4.0854   4.1585   4.4181
     4.6947   4.8469   4.9351   5.1143   6.6508   6.8171   7.1264   8.9402
     9.0611   9.2108  10.5669  11.3052  11.4879  11.9385  11.9479  12.1489
    12.4429  12.5369  12.7424  12.8851  12.9015  13.0487  13.0551  13.1678
    13.3642  13.5566  13.6866  13.7966  13.9681

     occupation numbers 
     1.0000   1.0000   1.0000   1.0000   1.0000   1.0000   1.0000   1.0000
     1.0000   1.0000   1.0000   1.0000   1.0000   1.0000   1.0000   1.0000
     1.0000   1.0000   1.0000   1.0000   1.0000   1.0000   1.0000   1.0000
     1.0000   1.0000   1.0000   1.0000   1.0000   1.0000   1.0000   1.0000
     1.0000   1.0000   1.0000   1.0000   1.0000   1.0000   1.0000   1.0000
     1.0000   1.0000   1.0000   1.0000   1.0000   1.0000   1.0000   1.0000
     1.0000   1.0000   1.0000   1.0000   1.0000   1.0000   1.0000   1.0000
     1.0000   1.0000   1.0000   1.0000   1.0000   1.0000   1.0000   1.0000
     1.0000   1.0000   1.0000   1.0000   1.0000   1.0000   1.0000   1.0000
     1.0000   1.0000   1.0000   1.0000   1.0000   1.0000   1.0000   1.0000
     1.0000   1.0000   1.0000   1.0000   1.0000   1.0000   1.0000   1.0000
     1.0000   1.0000   1.0000   1.0000   1.0000   1.0000   1.0000   1.0000
     1.0000   1.0000   1.0000   1.0000   1.0000   1.0000   1.0000   1.0000
     1.0000   1.0000   1.0000   1.0000   1.0000   1.0000   1.0000   1.0000
     1.0000   1.0000   1.0000   1.0000   1.0000   1.0000   1.0000   1.0000
     1.0000   1.0000   1.0000   1.0000   0.0000   0.0000   0.0000   0.0000
     0.0000   0.0000   0.0000   0.0000   0.0000   0.0000   0.0000   0.0000
     0.0000   0.0000   0.0000   0.0000   0.0000   0.0000   0.0000   0.0000
     0.0000   0.0000   0.0000   0.0000   0.0000

          k = 0.0000 0.0000 0.1758 ( 25971 PWs)   bands (ev):

   -68.5508 -67.7088 -67.4450 -66.6945 -53.0194 -35.3211 -35.2950 -35.2880
   -34.5039 -34.4503 -34.4238 -34.2111 -34.2088 -34.1661 -33.4704 -33.4483
   -33.4174 -29.3387 -29.2573 -29.2541 -23.3326 -22.9712 -15.4280 -15.3716
   -14.7971 -14.6027 -14.5210 -14.2991 -13.8371 -13.8127 -13.7240 -13.6872
   -13.6282 -13.3579 -13.1821 -13.1582 -13.0082 -12.9330 -12.7358 -12.7079
   -12.6679 -12.5814 -11.8255 -11.6937 -10.6107 -10.3880  -6.9042  -6.8401
    -6.8106  -6.4954  -6.4682  -6.4549  -4.6399  -4.5837  -3.0194  -2.7981
    -2.7510  -2.0240  -1.7863  -1.4242  -1.3580  -1.2962  -1.1543  -1.1241
    -0.9635  -0.8784  -0.5733  -0.5525  -0.3045  -0.1872  -0.1401  -0.0793
     0.0889   0.2317   0.4390   0.5630   0.6642   0.6961   0.7732   0.7772
     0.8818   1.1328   1.2631   1.3643   1.4742   1.5233   1.5551   1.7345
     1.7592   1.8025   1.8845   1.9360   1.9765   2.0185   2.1190   2.2471
     2.3006   2.3172   2.3432   2.3890   2.4088   2.5120   2.6340   2.6956
     2.8345   2.8779   2.9617   3.0702   3.1941   3.2138   3.2590   3.3230
     3.3461   3.5729   3.5979   3.7663   4.0592   4.1024   4.1659   4.3830
     4.7035   4.8268   4.9286   5.1173   6.6527   6.8149   7.1289   9.0273
     9.0761   9.4018  10.0813  11.3346  11.5734  11.7989  11.9648  12.1831
    12.5117  12.6043  12.8210  12.8847  12.9698  13.0822  13.1488  13.1920
    13.3351  13.5926  13.6716  13.8369  13.8820

     occupation numbers 
     1.0000   1.0000   1.0000   1.0000   1.0000   1.0000   1.0000   1.0000
     1.0000   1.0000   1.0000   1.0000   1.0000   1.0000   1.0000   1.0000
     1.0000   1.0000   1.0000   1.0000   1.0000   1.0000   1.0000   1.0000
     1.0000   1.0000   1.0000   1.0000   1.0000   1.0000   1.0000   1.0000
     1.0000   1.0000   1.0000   1.0000   1.0000   1.0000   1.0000   1.0000
     1.0000   1.0000   1.0000   1.0000   1.0000   1.0000   1.0000   1.0000
     1.0000   1.0000   1.0000   1.0000   1.0000   1.0000   1.0000   1.0000
     1.0000   1.0000   1.0000   1.0000   1.0000   1.0000   1.0000   1.0000
     1.0000   1.0000   1.0000   1.0000   1.0000   1.0000   1.0000   1.0000
     1.0000   1.0000   1.0000   1.0000   1.0000   1.0000   1.0000   1.0000
     1.0000   1.0000   1.0000   1.0000   1.0000   1.0000   1.0000   1.0000
     1.0000   1.0000   1.0000   1.0000   1.0000   1.0000   1.0000   1.0000
     1.0000   1.0000   1.0000   1.0000   1.0000   1.0000   1.0000   1.0000
     1.0000   1.0000   1.0000   1.0000   1.0000   1.0000   1.0000   1.0000
     1.0000   1.0000   1.0000   1.0000   1.0000   1.0000   1.0000   1.0000
     1.0000   1.0000   1.0000   1.0000   0.0000   0.0000   0.0000   0.0000
     0.0000   0.0000   0.0000   0.0000   0.0000   0.0000   0.0000   0.0000
     0.0000   0.0000   0.0000   0.0000   0.0000   0.0000   0.0000   0.0000
     0.0000   0.0000   0.0000   0.0000   0.0000

          k = 0.0000 0.1921 0.0000 ( 25933 PWs)   bands (ev):

   -68.5508 -67.7088 -67.4450 -66.6945 -53.0194 -35.3211 -35.2950 -35.2880
   -34.5039 -34.4503 -34.4238 -34.2111 -34.2087 -34.1661 -33.4704 -33.4483
   -33.4173 -29.3387 -29.2573 -29.2541 -23.3326 -22.9712 -15.4377 -15.3496
   -14.8121 -14.5991 -14.5541 -14.2976 -13.8374 -13.8136 -13.6679 -13.6597
   -13.6305 -13.3590 -13.1905 -13.1441 -13.0678 -12.9338 -12.7307 -12.7227
   -12.6715 -12.5654 -11.8244 -11.6938 -10.6106 -10.3869  -6.9040  -6.8401
    -6.8104  -6.4952  -6.4685  -6.4551  -4.5947  -4.5484  -3.0425  -2.9138
    -2.8680  -2.0214  -1.7832  -1.3425  -1.3350  -1.2606  -1.1595  -1.0138
    -0.9722  -0.7944  -0.5848  -0.5539  -0.4537  -0.2051  -0.1083  -0.0388
     0.0467   0.2450   0.4445   0.4825   0.6313   0.6932   0.7491   0.7563
     1.0118   1.1805   1.3311   1.3551   1.4423   1.5290   1.6467   1.6864
     1.7522   1.8040   1.8258   1.9913   2.0156   2.0690   2.1742   2.1948
     2.2264   2.2722   2.3634   2.4209   2.4678   2.5059   2.6561   2.7647
     2.7750   2.7945   2.9697   3.0899   3.1718   3.2084   3.2621   3.3089
     3.3396   3.4886   3.5478   3.8311   3.9989   4.0503   4.1620   4.3878
     4.6651   4.8577   4.9334   5.1107   6.6514   6.8184   7.1293   9.0370
     9.0524   9.4833  10.4733  10.7365  11.6286  11.7561  12.2028  12.3643
    12.4092  12.5298  12.8130  12.9236  12.9546  13.0198  13.0981  13.2426
    13.4734  13.4762  13.5610  13.6902  13.8368

     occupation numbers 
     1.0000   1.0000   1.0000   1.0000   1.0000   1.0000   1.0000   1.0000
     1.0000   1.0000   1.0000   1.0000   1.0000   1.0000   1.0000   1.0000
     1.0000   1.0000   1.0000   1.0000   1.0000   1.0000   1.0000   1.0000
     1.0000   1.0000   1.0000   1.0000   1.0000   1.0000   1.0000   1.0000
     1.0000   1.0000   1.0000   1.0000   1.0000   1.0000   1.0000   1.0000
     1.0000   1.0000   1.0000   1.0000   1.0000   1.0000   1.0000   1.0000
     1.0000   1.0000   1.0000   1.0000   1.0000   1.0000   1.0000   1.0000
     1.0000   1.0000   1.0000   1.0000   1.0000   1.0000   1.0000   1.0000
     1.0000   1.0000   1.0000   1.0000   1.0000   1.0000   1.0000   1.0000
     1.0000   1.0000   1.0000   1.0000   1.0000   1.0000   1.0000   1.0000
     1.0000   1.0000   1.0000   1.0000   1.0000   1.0000   1.0000   1.0000
     1.0000   1.0000   1.0000   1.0000   1.0000   1.0000   1.0000   1.0000
     1.0000   1.0000   1.0000   1.0000   1.0000   1.0000   1.0000   1.0000
     1.0000   1.0000   1.0000   1.0000   1.0000   1.0000   1.0000   1.0000
     1.0000   1.0000   1.0000   1.0000   1.0000   1.0000   1.0000   1.0000
     1.0000   1.0000   1.0000   1.0000   0.0000   0.0000   0.0000   0.0000
     0.0000   0.0000   0.0000   0.0000   0.0000   0.0000   0.0000   0.0000
     0.0000   0.0000   0.0000   0.0000   0.0000   0.0000   0.0000   0.0000
     0.0000   0.0000   0.0000   0.0000   0.0000

          k = 0.0000 0.1921 0.1758 ( 25924 PWs)   bands (ev):

   -68.5508 -67.7088 -67.4450 -66.6945 -53.0194 -35.3212 -35.2950 -35.2879
   -34.5039 -34.4503 -34.4238 -34.2111 -34.2087 -34.1661 -33.4704 -33.4482
   -33.4174 -29.3387 -29.2573 -29.2541 -23.3326 -22.9712 -15.4229 -15.3671
   -14.8049 -14.6217 -14.5354 -14.2995 -13.8377 -13.8133 -13.6825 -13.6482
   -13.6198 -13.3675 -13.1782 -13.1555 -13.0556 -12.9530 -12.7381 -12.7093
   -12.6565 -12.5787 -11.8244 -11.6939 -10.6102 -10.3874  -6.9041  -6.8401
    -6.8104  -6.4951  -6.4685  -6.4551  -4.5963  -4.5468  -3.0281  -2.9267
    -2.8612  -2.0273  -1.7360  -1.3653  -1.3335  -1.2767  -1.1291  -1.0644
    -0.9334  -0.8909  -0.6236  -0.5499  -0.4073  -0.1842  -0.1446   0.0087
     0.0425   0.2386   0.4460   0.4814   0.6002   0.6912   0.7505   0.8127
     0.9919   1.2068   1.3379   1.4179   1.5138   1.5427   1.6279   1.6953
     1.7697   1.7840   1.8783   1.8917   2.0149   2.0304   2.1118   2.1645
     2.2559   2.2900   2.3550   2.3722   2.4484   2.5580   2.6336   2.6725
     2.8298   2.8690   2.9260   3.0677   3.1907   3.2498   3.3006   3.3233
     3.3503   3.4977   3.5266   3.7552   4.0093   4.0949   4.1633   4.3472
     4.6808   4.8416   4.9280   5.1159   6.6532   6.8155   7.1324   8.9982
     9.0950   9.7214  10.3277  10.6949  11.2208  11.6847  12.3191  12.4119
    12.5331  12.7278  12.8654  12.9188  12.9758  13.0781  13.1978  13.2731
    13.4130  13.4823  13.5977  13.7247  13.8075

     occupation numbers 
     1.0000   1.0000   1.0000   1.0000   1.0000   1.0000   1.0000   1.0000
     1.0000   1.0000   1.0000   1.0000   1.0000   1.0000   1.0000   1.0000
     1.0000   1.0000   1.0000   1.0000   1.0000   1.0000   1.0000   1.0000
     1.0000   1.0000   1.0000   1.0000   1.0000   1.0000   1.0000   1.0000
     1.0000   1.0000   1.0000   1.0000   1.0000   1.0000   1.0000   1.0000
     1.0000   1.0000   1.0000   1.0000   1.0000   1.0000   1.0000   1.0000
     1.0000   1.0000   1.0000   1.0000   1.0000   1.0000   1.0000   1.0000
     1.0000   1.0000   1.0000   1.0000   1.0000   1.0000   1.0000   1.0000
     1.0000   1.0000   1.0000   1.0000   1.0000   1.0000   1.0000   1.0000
     1.0000   1.0000   1.0000   1.0000   1.0000   1.0000   1.0000   1.0000
     1.0000   1.0000   1.0000   1.0000   1.0000   1.0000   1.0000   1.0000
     1.0000   1.0000   1.0000   1.0000   1.0000   1.0000   1.0000   1.0000
     1.0000   1.0000   1.0000   1.0000   1.0000   1.0000   1.0000   1.0000
     1.0000   1.0000   1.0000   1.0000   1.0000   1.0000   1.0000   1.0000
     1.0000   1.0000   1.0000   1.0000   1.0000   1.0000   1.0000   1.0000
     1.0000   1.0000   1.0000   1.0000   0.0000   0.0000   0.0000   0.0000
     0.0000   0.0000   0.0000   0.0000   0.0000   0.0000   0.0000   0.0000
     0.0000   0.0000   0.0000   0.0000   0.0000   0.0000   0.0000   0.0000
     0.0000   0.0000   0.0000   0.0000   0.0000

          k = 0.1667 0.0000 0.0301 ( 25941 PWs)   bands (ev):

   -68.5508 -67.7088 -67.4450 -66.6945 -53.0194 -35.3211 -35.2950 -35.2879
   -34.5039 -34.4503 -34.4238 -34.2111 -34.2087 -34.1661 -33.4704 -33.4483
   -33.4174 -29.3390 -29.2573 -29.2540 -23.3325 -22.9710 -15.3916 -15.3044
   -14.7622 -14.5763 -14.5450 -14.3382 -13.9878 -13.9713 -13.6385 -13.6130
   -13.6060 -13.3480 -13.1829 -13.1397 -13.0034 -12.9126 -12.7873 -12.7521
   -12.6784 -12.5664 -11.8240 -11.6989 -10.6165 -10.3868  -6.9056  -6.8375
    -6.8094  -6.4948  -6.4712  -6.4505  -4.4760  -4.4285  -2.9815  -2.7589
    -2.7115  -2.1192  -1.9609  -1.6494  -1.3670  -1.1952  -1.1020  -1.0367
    -1.0102  -0.7419  -0.5417  -0.5129  -0.3133  -0.1998  -0.1301  -0.0460
     0.1243   0.1853   0.3826   0.4909   0.5747   0.6322   0.8077   0.9641
     1.0274   1.1385   1.2168   1.2610   1.3932   1.5380   1.5561   1.6821
     1.7376   1.7670   1.8425   1.9449   1.9950   2.0799   2.1838   2.2354
     2.2665   2.2700   2.3687   2.3759   2.4480   2.4829   2.6818   2.7147
     2.7423   2.8386   2.9807   3.0510   3.0943   3.1339   3.1681   3.2312
     3.3457   3.5242   3.5777   3.8412   4.0258   4.0664   4.2054   4.4407
     4.7050   4.8068   4.9443   5.0432   6.6628   6.7866   7.1264   9.0705
     9.0957   9.3621  10.7537  11.3897  11.6095  12.0183  12.0698  12.2612
    12.4133  12.5319  12.7271  12.8250  12.9594  13.0549  13.1544  13.1741
    13.3308  13.5138  13.5940  13.7629  13.9528

     occupation numbers 
     1.0000   1.0000   1.0000   1.0000   1.0000   1.0000   1.0000   1.0000
     1.0000   1.0000   1.0000   1.0000   1.0000   1.0000   1.0000   1.0000
     1.0000   1.0000   1.0000   1.0000   1.0000   1.0000   1.0000   1.0000
     1.0000   1.0000   1.0000   1.0000   1.0000   1.0000   1.0000   1.0000
     1.0000   1.0000   1.0000   1.0000   1.0000   1.0000   1.0000   1.0000
     1.0000   1.0000   1.0000   1.0000   1.0000   1.0000   1.0000   1.0000
     1.0000   1.0000   1.0000   1.0000   1.0000   1.0000   1.0000   1.0000
     1.0000   1.0000   1.0000   1.0000   1.0000   1.0000   1.0000   1.0000
     1.0000   1.0000   1.0000   1.0000   1.0000   1.0000   1.0000   1.0000
     1.0000   1.0000   1.0000   1.0000   1.0000   1.0000   1.0000   1.0000
     1.0000   1.0000   1.0000   1.0000   1.0000   1.0000   1.0000   1.0000
     1.0000   1.0000   1.0000   1.0000   1.0000   1.0000   1.0000   1.0000
     1.0000   1.0000   1.0000   1.0000   1.0000   1.0000   1.0000   1.0000
     1.0000   1.0000   1.0000   1.0000   1.0000   1.0000   1.0000   1.0000
     1.0000   1.0000   1.0000   1.0000   1.0000   1.0000   1.0000   1.0000
     1.0000   1.0000   1.0000   1.0000   0.0000   0.0000   0.0000   0.0000
     0.0000   0.0000   0.0000   0.0000   0.0000   0.0000   0.0000   0.0000
     0.0000   0.0000   0.0000   0.0000   0.0000   0.0000   0.0000   0.0000
     0.0000   0.0000   0.0000   0.0000   0.0000

          k = 0.1667 0.0000 0.2059 ( 25961 PWs)   bands (ev):

   -68.5508 -67.7088 -67.4450 -66.6945 -53.0194 -35.3211 -35.2951 -35.2879
   -34.5039 -34.4503 -34.4238 -34.2111 -34.2088 -34.1661 -33.4704 -33.4483
   -33.4174 -29.3390 -29.2573 -29.2540 -23.3325 -22.9710 -15.3738 -15.3251
   -14.7542 -14.6002 -14.5257 -14.3400 -13.9922 -13.9662 -13.6313 -13.6275
   -13.5918 -13.3545 -13.1692 -13.1548 -12.9919 -12.9317 -12.7720 -12.7644
   -12.6579 -12.5807 -11.8239 -11.6990 -10.6160 -10.3874  -6.9057  -6.8374
    -6.8093  -6.4948  -6.4712  -6.4505  -4.4863  -4.4182  -2.9715  -2.7548
    -2.7159  -2.1257  -1.9216  -1.6866  -1.3381  -1.2119  -1.0851  -1.0608
    -0.9886  -0.8385  -0.5591  -0.5004  -0.2973  -0.2106  -0.1096  -0.0317
     0.1333   0.1725   0.3776   0.4998   0.5657   0.6226   0.8284   0.9550
     1.0204   1.1203   1.2917   1.3495   1.4036   1.4817   1.6025   1.6834
     1.7533   1.8109   1.8931   1.9252   1.9472   2.0241   2.0664   2.2119
     2.2563   2.3170   2.3789   2.3866   2.4191   2.5328   2.5989   2.7235
     2.7427   2.8615   2.9041   3.0189   3.1009   3.1521   3.2390   3.3209
     3.3539   3.5213   3.5682   3.7672   4.0482   4.0726   4.2116   4.4234
     4.7114   4.7943   4.9341   5.0516   6.6636   6.7863   7.1283   9.0480
     9.1014   9.7200  10.2193  11.3815  11.6966  11.8842  12.0919  12.1842
    12.4478  12.6217  12.8069  12.9368  13.0096  13.1384  13.2037  13.2920
    13.4259  13.4357  13.6489  13.7319  13.8267

     occupation numbers 
     1.0000   1.0000   1.0000   1.0000   1.0000   1.0000   1.0000   1.0000
     1.0000   1.0000   1.0000   1.0000   1.0000   1.0000   1.0000   1.0000
     1.0000   1.0000   1.0000   1.0000   1.0000   1.0000   1.0000   1.0000
     1.0000   1.0000   1.0000   1.0000   1.0000   1.0000   1.0000   1.0000
     1.0000   1.0000   1.0000   1.0000   1.0000   1.0000   1.0000   1.0000
     1.0000   1.0000   1.0000   1.0000   1.0000   1.0000   1.0000   1.0000
     1.0000   1.0000   1.0000   1.0000   1.0000   1.0000   1.0000   1.0000
     1.0000   1.0000   1.0000   1.0000   1.0000   1.0000   1.0000   1.0000
     1.0000   1.0000   1.0000   1.0000   1.0000   1.0000   1.0000   1.0000
     1.0000   1.0000   1.0000   1.0000   1.0000   1.0000   1.0000   1.0000
     1.0000   1.0000   1.0000   1.0000   1.0000   1.0000   1.0000   1.0000
     1.0000   1.0000   1.0000   1.0000   1.0000   1.0000   1.0000   1.0000
     1.0000   1.0000   1.0000   1.0000   1.0000   1.0000   1.0000   1.0000
     1.0000   1.0000   1.0000   1.0000   1.0000   1.0000   1.0000   1.0000
     1.0000   1.0000   1.0000   1.0000   1.0000   1.0000   1.0000   1.0000
     1.0000   1.0000   1.0000   1.0000   0.0000   0.0000   0.0000   0.0000
     0.0000   0.0000   0.0000   0.0000   0.0000   0.0000   0.0000   0.0000
     0.0000   0.0000   0.0000   0.0000   0.0000   0.0000   0.0000   0.0000
     0.0000   0.0000   0.0000   0.0000   0.0000

          k = 0.1667 0.0000-0.1457 ( 25956 PWs)   bands (ev):

   -68.5508 -67.7088 -67.4450 -66.6945 -53.0194 -35.3211 -35.2950 -35.2879
   -34.5039 -34.4503 -34.4238 -34.2111 -34.2088 -34.1661 -33.4704 -33.4483
   -33.4174 -29.3390 -29.2573 -29.2540 -23.3325 -22.9710 -15.3792 -15.3189
   -14.7580 -14.5865 -14.5375 -14.3392 -13.9936 -13.9651 -13.6339 -13.6256
   -13.5895 -13.3561 -13.1765 -13.1475 -12.9942 -12.9262 -12.7890 -12.7491
   -12.6587 -12.5810 -11.8239 -11.6990 -10.6158 -10.3875  -6.9057  -6.8374
    -6.8094  -6.4948  -6.4712  -6.4505  -4.4735  -4.4313  -2.9746  -2.7528
    -2.7178  -2.1270  -1.9295  -1.6750  -1.3351  -1.2196  -1.1027  -1.0378
    -0.9636  -0.8580  -0.5635  -0.4969  -0.3127  -0.1656  -0.1149  -0.0653
     0.1347   0.1993   0.3882   0.4981   0.5420   0.6366   0.8142   0.9761
     1.0210   1.1194   1.2796   1.2908   1.3767   1.5301   1.5693   1.7105
     1.7398   1.7623   1.8712   1.9487   1.9963   2.0104   2.1455   2.1886
     2.2557   2.3036   2.3580   2.4014   2.4294   2.4938   2.6598   2.6753
     2.7758   2.8852   2.9466   3.0459   3.0905   3.1422   3.2177   3.2844
     3.3387   3.5352   3.5547   3.7576   4.0560   4.0784   4.2140   4.4068
     4.7141   4.7936   4.9407   5.0522   6.6614   6.7886   7.1273   9.0368
     9.0834   9.6006  10.4167  11.4682  11.7164  11.8382  12.1344  12.2013
    12.4987  12.6248  12.7956  12.8823  12.9423  13.0356  13.0574  13.2342
    13.3595  13.5077  13.6744  13.7397  13.8350

     occupation numbers 
     1.0000   1.0000   1.0000   1.0000   1.0000   1.0000   1.0000   1.0000
     1.0000   1.0000   1.0000   1.0000   1.0000   1.0000   1.0000   1.0000
     1.0000   1.0000   1.0000   1.0000   1.0000   1.0000   1.0000   1.0000
     1.0000   1.0000   1.0000   1.0000   1.0000   1.0000   1.0000   1.0000
     1.0000   1.0000   1.0000   1.0000   1.0000   1.0000   1.0000   1.0000
     1.0000   1.0000   1.0000   1.0000   1.0000   1.0000   1.0000   1.0000
     1.0000   1.0000   1.0000   1.0000   1.0000   1.0000   1.0000   1.0000
     1.0000   1.0000   1.0000   1.0000   1.0000   1.0000   1.0000   1.0000
     1.0000   1.0000   1.0000   1.0000   1.0000   1.0000   1.0000   1.0000
     1.0000   1.0000   1.0000   1.0000   1.0000   1.0000   1.0000   1.0000
     1.0000   1.0000   1.0000   1.0000   1.0000   1.0000   1.0000   1.0000
     1.0000   1.0000   1.0000   1.0000   1.0000   1.0000   1.0000   1.0000
     1.0000   1.0000   1.0000   1.0000   1.0000   1.0000   1.0000   1.0000
     1.0000   1.0000   1.0000   1.0000   1.0000   1.0000   1.0000   1.0000
     1.0000   1.0000   1.0000   1.0000   1.0000   1.0000   1.0000   1.0000
     1.0000   1.0000   1.0000   1.0000   0.0000   0.0000   0.0000   0.0000
     0.0000   0.0000   0.0000   0.0000   0.0000   0.0000   0.0000   0.0000
     0.0000   0.0000   0.0000   0.0000   0.0000   0.0000   0.0000   0.0000
     0.0000   0.0000   0.0000   0.0000   0.0000

          k = 0.1667 0.1921 0.0301 ( 25937 PWs)   bands (ev):

   -68.5508 -67.7088 -67.4450 -66.6945 -53.0194 -35.3211 -35.2950 -35.2879
   -34.5039 -34.4503 -34.4238 -34.2111 -34.2087 -34.1661 -33.4704 -33.4483
   -33.4174 -29.3390 -29.2573 -29.2540 -23.3325 -22.9710 -15.3872 -15.2999
   -14.7697 -14.5935 -14.5578 -14.3380 -13.9757 -13.9601 -13.6348 -13.5949
   -13.5817 -13.3533 -13.1801 -13.1395 -13.0457 -12.9251 -12.7811 -12.7511
   -12.6730 -12.5655 -11.8232 -11.6992 -10.6160 -10.3865  -6.9056  -6.8375
    -6.8092  -6.4945  -6.4717  -6.4507  -4.4394  -4.3913  -3.0003  -2.8743
    -2.8385  -2.1189  -1.8880  -1.5569  -1.3364  -1.1764  -1.1074  -1.0082
    -0.9541  -0.7643  -0.5911  -0.5029  -0.3688  -0.2164  -0.1303  -0.0030
     0.0844   0.2118   0.3113   0.4446   0.5958   0.7511   0.7692   0.8939
     1.0892   1.1978   1.2296   1.3425   1.4254   1.5302   1.5969   1.6464
     1.7204   1.7784   1.8318   1.9610   2.0279   2.0606   2.1419   2.1608
     2.2543   2.2801   2.3417   2.3830   2.4836   2.4948   2.6605   2.6869
     2.7459   2.8531   2.9494   3.0418   3.1405   3.1797   3.2255   3.2647
     3.3192   3.4621   3.5084   3.8332   3.9728   4.0428   4.2084   4.4131
     4.6883   4.8161   4.9422   5.0537   6.6628   6.7873   7.1291   9.0478
     9.1075   9.6853  10.6632  10.9105  11.7264  11.7889  12.2773  12.3831
    12.4618  12.5289  12.8149  12.8964  12.9757  13.1045  13.1229  13.2947
    13.3598  13.4071  13.5246  13.7724  13.8098

     occupation numbers 
     1.0000   1.0000   1.0000   1.0000   1.0000   1.0000   1.0000   1.0000
     1.0000   1.0000   1.0000   1.0000   1.0000   1.0000   1.0000   1.0000
     1.0000   1.0000   1.0000   1.0000   1.0000   1.0000   1.0000   1.0000
     1.0000   1.0000   1.0000   1.0000   1.0000   1.0000   1.0000   1.0000
     1.0000   1.0000   1.0000   1.0000   1.0000   1.0000   1.0000   1.0000
     1.0000   1.0000   1.0000   1.0000   1.0000   1.0000   1.0000   1.0000
     1.0000   1.0000   1.0000   1.0000   1.0000   1.0000   1.0000   1.0000
     1.0000   1.0000   1.0000   1.0000   1.0000   1.0000   1.0000   1.0000
     1.0000   1.0000   1.0000   1.0000   1.0000   1.0000   1.0000   1.0000
     1.0000   1.0000   1.0000   1.0000   1.0000   1.0000   1.0000   1.0000
     1.0000   1.0000   1.0000   1.0000   1.0000   1.0000   1.0000   1.0000
     1.0000   1.0000   1.0000   1.0000   1.0000   1.0000   1.0000   1.0000
     1.0000   1.0000   1.0000   1.0000   1.0000   1.0000   1.0000   1.0000
     1.0000   1.0000   1.0000   1.0000   1.0000   1.0000   1.0000   1.0000
     1.0000   1.0000   1.0000   1.0000   1.0000   1.0000   1.0000   1.0000
     1.0000   1.0000   1.0000   1.0000   0.0000   0.0000   0.0000   0.0000
     0.0000   0.0000   0.0000   0.0000   0.0000   0.0000   0.0000   0.0000
     0.0000   0.0000   0.0000   0.0000   0.0000   0.0000   0.0000   0.0000
     0.0000   0.0000   0.0000   0.0000   0.0000

          k = 0.1667 0.1921 0.2059 ( 25944 PWs)   bands (ev):

   -68.5508 -67.7088 -67.4450 -66.6945 -53.0194 -35.3211 -35.2950 -35.2879
   -34.5039 -34.4503 -34.4238 -34.2111 -34.2087 -34.1661 -33.4704 -33.4483
   -33.4174 -29.3390 -29.2573 -29.2540 -23.3325 -22.9710 -15.3690 -15.3210
   -14.7613 -14.6177 -14.5388 -14.3396 -13.9807 -13.9546 -13.6284 -13.6072
   -13.5688 -13.3604 -13.1701 -13.1491 -13.0321 -12.9463 -12.7733 -12.7573
   -12.6532 -12.5789 -11.8231 -11.6993 -10.6156 -10.3870  -6.9057  -6.8374
    -6.8092  -6.4944  -6.4717  -6.4507  -4.4460  -4.3846  -2.9863  -2.8873
    -2.8308  -2.1265  -1.8518  -1.5825  -1.3206  -1.1879  -1.0809  -1.0323
    -0.9521  -0.8451  -0.6196  -0.4861  -0.3384  -0.1941  -0.1498   0.0203
     0.0880   0.1871   0.3123   0.4014   0.6334   0.7628   0.7878   0.8786
     1.1094   1.1607   1.3230   1.3727   1.4295   1.5370   1.6283   1.6596
     1.7408   1.7766   1.8659   1.8947   1.9987   2.0125   2.0683   2.1727
     2.2499   2.3146   2.3509   2.3863   2.4355   2.5180   2.6160   2.7057
     2.7341   2.8320   2.9274   3.0374   3.1368   3.1926   3.2711   3.3009
     3.3594   3.4637   3.5065   3.7575   3.9995   4.0470   4.2129   4.3976
     4.6987   4.8037   4.9343   5.0628   6.6634   6.7865   7.1315   9.0221
     9.1146   9.9823  10.4588  10.9011  11.3047  11.6900  12.3241  12.4638
    12.5694  12.7156  12.8542  12.9758  13.0391  13.0631  13.1970  13.2766
    13.3940  13.5537  13.6001  13.6759  13.7844

     occupation numbers 
     1.0000   1.0000   1.0000   1.0000   1.0000   1.0000   1.0000   1.0000
     1.0000   1.0000   1.0000   1.0000   1.0000   1.0000   1.0000   1.0000
     1.0000   1.0000   1.0000   1.0000   1.0000   1.0000   1.0000   1.0000
     1.0000   1.0000   1.0000   1.0000   1.0000   1.0000   1.0000   1.0000
     1.0000   1.0000   1.0000   1.0000   1.0000   1.0000   1.0000   1.0000
     1.0000   1.0000   1.0000   1.0000   1.0000   1.0000   1.0000   1.0000
     1.0000   1.0000   1.0000   1.0000   1.0000   1.0000   1.0000   1.0000
     1.0000   1.0000   1.0000   1.0000   1.0000   1.0000   1.0000   1.0000
     1.0000   1.0000   1.0000   1.0000   1.0000   1.0000   1.0000   1.0000
     1.0000   1.0000   1.0000   1.0000   1.0000   1.0000   1.0000   1.0000
     1.0000   1.0000   1.0000   1.0000   1.0000   1.0000   1.0000   1.0000
     1.0000   1.0000   1.0000   1.0000   1.0000   1.0000   1.0000   1.0000
     1.0000   1.0000   1.0000   1.0000   1.0000   1.0000   1.0000   1.0000
     1.0000   1.0000   1.0000   1.0000   1.0000   1.0000   1.0000   1.0000
     1.0000   1.0000   1.0000   1.0000   1.0000   1.0000   1.0000   1.0000
     1.0000   1.0000   1.0000   1.0000   0.0000   0.0000   0.0000   0.0000
     0.0000   0.0000   0.0000   0.0000   0.0000   0.0000   0.0000   0.0000
     0.0000   0.0000   0.0000   0.0000   0.0000   0.0000   0.0000   0.0000
     0.0000   0.0000   0.0000   0.0000   0.0000

          k = 0.1667 0.1921-0.1457 ( 25923 PWs)   bands (ev):

   -68.5508 -67.7088 -67.4450 -66.6945 -53.0194 -35.3211 -35.2950 -35.2879
   -34.5039 -34.4503 -34.4238 -34.2111 -34.2087 -34.1661 -33.4704 -33.4483
   -33.4174 -29.3390 -29.2573 -29.2540 -23.3325 -22.9710 -15.3745 -15.3146
   -14.7653 -14.6042 -14.5501 -14.3389 -13.9814 -13.9540 -13.6271 -13.6105
   -13.5652 -13.3624 -13.1706 -13.1480 -13.0351 -12.9426 -12.7839 -12.7460
   -12.6531 -12.5802 -11.8231 -11.6993 -10.6154 -10.3871  -6.9057  -6.8374
    -6.8092  -6.4944  -6.4717  -6.4507  -4.4335  -4.3973  -2.9865  -2.8925
    -2.8287  -2.1262  -1.8565  -1.5760  -1.3173  -1.1957  -1.0761  -1.0408
    -0.9202  -0.8559  -0.6065  -0.4943  -0.3717  -0.1967  -0.1125  -0.0084
     0.1018   0.2054   0.3075   0.4287   0.6160   0.7385   0.7891   0.8984
     1.0815   1.1699   1.3027   1.3506   1.4455   1.5519   1.5914   1.6276
     1.7480   1.7713   1.8356   1.9240   1.9997   2.0486   2.1154   2.1986
     2.2447   2.3058   2.3336   2.3731   2.4250   2.5209   2.6316   2.7034
     2.7445   2.8643   2.9357   3.0088   3.1534   3.2194   3.2618   3.2800
     3.3528   3.4638   3.4943   3.7423   3.9868   4.0784   4.2114   4.3738
     4.7012   4.8059   4.9396   5.0617   6.6611   6.7891   7.1304   9.0114
     9.1006   9.9062  10.5971  10.8421  11.4420  11.7787  12.3366  12.4166
    12.5416  12.6264  12.8786  12.9214  12.9901  13.0841  13.1758  13.2141
    13.3618  13.4881  13.5941  13.7010  13.8043

     occupation numbers 
     1.0000   1.0000   1.0000   1.0000   1.0000   1.0000   1.0000   1.0000
     1.0000   1.0000   1.0000   1.0000   1.0000   1.0000   1.0000   1.0000
     1.0000   1.0000   1.0000   1.0000   1.0000   1.0000   1.0000   1.0000
     1.0000   1.0000   1.0000   1.0000   1.0000   1.0000   1.0000   1.0000
     1.0000   1.0000   1.0000   1.0000   1.0000   1.0000   1.0000   1.0000
     1.0000   1.0000   1.0000   1.0000   1.0000   1.0000   1.0000   1.0000
     1.0000   1.0000   1.0000   1.0000   1.0000   1.0000   1.0000   1.0000
     1.0000   1.0000   1.0000   1.0000   1.0000   1.0000   1.0000   1.0000
     1.0000   1.0000   1.0000   1.0000   1.0000   1.0000   1.0000   1.0000
     1.0000   1.0000   1.0000   1.0000   1.0000   1.0000   1.0000   1.0000
     1.0000   1.0000   1.0000   1.0000   1.0000   1.0000   1.0000   1.0000
     1.0000   1.0000   1.0000   1.0000   1.0000   1.0000   1.0000   1.0000
     1.0000   1.0000   1.0000   1.0000   1.0000   1.0000   1.0000   1.0000
     1.0000   1.0000   1.0000   1.0000   1.0000   1.0000   1.0000   1.0000
     1.0000   1.0000   1.0000   1.0000   1.0000   1.0000   1.0000   1.0000
     1.0000   1.0000   1.0000   1.0000   0.0000   0.0000   0.0000   0.0000
     0.0000   0.0000   0.0000   0.0000   0.0000   0.0000   0.0000   0.0000
     0.0000   0.0000   0.0000   0.0000   0.0000   0.0000   0.0000   0.0000
     0.0000   0.0000   0.0000   0.0000   0.0000

          k = 0.3333 0.0000 0.0601 ( 25907 PWs)   bands (ev):

   -68.5508 -67.7088 -67.4450 -66.6945 -53.0194 -35.3211 -35.2951 -35.2879
   -34.5038 -34.4503 -34.4237 -34.2111 -34.2088 -34.1660 -33.4703 -33.4483
   -33.4174 -29.3395 -29.2573 -29.2539 -23.3321 -22.9707 -15.2618 -15.1776
   -14.6512 -14.6118 -14.5714 -14.4304 -14.1850 -14.1756 -13.6443 -13.5355
   -13.5078 -13.3427 -13.1571 -13.1176 -12.9815 -12.9411 -12.8748 -12.8185
   -12.6763 -12.5682 -11.8212 -11.7098 -10.6270 -10.3860  -6.9091  -6.8319
    -6.8070  -6.4935  -6.4778  -6.4414  -4.0682  -4.0160  -2.8653  -2.8273
    -2.7630  -2.3598  -2.0990  -1.8964  -1.3349  -1.1881  -1.0215  -0.9631
    -0.9139  -0.7367  -0.5855  -0.5546  -0.2061  -0.1442  -0.0518   0.0041
     0.0774   0.1549   0.3926   0.4341   0.5053   0.6241   0.8983   0.9783
     1.0788   1.1491   1.2002   1.2829   1.3624   1.4895   1.5588   1.6037
     1.6138   1.7482   1.9005   1.9398   1.9766   2.0114   2.0793   2.1644
     2.2155   2.2863   2.3642   2.3990   2.4541   2.5378   2.5587   2.6650
     2.7442   2.8389   2.8676   3.0027   3.0116   3.0407   3.1749   3.2339
     3.3140   3.4125   3.4731   3.8489   3.9810   4.0914   4.2637   4.4958
     4.6880   4.7434   4.9375   4.9649   6.6629   6.7434   7.1204   9.0962
     9.1153  10.0932  11.1363  11.5006  11.9465  12.0094  12.0962  12.3802
    12.4256  12.5346  12.6311  12.7708  12.9585  13.0884  13.2059  13.2729
    13.4382  13.5190  13.6585  13.7263  13.7866

     occupation numbers 
     1.0000   1.0000   1.0000   1.0000   1.0000   1.0000   1.0000   1.0000
     1.0000   1.0000   1.0000   1.0000   1.0000   1.0000   1.0000   1.0000
     1.0000   1.0000   1.0000   1.0000   1.0000   1.0000   1.0000   1.0000
     1.0000   1.0000   1.0000   1.0000   1.0000   1.0000   1.0000   1.0000
     1.0000   1.0000   1.0000   1.0000   1.0000   1.0000   1.0000   1.0000
     1.0000   1.0000   1.0000   1.0000   1.0000   1.0000   1.0000   1.0000
     1.0000   1.0000   1.0000   1.0000   1.0000   1.0000   1.0000   1.0000
     1.0000   1.0000   1.0000   1.0000   1.0000   1.0000   1.0000   1.0000
     1.0000   1.0000   1.0000   1.0000   1.0000   1.0000   1.0000   1.0000
     1.0000   1.0000   1.0000   1.0000   1.0000   1.0000   1.0000   1.0000
     1.0000   1.0000   1.0000   1.0000   1.0000   1.0000   1.0000   1.0000
     1.0000   1.0000   1.0000   1.0000   1.0000   1.0000   1.0000   1.0000
     1.0000   1.0000   1.0000   1.0000   1.0000   1.0000   1.0000   1.0000
     1.0000   1.0000   1.0000   1.0000   1.0000   1.0000   1.0000   1.0000
     1.0000   1.0000   1.0000   1.0000   1.0000   1.0000   1.0000   1.0000
     1.0000   1.0000   1.0000   1.0000   0.0000   0.0000   0.0000   0.0000
     0.0000   0.0000   0.0000   0.0000   0.0000   0.0000   0.0000   0.0000
     0.0000   0.0000   0.0000   0.0000   0.0000   0.0000   0.0000   0.0000
     0.0000   0.0000   0.0000   0.0000   0.0000

          k = 0.3333 0.0000 0.2360 ( 25948 PWs)   bands (ev):

   -68.5508 -67.7088 -67.4450 -66.6945 -53.0194 -35.3211 -35.2951 -35.2879
   -34.5038 -34.4504 -34.4238 -34.2111 -34.2088 -34.1661 -33.4703 -33.4483
   -33.4174 -29.3395 -29.2573 -29.2539 -23.3321 -22.9707 -15.2396 -15.2028
   -14.6434 -14.6149 -14.5744 -14.4309 -14.1967 -14.1632 -13.6359 -13.5471
   -13.4967 -13.3494 -13.1478 -13.1282 -12.9688 -12.9569 -12.8681 -12.8286
   -12.6530 -12.5841 -11.8212 -11.7098 -10.6264 -10.3867  -6.9092  -6.8317
    -6.8069  -6.4935  -6.4778  -6.4413  -4.0811  -4.0025  -2.8555  -2.8098
    -2.7827  -2.3698  -2.0725  -1.9257  -1.2851  -1.2165  -1.0147  -0.9531
    -0.9126  -0.8067  -0.5959  -0.5322  -0.2368  -0.1292  -0.0428   0.0169
     0.0694   0.1724   0.3724   0.4270   0.5171   0.6221   0.8827   0.9777
     1.0681   1.1554   1.2946   1.3113   1.4039   1.4609   1.4728   1.5892
     1.6396   1.8334   1.8899   1.9179   1.9649   1.9817   2.1003   2.1367
     2.2110   2.2702   2.3699   2.4217   2.4652   2.5187   2.5996   2.6346
     2.6848   2.7857   2.8966   2.9640   2.9949   3.0600   3.2467   3.2715
     3.3518   3.3978   3.4788   3.7710   4.0039   4.0841   4.2695   4.4916
     4.6871   4.7459   4.9398   4.9692   6.6614   6.7459   7.1200   9.0818
     9.1073  10.4710  10.6622  11.4534  11.9502  12.0069  12.0683  12.3314
    12.4481  12.5514  12.6358  13.0098  13.0476  13.1074  13.2499  13.2888
    13.3702  13.5148  13.5965  13.7444  13.8248

     occupation numbers 
     1.0000   1.0000   1.0000   1.0000   1.0000   1.0000   1.0000   1.0000
     1.0000   1.0000   1.0000   1.0000   1.0000   1.0000   1.0000   1.0000
     1.0000   1.0000   1.0000   1.0000   1.0000   1.0000   1.0000   1.0000
     1.0000   1.0000   1.0000   1.0000   1.0000   1.0000   1.0000   1.0000
     1.0000   1.0000   1.0000   1.0000   1.0000   1.0000   1.0000   1.0000
     1.0000   1.0000   1.0000   1.0000   1.0000   1.0000   1.0000   1.0000
     1.0000   1.0000   1.0000   1.0000   1.0000   1.0000   1.0000   1.0000
     1.0000   1.0000   1.0000   1.0000   1.0000   1.0000   1.0000   1.0000
     1.0000   1.0000   1.0000   1.0000   1.0000   1.0000   1.0000   1.0000
     1.0000   1.0000   1.0000   1.0000   1.0000   1.0000   1.0000   1.0000
     1.0000   1.0000   1.0000   1.0000   1.0000   1.0000   1.0000   1.0000
     1.0000   1.0000   1.0000   1.0000   1.0000   1.0000   1.0000   1.0000
     1.0000   1.0000   1.0000   1.0000   1.0000   1.0000   1.0000   1.0000
     1.0000   1.0000   1.0000   1.0000   1.0000   1.0000   1.0000   1.0000
     1.0000   1.0000   1.0000   1.0000   1.0000   1.0000   1.0000   1.0000
     1.0000   1.0000   1.0000   1.0000   0.0000   0.0000   0.0000   0.0000
     0.0000   0.0000   0.0000   0.0000   0.0000   0.0000   0.0000   0.0000
     0.0000   0.0000   0.0000   0.0000   0.0000   0.0000   0.0000   0.0000
     0.0000   0.0000   0.0000   0.0000   0.0000

          k = 0.3333 0.0000-0.1157 ( 25913 PWs)   bands (ev):

   -68.5508 -67.7088 -67.4450 -66.6945 -53.0194 -35.3211 -35.2951 -35.2879
   -34.5038 -34.4503 -34.4237 -34.2110 -34.2088 -34.1661 -33.4703 -33.4483
   -33.4174 -29.3395 -29.2573 -29.2539 -23.3321 -22.9707 -15.2500 -15.1908
   -14.6498 -14.5980 -14.5875 -14.4299 -14.1957 -14.1649 -13.6333 -13.5500
   -13.4943 -13.3509 -13.1561 -13.1199 -12.9791 -12.9371 -12.8840 -12.8218
   -12.6531 -12.5840 -11.8212 -11.7098 -10.6262 -10.3868  -6.9092  -6.8317
    -6.8070  -6.4935  -6.4778  -6.4413  -4.0581  -4.0265  -2.8517  -2.8381
    -2.7647  -2.3592  -2.0855  -1.9166  -1.2794  -1.2304  -1.0015  -0.9524
    -0.9125  -0.8069  -0.5884  -0.5460  -0.2083  -0.1208  -0.0723   0.0052
     0.0900   0.1664   0.3880   0.4328   0.4932   0.6441   0.9175   0.9836
[...]
     atom    4 type  5   force =    -0.00000000   -0.00101827   -0.00000000
     atom    5 type  5   force =    -0.00000000   -0.00070846    0.00000000
     atom    6 type  5   force =    -0.00000000    0.00210700   -0.00000000
     atom    7 type  7   force =     0.00088542    0.00903803   -0.00580098
     atom    8 type  7   force =    -0.00088552    0.00903804    0.00580104
     atom    9 type  7   force =     0.00095467    0.00254972   -0.00210913
     atom   10 type  7   force =    -0.00095465    0.00254972    0.00210909
     atom   11 type  7   force =     0.00173101   -0.00974957    0.00860656
     atom   12 type  7   force =    -0.00173101   -0.00974956   -0.00860660
     atom   13 type  1   force =    -0.00045817    0.00008165   -0.01659412
     atom   14 type  1   force =     0.00045816    0.00008165    0.01659419
     atom   15 type  6   force =    -0.00026253    0.00210569    0.00551949
     atom   16 type  6   force =     0.00026251    0.00210568   -0.00551948
     atom   17 type  6   force =    -0.00016905   -0.00094556   -0.00642090
     atom   18 type  6   force =     0.00016904   -0.00094556    0.00642090
     atom   19 type  6   force =     0.00043988   -0.00027250    0.00679122
     atom   20 type  6   force =    -0.00043988   -0.00027250   -0.00679122
     atom   21 type  6   force =    -0.00227367    0.00073228   -0.00442503
     atom   22 type  6   force =     0.00227369    0.00073228    0.00442503
     atom   23 type  6   force =     0.00580908   -0.00167530   -0.00499172
     atom   24 type  6   force =    -0.00580908   -0.00167529    0.00499167
     atom   25 type  6   force =    -0.00306638    0.00007049   -0.00760523
     atom   26 type  6   force =     0.00306639    0.00007050    0.00760520
     atom   27 type  6   force =    -0.00176513    0.00165978    0.00716922
     atom   28 type  6   force =     0.00176513    0.00165978   -0.00716922
     atom   29 type  6   force =    -0.00030351   -0.00108189   -0.00770087
     atom   30 type  6   force =     0.00030351   -0.00108189    0.00770087
     atom   31 type  6   force =    -0.00142287   -0.00342040   -0.00715791
     atom   32 type  6   force =     0.00142284   -0.00342040    0.00715790
     atom   33 type  6   force =     0.00180564    0.00482595    0.00607322
     atom   34 type  6   force =    -0.00180564    0.00482595   -0.00607324
     atom   35 type  6   force =     0.00729969    0.00978377   -0.00255536
     atom   36 type  6   force =    -0.00729969    0.00978378    0.00255540
     atom   37 type  6   force =    -0.00154711   -0.00292395    0.01001915
     atom   38 type  6   force =     0.00154712   -0.00292394   -0.01001914
     atom   39 type  3   force =     0.00000000    0.00000000    0.00000000
     atom   40 type  3   force =     0.00000000    0.00000000    0.00000000
     atom   41 type  3   force =     0.00000000    0.00000000    0.00000000
     atom   42 type  3   force =     0.00000000    0.00000000    0.00000000
     atom   43 type  2   force =    -0.00000000   -0.00617992    0.00000000
     The Hubbard contrib.    to forces
     atom    1 type  4   force =     0.00000000    0.00000000    0.00000000
     atom    2 type  4   force =     0.00000000    0.00000000    0.00000000
     atom    3 type  5   force =     0.00000000    0.00000000    0.00000000
     atom    4 type  5   force =     0.00000000    0.00000000    0.00000000
     atom    5 type  5   force =     0.00000000    0.00000000    0.00000000
     atom    6 type  5   force =     0.00000000    0.00000000    0.00000000
     atom    7 type  7   force =     0.00000000    0.00000000    0.00000000
     atom    8 type  7   force =     0.00000000    0.00000000    0.00000000
     atom    9 type  7   force =     0.00000000    0.00000000    0.00000000
     atom   10 type  7   force =     0.00000000    0.00000000    0.00000000
     atom   11 type  7   force =     0.00000000    0.00000000    0.00000000
     atom   12 type  7   force =     0.00000000    0.00000000    0.00000000
     atom   13 type  1   force =     0.00000000    0.00000000    0.00000000
     atom   14 type  1   force =     0.00000000    0.00000000    0.00000000
     atom   15 type  6   force =     0.00000000    0.00000000    0.00000000
     atom   16 type  6   force =     0.00000000    0.00000000    0.00000000
     atom   17 type  6   force =     0.00000000    0.00000000    0.00000000
     atom   18 type  6   force =     0.00000000    0.00000000    0.00000000
     atom   19 type  6   force =     0.00000000    0.00000000    0.00000000
     atom   20 type  6   force =     0.00000000    0.00000000    0.00000000
     atom   21 type  6   force =     0.00000000    0.00000000    0.00000000
     atom   22 type  6   force =     0.00000000    0.00000000    0.00000000
     atom   23 type  6   force =     0.00000000    0.00000000    0.00000000
     atom   24 type  6   force =     0.00000000    0.00000000    0.00000000
     atom   25 type  6   force =     0.00000000    0.00000000    0.00000000
     atom   26 type  6   force =     0.00000000    0.00000000    0.00000000
     atom   27 type  6   force =     0.00000000    0.00000000    0.00000000
     atom   28 type  6   force =     0.00000000    0.00000000    0.00000000
     atom   29 type  6   force =     0.00000000    0.00000000    0.00000000
     atom   30 type  6   force =     0.00000000    0.00000000    0.00000000
     atom   31 type  6   force =     0.00000000    0.00000000    0.00000000
     atom   32 type  6   force =     0.00000000    0.00000000    0.00000000
     atom   33 type  6   force =     0.00000000    0.00000000    0.00000000
     atom   34 type  6   force =     0.00000000    0.00000000    0.00000000
     atom   35 type  6   force =     0.00000000    0.00000000    0.00000000
     atom   36 type  6   force =     0.00000000    0.00000000    0.00000000
     atom   37 type  6   force =     0.00000000    0.00000000    0.00000000
     atom   38 type  6   force =     0.00000000    0.00000000    0.00000000
     atom   39 type  3   force =     0.00000000    0.00000000    0.00000000
     atom   40 type  3   force =     0.00000000    0.00000000    0.00000000
     atom   41 type  3   force =     0.00000000    0.00000000    0.00000000
     atom   42 type  3   force =     0.00000000    0.00000000    0.00000000
     atom   43 type  2   force =     0.00000000    0.00000000    0.00000000
     The SCF correction term to forces
     atom    1 type  4   force =    -0.00000000   -0.00001739    0.00000000
     atom    2 type  4   force =     0.00000000    0.00000841    0.00000000
     atom    3 type  5   force =    -0.00000000   -0.00003768   -0.00000000
     atom    4 type  5   force =     0.00000000   -0.00003314   -0.00000000
     atom    5 type  5   force =     0.00000000   -0.00005203   -0.00000000
     atom    6 type  5   force =     0.00000000    0.00006997   -0.00000000
     atom    7 type  7   force =     0.00000142    0.00000972    0.00000414
     atom    8 type  7   force =    -0.00000142    0.00000972   -0.00000414
     atom    9 type  7   force =    -0.00000139   -0.00000594   -0.00000741
     atom   10 type  7   force =     0.00000139   -0.00000594    0.00000741
     atom   11 type  7   force =    -0.00000022   -0.00001061    0.00000428
     atom   12 type  7   force =     0.00000022   -0.00001061   -0.00000428
     atom   13 type  1   force =     0.00000091    0.00000437   -0.00001148
     atom   14 type  1   force =    -0.00000091    0.00000437    0.00001148
     atom   15 type  6   force =     0.00001188    0.00004199   -0.00004400
     atom   16 type  6   force =    -0.00001188    0.00004199    0.00004400
     atom   17 type  6   force =    -0.00000694   -0.00003890    0.00002487
     atom   18 type  6   force =     0.00000694   -0.00003890   -0.00002487
     atom   19 type  6   force =     0.00000130   -0.00002009   -0.00000759
     atom   20 type  6   force =    -0.00000130   -0.00002009    0.00000759
     atom   21 type  6   force =    -0.00000487    0.00002589   -0.00000229
     atom   22 type  6   force =     0.00000487    0.00002589    0.00000229
     atom   23 type  6   force =    -0.00001512    0.00001262    0.00001036
     atom   24 type  6   force =     0.00001512    0.00001262   -0.00001036
     atom   25 type  6   force =     0.00000766    0.00001409    0.00001412
     atom   26 type  6   force =    -0.00000766    0.00001409   -0.00001412
     atom   27 type  6   force =    -0.00000351   -0.00001272   -0.00001710
     atom   28 type  6   force =     0.00000351   -0.00001272    0.00001710
     atom   29 type  6   force =    -0.00000616   -0.00001352    0.00001769
     atom   30 type  6   force =     0.00000616   -0.00001352   -0.00001769
     atom   31 type  6   force =     0.00000150   -0.00000139    0.00001721
     atom   32 type  6   force =    -0.00000150   -0.00000139   -0.00001721
     atom   33 type  6   force =    -0.00000719    0.00000183   -0.00001247
     atom   34 type  6   force =     0.00000719    0.00000183    0.00001247
     atom   35 type  6   force =     0.00000281    0.00000411    0.00000708
     atom   36 type  6   force =    -0.00000281    0.00000411   -0.00000708
     atom   37 type  6   force =    -0.00001343    0.00000455   -0.00003135
     atom   38 type  6   force =     0.00001343    0.00000455    0.00003135
     atom   39 type  3   force =     0.00000021    0.00000145    0.00000139
     atom   40 type  3   force =    -0.00000021    0.00000145   -0.00000139
     atom   41 type  3   force =    -0.00000126    0.00000203   -0.00000544
     atom   42 type  3   force =     0.00000126    0.00000203    0.00000544
     atom   43 type  2   force =    -0.00000000    0.00000713    0.00000000

     DFT-D3 dispersion contribution to forces:
     atom    1 type  4   force =    -0.00000000    0.00117020    0.00000000
     atom    2 type  4   force =     0.00000000    0.00048125   -0.00000000
     atom    3 type  5   force =    -0.00000000   -0.00173011    0.00000000
     atom    4 type  5   force =    -0.00000000   -0.00102290   -0.00000000
     atom    5 type  5   force =    -0.00000000    0.00119054    0.00000000
     atom    6 type  5   force =     0.00000000    0.00167687   -0.00000000
     atom    7 type  7   force =    -0.00033079    0.00008297    0.00050530
     atom    8 type  7   force =     0.00033079    0.00008297   -0.00050530
     atom    9 type  7   force =     0.00008431    0.00021337    0.00055773
     atom   10 type  7   force =    -0.00008431    0.00021337   -0.00055773
     atom   11 type  7   force =     0.00003169    0.00069010   -0.00062501
     atom   12 type  7   force =    -0.00003169    0.00069010    0.00062501
     atom   13 type  1   force =    -0.00060227   -0.00001578   -0.00137917
     atom   14 type  1   force =     0.00060227   -0.00001578    0.00137917
     atom   15 type  6   force =    -0.00012054    0.00054848    0.00061863
     atom   16 type  6   force =     0.00012054    0.00054848   -0.00061863
     atom   17 type  6   force =    -0.00010644   -0.00019759   -0.00018143
     atom   18 type  6   force =     0.00010644   -0.00019759    0.00018143
     atom   19 type  6   force =     0.00007690    0.00004944    0.00043265
     atom   20 type  6   force =    -0.00007690    0.00004944   -0.00043265
     atom   21 type  6   force =     0.00007882    0.00001709   -0.00013701
     atom   22 type  6   force =    -0.00007882    0.00001709    0.00013701
     atom   23 type  6   force =    -0.00030393    0.00108656   -0.00005477
     atom   24 type  6   force =     0.00030393    0.00108656    0.00005477
     atom   25 type  6   force =     0.00079193    0.00000361    0.00002615
     atom   26 type  6   force =    -0.00079194    0.00000361   -0.00002615
     atom   27 type  6   force =     0.00034838   -0.00030175   -0.00020696
     atom   28 type  6   force =    -0.00034838   -0.00030175    0.00020696
     atom   29 type  6   force =     0.00007353    0.00000300    0.00040541
     atom   30 type  6   force =    -0.00007352    0.00000300   -0.00040541
     atom   31 type  6   force =     0.00062186   -0.00036576    0.00055401
     atom   32 type  6   force =    -0.00062186   -0.00036576   -0.00055401
     atom   33 type  6   force =     0.00061296   -0.00074135   -0.00044159
     atom   34 type  6   force =    -0.00061296   -0.00074135    0.00044159
     atom   35 type  6   force =    -0.00056516   -0.00076109    0.00003458
     atom   36 type  6   force =     0.00056516   -0.00076109   -0.00003458
     atom   37 type  6   force =    -0.00006677   -0.00016376   -0.00073376
     atom   38 type  6   force =     0.00006677   -0.00016376    0.00073376
     atom   39 type  3   force =    -0.00028681   -0.00069828   -0.00015489
     atom   40 type  3   force =     0.00028681   -0.00069828    0.00015489
     atom   41 type  3   force =    -0.00016035   -0.00114461   -0.00010571
     atom   42 type  3   force =     0.00016035   -0.00114461    0.00010571
     atom   43 type  2   force =     0.00000000    0.00162486   -0.00000000

     Total force =     0.003075     Total SCF correction =     0.000183

     DFT-D3 dispersion Force =     0.006134


     Computing stress (Cartesian axis) and pressure

          total   stress  (Ry/bohr**3)                   (kbar)     P=        0.01
   0.00000028   0.00000000   0.00000010            0.04        0.00        0.01
   0.00000000  -0.00000043   0.00000000            0.00       -0.06        0.00
   0.00000010   0.00000000   0.00000043            0.01        0.00        0.06

     kinetic stress (kbar)  18513.65      0.00    -30.50
                                0.00  18443.96      0.00
                              -30.50      0.00  18448.30

     local   stress (kbar) -28496.30      0.00   1018.82
                                0.00 -26160.95      0.00
                             1018.82      0.00   4883.14

     nonloc. stress (kbar)   3905.11      0.00      3.02
                                0.00   3903.38      0.00
                                3.02      0.00   3889.68

     hartree stress (kbar)  15928.02     -0.00   -396.82
                               -0.00  14807.08      0.00
                             -396.82      0.00   -333.71

     exc-cor stress (kbar)  -2360.88     -0.00     -0.95
                               -0.00  -2359.86     -0.00
                               -0.95     -0.00  -2360.38

     corecor stress (kbar)  -1986.57      0.00      0.39
                                0.00  -1986.77      0.00
                                0.39      0.00  -1987.07

     ewald   stress (kbar)  -5488.76     -0.00   -594.01
                               -0.00  -6633.03     -0.00
                             -594.01     -0.00 -22528.35

     hubbard stress (kbar)      0.00      0.00      0.00
                                0.00      0.00      0.00
                                0.00      0.00      0.00

     DFT-D   stress (kbar)    -14.22      0.00      0.04
                                0.00    -13.88     -0.00
                                0.04     -0.00    -11.54

     XDM     stress (kbar)      0.00      0.00      0.00
                                0.00      0.00      0.00
                                0.00      0.00      0.00

     dft-nl  stress (kbar)      0.00      0.00      0.00
                                0.00      0.00      0.00
                                0.00      0.00      0.00

     TS-vdW  stress (kbar)      0.00      0.00      0.00
                                0.00      0.00      0.00
                                0.00      0.00      0.00

     MDB     stress (kbar)      0.00      0.00      0.00
                                0.00      0.00      0.00
                                0.00      0.00      0.00

     3D-RISM stress (kbar)      0.00      0.00      0.00
                                0.00      0.00      0.00
                                0.00      0.00      0.00


     Writing all to output data dir ./temp/phl-ti1-ti1.save/ :
     XML data file, charge density, pseudopotentials, collected wavefunctions

     init_run     :    312.84s CPU    315.62s WALL (       2 calls)
     electrons    :  99548.93s CPU 100280.24s WALL (      17 calls)
     update_pot   :     39.42s CPU     39.79s WALL (      15 calls)
     forces       :   1949.23s CPU   1959.54s WALL (      17 calls)
     force_dftd3  :     67.34s CPU     67.45s WALL (      17 calls)
     stress       :   6663.98s CPU   6720.01s WALL (      17 calls)
     stres_dftd3  :     67.32s CPU     67.45s WALL (      17 calls)

     Called by init_run:
     wfcinit      :    298.14s CPU    299.87s WALL (       2 calls)
     wfcinit:atom :      0.49s CPU      0.49s WALL (      80 calls)
     wfcinit:wfcr :    293.45s CPU    295.16s WALL (      80 calls)
     potinit      :      5.40s CPU      5.48s WALL (       2 calls)
     hinit0       :      1.93s CPU      1.97s WALL (       2 calls)

     Called by electrons:
     c_bands      :  91674.08s CPU  92184.41s WALL (     167 calls)
     sum_band     :   6915.01s CPU   7064.91s WALL (     167 calls)
     v_of_rho     :     63.48s CPU     65.96s WALL (     169 calls)
     v_h          :      2.06s CPU      2.17s WALL (     169 calls)
     v_xc         :     73.74s CPU     76.66s WALL (     203 calls)
     newd         :    578.80s CPU    654.22s WALL (     169 calls)
     PAW_pot      :    382.93s CPU    383.02s WALL (     184 calls)
     mix_rho      :      8.27s CPU      8.66s WALL (     167 calls)
     energy_dftd3 :     51.84s CPU     51.85s WALL (      17 calls)

     Called by c_bands:
     init_us_2    :    247.02s CPU    247.29s WALL (   15400 calls)
     cegterg      :  91191.11s CPU  91700.13s WALL (    6725 calls)

     Called by sum_band:
     sum_band:wei :      0.08s CPU      0.08s WALL (     167 calls)
     sum_band:loo :   5781.65s CPU   5844.06s WALL (     167 calls)
     sum_band:buf :     27.44s CPU     27.52s WALL (    6680 calls)
     sum_band:ini :    108.52s CPU    108.60s WALL (    6680 calls)
     sum_band:cal :   4555.50s CPU   4558.40s WALL (    7280 calls)
     sum_band:bec :     11.72s CPU     11.74s WALL (    7280 calls)
     addusdens    :   1115.71s CPU   1202.53s WALL (     167 calls)
                                        0.00s GPU  (     167 calls)
     addusd:skk   :      3.87s CPU      6.05s WALL (    1169 calls)
                                        0.00s GPU  (    1169 calls)

     Called by *egterg:
     cdiaghg      :   4063.35s CPU   4063.87s WALL (   46767 calls)
     cegterg:over :  11385.34s CPU  11397.56s WALL (   41287 calls)
     cegterg:upda :   6806.30s CPU   6837.39s WALL (   41287 calls)
     cegterg:last :  18389.96s CPU  18391.97s WALL (   19523 calls)
     h_psi        :  33905.61s CPU  34278.44s WALL (   48092 calls)
     s_psi        :  13583.09s CPU  13585.00s WALL (   48092 calls)
     g_psi        :     67.06s CPU     67.20s WALL (   41287 calls)

     Called by h_psi:
     h_psi:calbec :  13310.20s CPU  13320.64s WALL (   48092 calls)
     vloc_psi     :   6942.10s CPU   7264.63s WALL (   48092 calls)
     add_vuspsi   :  13590.15s CPU  13592.24s WALL (   48092 calls)

     General routines
     calbec       :  19990.48s CPU  20005.34s WALL (   58772 calls)
     fft          :     33.80s CPU     37.16s WALL (    4916 calls)
     ffts         :      0.99s CPU      1.07s WALL (     672 calls)
     fftw         :   5892.62s CPU   6122.42s WALL ( 7382116 calls)
     interpolate  :      3.70s CPU      3.93s WALL (     338 calls)

     Parallel routines

     PAW routines
     PAW_pot      :    382.93s CPU    383.02s WALL (     184 calls)
     PAW_symme    :      0.12s CPU      0.13s WALL (     351 calls)

     PWSCF        :   1d 6h16m CPU   1d 6h30m WALL


   This run was terminated on:   3:39:26  14Mar2025            

=------------------------------------------------------------------------------=
   JOB DONE.
=------------------------------------------------------------------------------=
