
     Program PWSCF v.7.3.1 starts on 25Jan2025 at  6: 9:12 

     This program is part of the open-source Quantum ESPRESSO suite
     for quantum simulation of materials; please cite
         "P. Giannozzi et al., J. Phys.:Condens. Matter 21 395502 (2009);
         "P. Giannozzi et al., J. Phys.:Condens. Matter 29 465901 (2017);
         "P. Giannozzi et al., J. Chem. Phys. 152 154105 (2020);
          URL http://www.quantum-espresso.org", 
     in publications or presentations arising from this work. More details at
     http://www.quantum-espresso.org/quote

     Parallel version (MPI), running on     6 processors

     MPI processes distributed on     1 nodes
     2577 MiB available memory on the printing compute node when the environment starts

     Reading input from vc_relax.in

     Current dimensions of program PWSCF are:
     Max number of different atomic species (ntypx) = 10
     Max number of k-points (npk) =  40000
     Max angular momentum in pseudopotentials (lmaxx) =  4
     file Al.pbe-n-kjpaw_psl.1.0.0.UPF: wavefunction(s)  3S 3P renormalized
     file Fe.pbe-spn-kjpaw_psl.1.0.0.UPF: wavefunction(s)  3P 3D renormalized
     file H.pbe-kjpaw_psl.1.0.0.UPF: wavefunction(s)  1S renormalized
     file K.pbe-spn-kjpaw_psl.1.0.0.UPF: wavefunction(s)  3S renormalized
     file Mg.pbe-spnl-kjpaw_psl.1.0.0.UPF: wavefunction(s)  2P renormalized
     file O.pbe-n-kjpaw_psl.1.0.0.UPF: wavefunction(s)  2S 2P renormalized
     file Si.pbe-n-kjpaw_psl.1.0.0.UPF: wavefunction(s)  3S 3P renormalized

     R & G space division:  proc/nbgrp/npool/nimage =       6
     Subspace diagonalization in iterative solution of the eigenvalue problem:
     one sub-group per band group will be used
     custom distributed-memory algorithm (size of sub-group:  2*  2 procs)


     Parallelization info
     --------------------
     sticks:   dense  smooth     PW     G-vecs:    dense   smooth      PW
     Min        1105     554    150                97744    34578    4918
     Max        1106     555    151                97745    34580    4920
     Sum        6633    3329    905               586467   207475   29511

     Using Slab Decomposition



     bravais-lattice index     =          -12
     lattice parameter (alat)  =      10.0136  a.u.
     unit-cell volume          =    3303.4414 (a.u.)^3
     number of atoms/cell      =           44
     number of atomic types    =            7
     number of electrons       =       262.00
     number of Kohn-Sham states=          157
     kinetic-energy cutoff     =      60.0000  Ry
     charge density cutoff     =     480.0000  Ry
     scf convergence threshold =      1.0E-06
     mixing beta               =       0.7000
     number of iterations used =            8  plain     mixing
     energy convergence thresh.=      1.0E-04
     force convergence thresh. =      1.0E-03
     press convergence thresh. =      5.0E-01
     Exchange-correlation= SLA  PW   PBX  PBC
                           (   1   4   3   4   0   0   0)
     nstep                     =           50


     celldm(1)=  10.013640  celldm(2)=   1.735306  celldm(3)=   1.926511
     celldm(4)=   0.000000  celldm(5)=  -0.177565  celldm(6)=   0.000000

     crystal axes: (cart. coord. in units of alat)
               a(1) = (   1.000000   0.000000   0.000000 )  
               a(2) = (   0.000000   1.735306   0.000000 )  
               a(3) = (  -0.342081   0.000000   1.895896 )  

     reciprocal axes: (cart. coord. in units 2 pi/alat)
               b(1) = (  1.000000 -0.000000  0.180432 )  
               b(2) = (  0.000000  0.576267 -0.000000 )  
               b(3) = (  0.000000  0.000000  0.527455 )  


     PseudoPot. # 1 for Al read from file:
     ./../../../pseudos/Al.pbe-n-kjpaw_psl.1.0.0.UPF
     MD5 check sum: 502b6b27b9c6270cab5dd1084b96fa6d
     Pseudo is Projector augmented-wave + core cor, Zval =  3.0
     Generated using &quot;atomic&quot; code by A. Dal Corso  v.6.3
     Shape of augmentation charge: PSQ
     Using radial grid of 1135 points,  6 beta functions with: 
                l(1) =   0
                l(2) =   0
                l(3) =   1
                l(4) =   1
                l(5) =   2
                l(6) =   2
     Q(r) pseudized with 0 coefficients 


     PseudoPot. # 2 for Fe read from file:
     ./../../../pseudos/Fe.pbe-spn-kjpaw_psl.1.0.0.UPF
     MD5 check sum: fc81f059e5c5069939230b1155715ae8
     Pseudo is Projector augmented-wave + core cor, Zval = 16.0
     Generated using &quot;atomic&quot; code by A. Dal Corso  v.6.3
     Shape of augmentation charge: PSQ
     Using radial grid of 1191 points,  6 beta functions with: 
                l(1) =   0
                l(2) =   0
                l(3) =   1
                l(4) =   1
                l(5) =   2
                l(6) =   2
     Q(r) pseudized with 0 coefficients 


     PseudoPot. # 3 for H  read from file:
     ./../../../pseudos/H.pbe-kjpaw_psl.1.0.0.UPF
     MD5 check sum: d81a744832360e4a8af0b0b5b123bc2a
     Pseudo is Projector augmented-wave, Zval =  1.0
     Generated using &quot;atomic&quot; code by A. Dal Corso  v.6.3MaX
     Shape of augmentation charge: PSQ
     Using radial grid of  929 points,  2 beta functions with: 
                l(1) =   0
                l(2) =   0
     Q(r) pseudized with 0 coefficients 


     PseudoPot. # 4 for K  read from file:
     ./../../../pseudos/K.pbe-spn-kjpaw_psl.1.0.0.UPF
     MD5 check sum: 34cc42130a09071ebe376fd42eb21491
     Pseudo is Projector augmented-wave + core cor, Zval =  9.0
     Generated using &quot;atomic&quot; code by A. Dal Corso  v.6.2.2
     Shape of augmentation charge: PSQ
     Using radial grid of 1165 points,  6 beta functions with: 
                l(1) =   0
                l(2) =   0
                l(3) =   1
                l(4) =   1
                l(5) =   2
                l(6) =   2
     Q(r) pseudized with 0 coefficients 


     PseudoPot. # 5 for Mg read from file:
     ./../../../pseudos/Mg.pbe-spnl-kjpaw_psl.1.0.0.UPF
     MD5 check sum: fda14e0d92a6a9a5ebed782e5a4b3067
     Pseudo is Projector augmented-wave + core cor, Zval = 10.0
     Generated using &quot;atomic&quot; code by A. Dal Corso  v.6.3
     Shape of augmentation charge: PSQ
     Using radial grid of 1129 points,  4 beta functions with: 
                l(1) =   0
                l(2) =   0
                l(3) =   1
                l(4) =   1
     Q(r) pseudized with 0 coefficients 


     PseudoPot. # 6 for O  read from file:
     ./../../../pseudos/O.pbe-n-kjpaw_psl.1.0.0.UPF
     MD5 check sum: e99d9cef9b487d1ca56f5b95ecd0fd7a
     Pseudo is Projector augmented-wave + core cor, Zval =  6.0
     Generated using &quot;atomic&quot; code by A. Dal Corso  v.6.3
     Shape of augmentation charge: PSQ
     Using radial grid of 1095 points,  4 beta functions with: 
                l(1) =   0
                l(2) =   0
                l(3) =   1
                l(4) =   1
     Q(r) pseudized with 0 coefficients 


     PseudoPot. # 7 for Si read from file:
     ./../../../pseudos/Si.pbe-n-kjpaw_psl.1.0.0.UPF
     MD5 check sum: c39c59da582df4a0d9f10159256ea34e
     Pseudo is Projector augmented-wave + core cor, Zval =  4.0
     Generated using &quot;atomic&quot; code by A. Dal Corso  v.6.3
     Shape of augmentation charge: PSQ
     Using radial grid of 1141 points,  6 beta functions with: 
                l(1) =   0
                l(2) =   0
                l(3) =   1
                l(4) =   1
                l(5) =   2
                l(6) =   2
     Q(r) pseudized with 0 coefficients 


     atomic species   valence    mass     pseudopotential
     Al                3.00    26.98154     Al( 1.00)
     Fe               16.00    55.84500     Fe( 1.00)
     H                 1.00     1.00794     H ( 1.00)
     K                 9.00    39.09830     K ( 1.00)
     Mg               10.00    24.30500     Mg( 1.00)
     O                 6.00    15.99940     O ( 1.00)
     Si                4.00    28.08550     Si( 1.00)

     Starting magnetic structure 
     atomic species   magnetization
     Al              0.000
     Fe              0.300
     H               0.000
     K               0.000
     Mg              0.000
     O               0.000
     Si              0.000

      2 Sym. Ops. (no inversion) found


                                    s                        frac. trans.

      isym =  1     identity                                     

 cryst.   s( 1) = (     1          0          0      )
                  (     0          1          0      )
                  (     0          0          1      )

 cart.    s( 1) = (  1.0000000  0.0000000 -0.0000000 )
                  (  0.0000000  1.0000000  0.0000000 )
                  (  0.0000000  0.0000000  1.0000000 )


      isym =  2     180 deg rotation - cart. axis [0,1,0]        

 cryst.   s( 2) = (    -1          0          0      )
                  (     0          1          0      )
                  (     0          0         -1      )

 cart.    s( 2) = ( -1.0000000  0.0000000  0.0000000 )
                  (  0.0000000  1.0000000  0.0000000 )
                  (  0.0000000  0.0000000 -1.0000000 )


     point group C_2  (2)   
     there are  2 classes
     the character table:

       E     C2   
A      1.00  1.00
B      1.00 -1.00

     the symmetry operations in each class and the name of the first element:

     E        1
          identity                                               
     C2       2
          180 deg rotation - cart. axis [0,1,0]                  

   Cartesian axes

     site n.     atom                  positions (alat units)
         1        K      tau(   1) = (   0.0000000   0.8560190   0.0000000  )
         2        K      tau(   2) = (   0.5000000   0.0081038   0.0000000  )
         3        Mg     tau(   3) = (  -0.1710407   0.0069456   0.9479482  )
         4        Mg     tau(   4) = (  -0.1710407   0.5770654   0.9479482  )
         5        Mg     tau(   5) = (  -0.1710407   1.1555422   0.9479482  )
         6        Mg     tau(   6) = (   0.3289593   1.4494048   0.9479482  )
         7        Mg     tau(   7) = (   0.3289593   0.2939271   0.9479482  )
         8        Si     tau(   8) = (   0.0068247   0.2864825   0.4208391  )
         9        Si     tau(   9) = (   0.6510939   0.2864825   1.4750573  )
        10        Si     tau(  10) = (   0.6707210   1.4477490   1.4637577  )
        11        Si     tau(  11) = (  -0.0128023   1.4477490   0.4321387  )
        12        Si     tau(  12) = (   0.4871031   1.1582030   0.4284274  )
        13        Si     tau(  13) = (   0.1708156   1.1582030   1.4674690  )
        14        Al     tau(  14) = (   0.1504390   0.5748074   1.4718496  )
        15        Al     tau(  15) = (   0.5074797   0.5748074   0.4240468  )
        16        O      tau(  16) = (  -0.0039295   0.2831938   0.7288140  )
        17        O      tau(  17) = (   0.6618482   0.2831938   1.1670825  )
        18        O      tau(  18) = (   0.6653059   1.4462173   1.1583348  )
        19        O      tau(  19) = (  -0.0073872   1.4462173   0.7375616  )
        20        O      tau(  20) = (   0.4950792   1.1693170   0.7348048  )
        21        O      tau(  21) = (   0.1628394   1.1693170   1.1610916  )
        22        O      tau(  22) = (   0.1536397   0.5699872   1.1444927  )
        23        O      tau(  23) = (   0.5042790   0.5699872   0.7514037  )
        24        O      tau(  24) = (   0.2857642   0.3528703   0.3114540  )
        25        O      tau(  25) = (   0.3721544   0.3528703   1.5844424  )
        26        O      tau(  26) = (   0.9381565   1.7306703   0.3163993  )
        27        O      tau(  27) = (  -0.2802378   1.7306703   1.5794971  )
        28        O      tau(  28) = (   0.3991469   1.3448739   1.5781197  )
        29        O      tau(  29) = (   0.2587718   1.3448739   0.3177767  )
        30        O      tau(  30) = (   0.7583780   1.2707131   0.3149237  )
        31        O      tau(  31) = (  -0.1004593   1.2707131   1.5809727  )
        32        O      tau(  32) = (   0.4409876   0.8816861   0.3082312  )
        33        O      tau(  33) = (   0.2169311   0.8816861   1.5876653  )
        34        O      tau(  34) = (  -0.1437476   0.4798456   1.5957696  )
        35        O      tau(  35) = (   0.8016664   0.4798456   0.3001269  )
        36        O      tau(  36) = (  -0.0158209   0.8740699   0.7424429  )
        37        O      tau(  37) = (   0.6737396   0.8740699   1.1534534  )
        38        O      tau(  38) = (   0.4970957   1.7339201   0.7530387  )
        39        O      tau(  39) = (   0.1608230   1.7339201   1.1428577  )
        40        H      tau(  40) = (  -0.0004115   0.8598225   0.5612907  )
        41        H      tau(  41) = (   0.6583302   0.8598225   1.3346057  )
        42        H      tau(  42) = (   0.4924095   0.0236853   0.5725440  )
        43        H      tau(  43) = (   0.1655092   0.0236853   1.3233524  )
        44        Fe     tau(  44) = (   0.3289593   0.8534908   0.9479482  )

     --------------------------------------------
     DFT-D3 Dispersion Correction (3-body terms):
     --------------------------------------------
       Reference C6 values for interpolation: 

         atom   Coordination number   C6
         H          0.912             6.05
         H          0.000            15.18
         O          0.000            31.01
         O          0.993            25.63
         O          1.989            20.74
         Mg         0.000          1366.75
         Mg         0.963           902.54
         Mg         1.950           351.12
         Al         0.000          1081.08
         Al         0.965           875.51
         Al         1.931           513.50
         Al         2.915           307.19
         Si         0.000           635.71
         Si         0.951           540.53
         Si         1.944           466.25
         Si         2.941           443.01
         Si         3.868           299.55
         K          0.000          9967.00
         K          0.977           676.04
         Fe         0.000           982.67
         Fe         1.648           409.99
         Fe         9.138           219.01

       Values used:

         atom   Coordination number  R0_AB[au]  C6      C8
         K         13.720            4.007    676.04 129074.98
         K         13.965            4.007    676.04 129074.98
         Mg        11.881            3.292    351.12  31436.69
         Mg        11.593            3.292    351.12  31436.69
         Mg        11.106            3.292    351.12  31436.69
         Mg        11.428            3.292    351.12  31436.69
         Mg        11.982            3.292    351.12  31436.69
         Si         6.959            3.583    299.55  21425.58
         Si         6.959            3.583    299.55  21425.58
         Si         6.552            3.583    299.55  21425.58
         Si         6.552            3.583    299.55  21425.58
         Si         6.428            3.583    299.55  21425.58
         Si         6.428            3.583    299.55  21425.58
         Al         7.608            3.789    307.19  29441.29
         Al         7.608            3.789    307.19  29441.29
         O          3.925            2.345     20.74    418.58
         O          3.925            2.345     20.74    418.58
         O          3.926            2.345     20.74    418.58
         O          3.926            2.345     20.74    418.58
         O          3.531            2.345     20.74    418.58
         O          3.531            2.345     20.74    418.58
         O          3.815            2.345     20.74    418.58
         O          3.815            2.345     20.74    418.58
         O          3.193            2.345     20.74    418.58
         O          3.193            2.345     20.74    418.58
         O          3.160            2.345     20.74    418.58
         O          3.160            2.345     20.74    418.58
         O          3.075            2.345     20.74    418.58
         O          3.075            2.345     20.74    418.58
         O          3.086            2.345     20.74    418.58
         O          3.086            2.345     20.74    418.58
         O          3.179            2.345     20.74    418.58
         O          3.179            2.345     20.74    418.58
         O          3.264            2.345     20.74    418.58
         O          3.264            2.345     20.74    418.58
         O          3.713            2.345     20.74    418.58
         O          3.713            2.345     20.74    418.58
         O          4.009            2.345     20.74    418.58
         O          4.009            2.345     20.74    418.58
         H          1.318            2.062      6.07     73.33
         H          1.318            2.062      6.07     73.33
         H          1.307            2.062      6.07     73.34
         H          1.307            2.062      6.07     73.34
         Fe         7.473            3.252    219.01  20487.87

         Molecular C6 ( Ry / a.u.^6 ) =    165304.64


   Crystallographic axes

     site n.     atom                  positions (cryst. coord.)
         1        K      tau(   1) = (  0.0000000  0.4932956  0.0000000  )
         2        K      tau(   2) = (  0.5000000  0.0046699  0.0000000  )
         3        Mg     tau(   3) = (  0.0000000  0.0040025  0.5000000  )
         4        Mg     tau(   4) = (  0.0000000  0.3325439  0.5000000  )
         5        Mg     tau(   5) = (  0.0000000  0.6659011  0.5000000  )
         6        Mg     tau(   6) = (  0.5000000  0.8352444  0.5000000  )
         7        Mg     tau(   7) = (  0.5000000  0.1693805  0.5000000  )
         8        Si     tau(   8) = (  0.0827578  0.1650904  0.2219737  )
         9        Si     tau(   9) = (  0.9172422  0.1650904  0.7780263  )
        10        Si     tau(  10) = (  0.9348304  0.8342903  0.7720663  )
        11        Si     tau(  11) = (  0.0651696  0.8342903  0.2279337  )
        12        Si     tau(  12) = (  0.5644053  0.6674344  0.2259762  )
        13        Si     tau(  13) = (  0.4355946  0.6674344  0.7740238  )
        14        Al     tau(  14) = (  0.4160085  0.3312426  0.7763344  )
        15        Al     tau(  15) = (  0.5839915  0.3312426  0.2236656  )
        16        O      tau(  16) = (  0.1275722  0.1631953  0.3844166  )
        17        O      tau(  17) = (  0.8724278  0.1631953  0.6155835  )
        18        O      tau(  18) = (  0.8743072  0.8334076  0.6109695  )
        19        O      tau(  19) = (  0.1256929  0.8334076  0.3890305  )
        20        O      tau(  20) = (  0.6276619  0.6738390  0.3875764  )
        21        O      tau(  21) = (  0.3723381  0.6738390  0.6124235  )
        22        O      tau(  22) = (  0.3601434  0.3284649  0.6036684  )
        23        O      tau(  23) = (  0.6398566  0.3284649  0.3963316  )
        24        O      tau(  24) = (  0.3419607  0.2033475  0.1642780  )
        25        O      tau(  25) = (  0.6580393  0.2033475  0.8357220  )
        26        O      tau(  26) = (  0.9952452  0.9973285  0.1668864  )
        27        O      tau(  27) = (  0.0047548  0.9973285  0.8331136  )
        28        O      tau(  28) = (  0.6838909  0.7750067  0.8323871  )
        29        O      tau(  29) = (  0.3161091  0.7750067  0.1676129  )
        30        O      tau(  30) = (  0.8152004  0.7322702  0.1661081  )
        31        O      tau(  31) = (  0.1847996  0.7322702  0.8338919  )
        32        O      tau(  32) = (  0.4966025  0.5080867  0.1625781  )
        33        O      tau(  33) = (  0.5033975  0.5080867  0.8374220  )
        34        O      tau(  34) = (  0.1441811  0.2765193  0.8416966  )
        35        O      tau(  35) = (  0.8558190  0.2765193  0.1583034  )
        36        O      tau(  36) = (  0.1181399  0.5036978  0.3916052  )
        37        O      tau(  37) = (  0.8818601  0.5036978  0.6083947  )
        38        O      tau(  38) = (  0.6329683  0.9992012  0.3971940  )
        39        O      tau(  39) = (  0.3670317  0.9992012  0.6028060  )
        40        H      tau(  40) = (  0.1008636  0.4954875  0.2960556  )
        41        H      tau(  41) = (  0.8991364  0.4954875  0.7039444  )
        42        H      tau(  42) = (  0.5957150  0.0136491  0.3019912  )
        43        H      tau(  43) = (  0.4042849  0.0136491  0.6980088  )
        44        Fe     tau(  44) = (  0.5000000  0.4918387  0.5000000  )

     number of k points=    20  Gaussian smearing, width (Ry)=  0.0010
                       cart. coord. in units 2pi/alat
        k(    1) = (   0.0000000   0.0000000   0.0000000), wk =   0.0185185
        k(    2) = (   0.0000000   0.0000000   0.1758183), wk =   0.0370370
        k(    3) = (   0.0000000   0.1920891   0.0000000), wk =   0.0370370
        k(    4) = (   0.0000000   0.1920891   0.1758183), wk =   0.0740741
        k(    5) = (   0.1666667   0.0000000   0.0300721), wk =   0.0370370
        k(    6) = (   0.1666667   0.0000000   0.2058904), wk =   0.0370370
        k(    7) = (   0.1666667   0.0000000  -0.1457462), wk =   0.0370370
        k(    8) = (   0.1666667   0.1920891   0.0300721), wk =   0.0740741
        k(    9) = (   0.1666667   0.1920891   0.2058904), wk =   0.0740741
        k(   10) = (   0.1666667   0.1920891  -0.1457462), wk =   0.0740741
        k(   11) = (   0.3333333   0.0000000   0.0601442), wk =   0.0370370
        k(   12) = (   0.3333333   0.0000000   0.2359625), wk =   0.0370370
        k(   13) = (   0.3333333   0.0000000  -0.1156742), wk =   0.0370370
        k(   14) = (   0.3333333   0.1920891   0.0601442), wk =   0.0740741
        k(   15) = (   0.3333333   0.1920891   0.2359625), wk =   0.0740741
        k(   16) = (   0.3333333   0.1920891  -0.1156742), wk =   0.0740741
        k(   17) = (  -0.5000000   0.0000000  -0.0902162), wk =   0.0185185
        k(   18) = (  -0.5000000   0.0000000   0.0856021), wk =   0.0370370
        k(   19) = (  -0.5000000   0.1920891  -0.0902162), wk =   0.0370370
        k(   20) = (  -0.5000000   0.1920891   0.0856021), wk =   0.0740741

                       cryst. coord.
        k(    1) = (   0.0000000   0.0000000   0.0000000), wk =   0.0185185
        k(    2) = (   0.0000000   0.0000000   0.3333333), wk =   0.0370370
        k(    3) = (   0.0000000   0.3333333   0.0000000), wk =   0.0370370
        k(    4) = (   0.0000000   0.3333333   0.3333333), wk =   0.0740741
        k(    5) = (   0.1666667   0.0000000  -0.0000000), wk =   0.0370370
        k(    6) = (   0.1666667   0.0000000   0.3333333), wk =   0.0370370
        k(    7) = (   0.1666667   0.0000000  -0.3333333), wk =   0.0370370
        k(    8) = (   0.1666667   0.3333333  -0.0000000), wk =   0.0740741
        k(    9) = (   0.1666667   0.3333333   0.3333333), wk =   0.0740741
        k(   10) = (   0.1666667   0.3333333  -0.3333333), wk =   0.0740741
        k(   11) = (   0.3333333   0.0000000  -0.0000000), wk =   0.0370370
        k(   12) = (   0.3333333   0.0000000   0.3333333), wk =   0.0370370
        k(   13) = (   0.3333333   0.0000000  -0.3333333), wk =   0.0370370
        k(   14) = (   0.3333333   0.3333333  -0.0000000), wk =   0.0740741
        k(   15) = (   0.3333333   0.3333333   0.3333333), wk =   0.0740741
        k(   16) = (   0.3333333   0.3333333  -0.3333333), wk =   0.0740741
        k(   17) = (  -0.5000000   0.0000000   0.0000000), wk =   0.0185185
        k(   18) = (  -0.5000000   0.0000000   0.3333333), wk =   0.0370370
        k(   19) = (  -0.5000000   0.3333333   0.0000000), wk =   0.0370370
        k(   20) = (  -0.5000000   0.3333333   0.3333333), wk =   0.0740741

     Dense  grid:   586467 G-vectors     FFT dimensions: (  72, 125, 135)

     Smooth grid:   207475 G-vectors     FFT dimensions: (  50,  90,  96)

     Dynamical RAM for                 wfc:      10.35 MB

     Dynamical RAM for     wfc (w. buffer):     424.41 MB

     Dynamical RAM for           str. fact:      10.44 MB

     Dynamical RAM for           local pot:       0.00 MB

     Dynamical RAM for          nlocal pot:      28.88 MB

     Dynamical RAM for                qrad:      24.61 MB

     Dynamical RAM for          rho,v,vnew:      18.42 MB

     Dynamical RAM for               rhoin:       6.14 MB

     Dynamical RAM for            rho*nmix:      47.73 MB

     Dynamical RAM for           G-vectors:       5.86 MB

     Dynamical RAM for          h,s,v(r/c):       1.13 MB

     Dynamical RAM for          <psi|beta>:       1.05 MB

     Dynamical RAM for                 psi:      20.70 MB

     Dynamical RAM for                hpsi:      20.70 MB

     Dynamical RAM for                spsi:      20.70 MB

     Dynamical RAM for      wfcinit/wfcrot:      24.90 MB

     Dynamical RAM for           addusdens:     314.70 MB

     Dynamical RAM for          addusforce:     383.50 MB

     Dynamical RAM for         addusstress:     302.02 MB

     Estimated static dynamical RAM per process >     540.17 MB

     Estimated max dynamical RAM per process >     971.40 MB

     Estimated total dynamical RAM >       5.69 GB

     Check: negative core charge=   -0.000004
     Generating pointlists ...
     new r_m :   0.1351 (alat units)  1.3524 (a.u.) for type    1
     new r_m :   0.1596 (alat units)  1.5984 (a.u.) for type    2
     new r_m :   0.0752 (alat units)  0.7530 (a.u.) for type    3
     new r_m :   0.2110 (alat units)  2.1133 (a.u.) for type    4
     new r_m :   0.1566 (alat units)  1.5680 (a.u.) for type    5
     new r_m :   0.0752 (alat units)  0.7530 (a.u.) for type    6
     new r_m :   0.1258 (alat units)  1.2599 (a.u.) for type    7

     Initial potential from superposition of free atoms

     starting charge     261.9493, renormalised to     262.0000
     Starting wfcs are  183 randomized atomic wfcs
     Checking if some PAW data can be deallocated... 
       PAW data deallocated on    5 nodes for type:  1
       PAW data deallocated on    5 nodes for type:  2
       PAW data deallocated on    5 nodes for type:  3
       PAW data deallocated on    5 nodes for type:  4
       PAW data deallocated on    5 nodes for type:  5
       PAW data deallocated on    1 nodes for type:  6
       PAW data deallocated on    4 nodes for type:  7

     total cpu time spent up to now is      109.1 secs

     Self-consistent Calculation

     iteration #  1     ecut=    60.00 Ry     beta= 0.70
     Davidson diagonalization with overlap

---- Real-time Memory Report at c_bands before calling an iterative solver
           616 MiB given to the printing process from OS
             0 MiB allocation reported by mallinfo(arena+hblkhd)
           411 MiB available memory on the node where the printing process lives
------------------
     ethr =  1.00E-02,  avg # of iterations =  5.9

     total cpu time spent up to now is      453.5 secs

     total energy              =   -2623.68051928 Ry
     estimated scf accuracy    <      12.43267795 Ry

     total magnetization       =     4.00 Bohr mag/cell
     absolute magnetization    =     4.05 Bohr mag/cell

     iteration #  2     ecut=    60.00 Ry     beta= 0.70
     Davidson diagonalization with overlap

---- Real-time Memory Report at c_bands before calling an iterative solver
           898 MiB given to the printing process from OS
             0 MiB allocation reported by mallinfo(arena+hblkhd)
          1867 MiB available memory on the node where the printing process lives
------------------
     ethr =  4.75E-03,  avg # of iterations =  5.1

     total cpu time spent up to now is      965.8 secs

     total energy              =   -2628.71400385 Ry
     estimated scf accuracy    <      12.71116755 Ry

     total magnetization       =     3.42 Bohr mag/cell
     absolute magnetization    =     4.01 Bohr mag/cell

     iteration #  3     ecut=    60.00 Ry     beta= 0.70
     Davidson diagonalization with overlap

---- Real-time Memory Report at c_bands before calling an iterative solver
           901 MiB given to the printing process from OS
             0 MiB allocation reported by mallinfo(arena+hblkhd)
          1851 MiB available memory on the node where the printing process lives
------------------
     ethr =  4.75E-03,  avg # of iterations =  2.0

     total cpu time spent up to now is     1241.2 secs

     total energy              =   -2629.36810192 Ry
     estimated scf accuracy    <      10.24565196 Ry

     total magnetization       =     3.10 Bohr mag/cell
     absolute magnetization    =     3.75 Bohr mag/cell

     iteration #  4     ecut=    60.00 Ry     beta= 0.70
     Davidson diagonalization with overlap

---- Real-time Memory Report at c_bands before calling an iterative solver
           903 MiB given to the printing process from OS
             0 MiB allocation reported by mallinfo(arena+hblkhd)
          1830 MiB available memory on the node where the printing process lives
------------------
     ethr =  3.91E-03,  avg # of iterations =  2.0

     total cpu time spent up to now is     1518.5 secs

     total energy              =   -2630.60057937 Ry
     estimated scf accuracy    <       0.81883699 Ry

     total magnetization       =     4.00 Bohr mag/cell
     absolute magnetization    =     4.47 Bohr mag/cell

     iteration #  5     ecut=    60.00 Ry     beta= 0.70
     Davidson diagonalization with overlap

---- Real-time Memory Report at c_bands before calling an iterative solver
           905 MiB given to the printing process from OS
             0 MiB allocation reported by mallinfo(arena+hblkhd)
          1790 MiB available memory on the node where the printing process lives
------------------
     c_bands:  1 eigenvalues not converged
     c_bands:  1 eigenvalues not converged
     ethr =  3.13E-04,  avg # of iterations = 11.4

     total cpu time spent up to now is     2072.8 secs

     total energy              =   -2631.20863370 Ry
     estimated scf accuracy    <       0.10000240 Ry

     total magnetization       =     4.00 Bohr mag/cell
     absolute magnetization    =     4.07 Bohr mag/cell

     iteration #  6     ecut=    60.00 Ry     beta= 0.70
     Davidson diagonalization with overlap

---- Real-time Memory Report at c_bands before calling an iterative solver
           905 MiB given to the printing process from OS
             0 MiB allocation reported by mallinfo(arena+hblkhd)
          1767 MiB available memory on the node where the printing process lives
------------------
     c_bands:  1 eigenvalues not converged
     c_bands:  2 eigenvalues not converged
     c_bands:  2 eigenvalues not converged
     c_bands:  1 eigenvalues not converged
     c_bands:  2 eigenvalues not converged
     c_bands:  1 eigenvalues not converged
     c_bands:  1 eigenvalues not converged
     c_bands:  1 eigenvalues not converged
     c_bands:  1 eigenvalues not converged
     c_bands:  1 eigenvalues not converged
     c_bands:  1 eigenvalues not converged
     c_bands:  1 eigenvalues not converged
     c_bands:  1 eigenvalues not converged
     c_bands:  1 eigenvalues not converged
     c_bands:  2 eigenvalues not converged
     c_bands:  1 eigenvalues not converged
     c_bands:  1 eigenvalues not converged
     c_bands:  1 eigenvalues not converged
     c_bands:  3 eigenvalues not converged
     ethr =  3.82E-05,  avg # of iterations = 18.4

     negative rho (up, down):  0.000E+00 4.049E-05

     total cpu time spent up to now is     2647.3 secs

     total energy              =   -2631.23667104 Ry
     estimated scf accuracy    <       0.03695348 Ry

     total magnetization       =     4.00 Bohr mag/cell
     absolute magnetization    =     4.07 Bohr mag/cell

     iteration #  7     ecut=    60.00 Ry     beta= 0.70
     Davidson diagonalization with overlap

---- Real-time Memory Report at c_bands before calling an iterative solver
           908 MiB given to the printing process from OS
             0 MiB allocation reported by mallinfo(arena+hblkhd)
          1770 MiB available memory on the node where the printing process lives
------------------
     c_bands:  1 eigenvalues not converged
     c_bands:  1 eigenvalues not converged
     c_bands:  1 eigenvalues not converged
     c_bands:  1 eigenvalues not converged
     c_bands:  1 eigenvalues not converged
     c_bands:  1 eigenvalues not converged
     c_bands:  1 eigenvalues not converged
     c_bands:  1 eigenvalues not converged
     c_bands:  3 eigenvalues not converged
     ethr =  1.41E-05,  avg # of iterations = 13.4

     negative rho (up, down):  0.000E+00 7.750E-05

     total cpu time spent up to now is     3077.7 secs

     total energy              =   -2631.24356272 Ry
     estimated scf accuracy    <       0.00928136 Ry

     total magnetization       =     4.00 Bohr mag/cell
     absolute magnetization    =     4.06 Bohr mag/cell

     iteration #  8     ecut=    60.00 Ry     beta= 0.70
     Davidson diagonalization with overlap

---- Real-time Memory Report at c_bands before calling an iterative solver
           910 MiB given to the printing process from OS
             0 MiB allocation reported by mallinfo(arena+hblkhd)
          1788 MiB available memory on the node where the printing process lives
------------------
     c_bands:  1 eigenvalues not converged
     c_bands:  1 eigenvalues not converged
     c_bands:  1 eigenvalues not converged
     ethr =  3.54E-06,  avg # of iterations = 10.2

     negative rho (up, down):  0.000E+00 9.457E-05

     total cpu time spent up to now is     3509.3 secs

     total energy              =   -2631.24569770 Ry
     estimated scf accuracy    <       0.00339337 Ry

     total magnetization       =     4.00 Bohr mag/cell
     absolute magnetization    =     4.06 Bohr mag/cell

     iteration #  9     ecut=    60.00 Ry     beta= 0.70
     Davidson diagonalization with overlap

---- Real-time Memory Report at c_bands before calling an iterative solver
           912 MiB given to the printing process from OS
             0 MiB allocation reported by mallinfo(arena+hblkhd)
          1786 MiB available memory on the node where the printing process lives
------------------
     c_bands:  1 eigenvalues not converged
     c_bands:  1 eigenvalues not converged
     c_bands:  1 eigenvalues not converged
     ethr =  1.30E-06,  avg # of iterations =  6.3

     negative rho (up, down):  0.000E+00 1.107E-04

     total cpu time spent up to now is     3852.3 secs

     total energy              =   -2631.24604740 Ry
     estimated scf accuracy    <       0.00155653 Ry

     total magnetization       =     4.00 Bohr mag/cell
     absolute magnetization    =     4.05 Bohr mag/cell

     iteration # 10     ecut=    60.00 Ry     beta= 0.70
     Davidson diagonalization with overlap

---- Real-time Memory Report at c_bands before calling an iterative solver
           914 MiB given to the printing process from OS
             0 MiB allocation reported by mallinfo(arena+hblkhd)
          1767 MiB available memory on the node where the printing process lives
------------------
     c_bands:  1 eigenvalues not converged
     ethr =  5.94E-07,  avg # of iterations =  6.4

     negative rho (up, down):  0.000E+00 1.248E-04

     total cpu time spent up to now is     4202.0 secs

     total energy              =   -2631.24632707 Ry
     estimated scf accuracy    <       0.00045501 Ry

     total magnetization       =     4.00 Bohr mag/cell
     absolute magnetization    =     4.05 Bohr mag/cell

     iteration # 11     ecut=    60.00 Ry     beta= 0.70
     Davidson diagonalization with overlap

---- Real-time Memory Report at c_bands before calling an iterative solver
           914 MiB given to the printing process from OS
             0 MiB allocation reported by mallinfo(arena+hblkhd)
          1776 MiB available memory on the node where the printing process lives
------------------
     ethr =  1.74E-07,  avg # of iterations =  6.3

     negative rho (up, down):  0.000E+00 1.326E-04

     total cpu time spent up to now is     4648.8 secs

     total energy              =   -2631.24665874 Ry
     estimated scf accuracy    <       0.00013322 Ry

     total magnetization       =     4.00 Bohr mag/cell
     absolute magnetization    =     4.05 Bohr mag/cell

     iteration # 12     ecut=    60.00 Ry     beta= 0.70
     Davidson diagonalization with overlap

---- Real-time Memory Report at c_bands before calling an iterative solver
           914 MiB given to the printing process from OS
             0 MiB allocation reported by mallinfo(arena+hblkhd)
          1762 MiB available memory on the node where the printing process lives
------------------
     ethr =  5.08E-08,  avg # of iterations =  6.6

     negative rho (up, down):  0.000E+00 1.279E-04

     total cpu time spent up to now is     4997.3 secs

     total energy              =   -2631.24668362 Ry
     estimated scf accuracy    <       0.00013490 Ry

     total magnetization       =     4.00 Bohr mag/cell
     absolute magnetization    =     4.05 Bohr mag/cell

     iteration # 13     ecut=    60.00 Ry     beta= 0.70
     Davidson diagonalization with overlap

---- Real-time Memory Report at c_bands before calling an iterative solver
           914 MiB given to the printing process from OS
             0 MiB allocation reported by mallinfo(arena+hblkhd)
          1776 MiB available memory on the node where the printing process lives
------------------
     ethr =  5.08E-08,  avg # of iterations =  3.7

     negative rho (up, down):  0.000E+00 1.292E-04

     total cpu time spent up to now is     5321.3 secs

     total energy              =   -2631.24672812 Ry
     estimated scf accuracy    <       0.00003384 Ry

     total magnetization       =     4.00 Bohr mag/cell
     absolute magnetization    =     4.05 Bohr mag/cell

     iteration # 14     ecut=    60.00 Ry     beta= 0.70
     Davidson diagonalization with overlap

---- Real-time Memory Report at c_bands before calling an iterative solver
           914 MiB given to the printing process from OS
             0 MiB allocation reported by mallinfo(arena+hblkhd)
          1765 MiB available memory on the node where the printing process lives
------------------
     ethr =  1.29E-08,  avg # of iterations =  4.9

     negative rho (up, down):  0.000E+00 1.336E-04

     total cpu time spent up to now is     5767.9 secs

     total energy              =   -2631.24673343 Ry
     estimated scf accuracy    <       0.00003997 Ry

     total magnetization       =     4.00 Bohr mag/cell
     absolute magnetization    =     4.05 Bohr mag/cell

     iteration # 15     ecut=    60.00 Ry     beta= 0.70
     Davidson diagonalization with overlap

---- Real-time Memory Report at c_bands before calling an iterative solver
           914 MiB given to the printing process from OS
             0 MiB allocation reported by mallinfo(arena+hblkhd)
          1767 MiB available memory on the node where the printing process lives
------------------
     ethr =  1.29E-08,  avg # of iterations =  5.9

     negative rho (up, down):  0.000E+00 1.383E-04

     total cpu time spent up to now is     6305.9 secs

     total energy              =   -2631.24676127 Ry
     estimated scf accuracy    <       0.00012773 Ry

     total magnetization       =     4.00 Bohr mag/cell
     absolute magnetization    =     4.05 Bohr mag/cell

     iteration # 16     ecut=    60.00 Ry     beta= 0.70
     Davidson diagonalization with overlap

---- Real-time Memory Report at c_bands before calling an iterative solver
           914 MiB given to the printing process from OS
             0 MiB allocation reported by mallinfo(arena+hblkhd)
          1772 MiB available memory on the node where the printing process lives
------------------
     ethr =  1.29E-08,  avg # of iterations =  4.6

     negative rho (up, down):  0.000E+00 1.395E-04

     total cpu time spent up to now is     6636.6 secs

     total energy              =   -2631.24677630 Ry
     estimated scf accuracy    <       0.00003997 Ry

     total magnetization       =     4.00 Bohr mag/cell
     absolute magnetization    =     4.05 Bohr mag/cell

     iteration # 17     ecut=    60.00 Ry     beta= 0.70
     Davidson diagonalization with overlap

---- Real-time Memory Report at c_bands before calling an iterative solver
           914 MiB given to the printing process from OS
             0 MiB allocation reported by mallinfo(arena+hblkhd)
          1765 MiB available memory on the node where the printing process lives
------------------
     ethr =  1.29E-08,  avg # of iterations =  4.0

     negative rho (up, down):  0.000E+00 1.384E-04

     total cpu time spent up to now is     6948.1 secs

     total energy              =   -2631.24677698 Ry
     estimated scf accuracy    <       0.00000984 Ry

     total magnetization       =     4.00 Bohr mag/cell
     absolute magnetization    =     4.05 Bohr mag/cell

     iteration # 18     ecut=    60.00 Ry     beta= 0.70
     Davidson diagonalization with overlap

---- Real-time Memory Report at c_bands before calling an iterative solver
           914 MiB given to the printing process from OS
             0 MiB allocation reported by mallinfo(arena+hblkhd)
          1765 MiB available memory on the node where the printing process lives
------------------
     ethr =  3.75E-09,  avg # of iterations =  5.9

     negative rho (up, down):  0.000E+00 1.388E-04

     total cpu time spent up to now is     7477.9 secs

     total energy              =   -2631.24678613 Ry
     estimated scf accuracy    <       0.00000854 Ry

     total magnetization       =     4.00 Bohr mag/cell
     absolute magnetization    =     4.05 Bohr mag/cell

     iteration # 19     ecut=    60.00 Ry     beta= 0.70
     Davidson diagonalization with overlap

---- Real-time Memory Report at c_bands before calling an iterative solver
           914 MiB given to the printing process from OS
             0 MiB allocation reported by mallinfo(arena+hblkhd)
          1770 MiB available memory on the node where the printing process lives
------------------
     ethr =  3.26E-09,  avg # of iterations =  2.0

     negative rho (up, down):  0.000E+00 1.394E-04

     total cpu time spent up to now is     7752.7 secs

     total energy              =   -2631.24678436 Ry
     estimated scf accuracy    <       0.00000344 Ry

     total magnetization       =     4.00 Bohr mag/cell
     absolute magnetization    =     4.05 Bohr mag/cell

     iteration # 20     ecut=    60.00 Ry     beta= 0.70
     Davidson diagonalization with overlap

---- Real-time Memory Report at c_bands before calling an iterative solver
           914 MiB given to the printing process from OS
             0 MiB allocation reported by mallinfo(arena+hblkhd)
          1773 MiB available memory on the node where the printing process lives
------------------
     ethr =  1.31E-09,  avg # of iterations =  4.0

     negative rho (up, down):  0.000E+00 1.393E-04

     Magnetic moment per site  (integrated on atomic sphere of radius R)
     atom   1 (R=0.211)  charge=  7.4834  magn=  0.0001
     atom   2 (R=0.211)  charge=  7.4871  magn=  0.0000
     atom   3 (R=0.157)  charge=  8.0979  magn= -0.0000
     atom   4 (R=0.157)  charge=  8.1010  magn=  0.0003
     atom   5 (R=0.157)  charge=  8.0961  magn=  0.0001
     atom   6 (R=0.157)  charge=  8.0990  magn=  0.0001
     atom   7 (R=0.157)  charge=  8.1049  magn=  0.0005
     atom   8 (R=0.126)  charge=  0.5483  magn=  0.0000
     atom   9 (R=0.126)  charge=  0.5483  magn=  0.0000
     atom  10 (R=0.126)  charge=  0.5413  magn=  0.0000
     atom  11 (R=0.126)  charge=  0.5413  magn=  0.0000
     atom  12 (R=0.126)  charge=  0.5404  magn=  0.0010
     atom  13 (R=0.126)  charge=  0.5404  magn=  0.0010
     atom  14 (R=0.135)  charge=  0.3380  magn=  0.0012
     atom  15 (R=0.135)  charge=  0.3380  magn=  0.0012
     atom  16 (R=0.075)  charge=  1.9405  magn=  0.0003
     atom  17 (R=0.075)  charge=  1.9405  magn=  0.0003
     atom  18 (R=0.075)  charge=  1.9415  magn=  0.0001
     atom  19 (R=0.075)  charge=  1.9415  magn=  0.0001
     atom  20 (R=0.075)  charge=  1.9378  magn=  0.0153
     atom  21 (R=0.075)  charge=  1.9378  magn=  0.0153
     atom  22 (R=0.075)  charge=  1.9363  magn=  0.0277
     atom  23 (R=0.075)  charge=  1.9363  magn=  0.0277
     atom  24 (R=0.075)  charge=  1.9415  magn=  0.0003
     atom  25 (R=0.075)  charge=  1.9415  magn=  0.0003
     atom  26 (R=0.075)  charge=  1.9467  magn=  0.0000
     atom  27 (R=0.075)  charge=  1.9467  magn=  0.0000
     atom  28 (R=0.075)  charge=  1.9463  magn=  0.0003
     atom  29 (R=0.075)  charge=  1.9463  magn=  0.0003
     atom  30 (R=0.075)  charge=  1.9445  magn=  0.0009
     atom  31 (R=0.075)  charge=  1.9445  magn=  0.0009
     atom  32 (R=0.075)  charge=  1.9425  magn= -0.0001
     atom  33 (R=0.075)  charge=  1.9425  magn= -0.0001
     atom  34 (R=0.075)  charge=  1.9394  magn=  0.0008
     atom  35 (R=0.075)  charge=  1.9394  magn=  0.0008
     atom  36 (R=0.075)  charge=  1.9374  magn=  0.0206
     atom  37 (R=0.075)  charge=  1.9374  magn=  0.0206
     atom  38 (R=0.075)  charge=  1.9424  magn=  0.0007
     atom  39 (R=0.075)  charge=  1.9424  magn=  0.0007
     atom  40 (R=0.075)  charge=  0.4009  magn=  0.0001
     atom  41 (R=0.075)  charge=  0.4009  magn=  0.0001
     atom  42 (R=0.075)  charge=  0.3997  magn= -0.0000
     atom  43 (R=0.075)  charge=  0.3997  magn= -0.0000
     atom  44 (R=0.160)  charge= 13.3428  magn=  3.3079

     total cpu time spent up to now is     8193.0 secs

     End of self-consistent calculation

 ------ SPIN UP ------------


          k = 0.0000 0.0000 0.0000 ( 25927 PWs)   bands (ev):

   -81.2103 -67.4835 -67.4717 -67.4116 -66.9621 -66.9406 -48.2433 -47.0546
   -46.5015 -34.2556 -34.2403 -34.2363 -34.2234 -34.2218 -34.2084 -34.1745
   -34.1707 -34.1445 -33.7343 -33.7290 -33.7104 -33.6926 -33.6867 -33.6748
   -22.9444 -22.9395 -15.0174 -14.9615 -14.0788 -14.0316 -13.5565 -13.5313
   -13.3548 -13.2317 -13.1966 -13.0297 -12.8080 -12.8020 -12.7810 -12.7676
   -12.6928 -12.5918 -12.4772 -12.4191 -12.2221 -12.2019 -12.1712 -12.0447
   -11.3143 -11.0839  -6.5258  -6.5034  -6.4407  -6.4348  -6.4160  -6.4135
    -4.2074  -4.1501  -2.3496  -2.2471  -1.7945  -1.3539  -1.1294  -1.0826
    -1.0048  -0.9299  -0.6291  -0.5300  -0.3707  -0.3238  -0.2804  -0.1106
     0.0387   0.0990   0.2346   0.5180   0.6568   0.6603   0.7304   0.9050
     0.9376   1.1548   1.2004   1.2526   1.4238   1.5532   1.5643   1.6970
     1.7639   1.8022   1.9827   2.0871   2.1642   2.2087   2.2155   2.2983
     2.3932   2.4069   2.5829   2.7032   2.7183   2.7312   2.7634   2.8103
     2.9102   3.0220   3.0466   3.0684   3.1197   3.1676   3.3239   3.3373
     3.3817   3.3979   3.4688   3.4983   3.5800   3.6727   3.7852   3.8047
     3.8530   3.8817   3.8918   3.9967   4.0046   4.2042   4.3404   4.3897
     5.2757   5.4042   6.4741   6.8897   7.0564   9.1316  10.6560  11.2654
    11.6349  11.9334  12.1615  12.2634  12.5285  12.6599  13.0420  13.0793
    13.1455  13.3050  13.3594  13.5057  13.6351  13.6707  13.7564  13.8073
    13.8343  14.0213  14.2946  14.3035  14.3961

     occupation numbers 
     1.0000   1.0000   1.0000   1.0000   1.0000   1.0000   1.0000   1.0000
     1.0000   1.0000   1.0000   1.0000   1.0000   1.0000   1.0000   1.0000
     1.0000   1.0000   1.0000   1.0000   1.0000   1.0000   1.0000   1.0000
     1.0000   1.0000   1.0000   1.0000   1.0000   1.0000   1.0000   1.0000
     1.0000   1.0000   1.0000   1.0000   1.0000   1.0000   1.0000   1.0000
     1.0000   1.0000   1.0000   1.0000   1.0000   1.0000   1.0000   1.0000
     1.0000   1.0000   1.0000   1.0000   1.0000   1.0000   1.0000   1.0000
     1.0000   1.0000   1.0000   1.0000   1.0000   1.0000   1.0000   1.0000
     1.0000   1.0000   1.0000   1.0000   1.0000   1.0000   1.0000   1.0000
     1.0000   1.0000   1.0000   1.0000   1.0000   1.0000   1.0000   1.0000
     1.0000   1.0000   1.0000   1.0000   1.0000   1.0000   1.0000   1.0000
     1.0000   1.0000   1.0000   1.0000   1.0000   1.0000   1.0000   1.0000
     1.0000   1.0000   1.0000   1.0000   1.0000   1.0000   1.0000   1.0000
     1.0000   1.0000   1.0000   1.0000   1.0000   1.0000   1.0000   1.0000
     1.0000   1.0000   1.0000   1.0000   1.0000   1.0000   1.0000   1.0000
     1.0000   1.0000   1.0000   1.0000   1.0000   1.0000   1.0000   1.0000
     1.0000   1.0000   1.0000   1.0000   1.0000   0.0000   0.0000   0.0000
     0.0000   0.0000   0.0000   0.0000   0.0000   0.0000   0.0000   0.0000
     0.0000   0.0000   0.0000   0.0000   0.0000   0.0000   0.0000   0.0000
     0.0000   0.0000   0.0000   0.0000   0.0000

          k = 0.0000 0.0000 0.1758 ( 25971 PWs)   bands (ev):

   -81.2103 -67.4835 -67.4717 -67.4116 -66.9621 -66.9406 -48.2433 -47.0546
   -46.5016 -34.2556 -34.2403 -34.2363 -34.2234 -34.2218 -34.2084 -34.1745
   -34.1707 -34.1446 -33.7343 -33.7290 -33.7104 -33.6926 -33.6867 -33.6748
   -22.9444 -22.9395 -15.0040 -14.9759 -14.0676 -14.0434 -13.5571 -13.5307
   -13.3435 -13.2527 -13.1878 -13.0253 -12.8099 -12.7943 -12.7833 -12.7776
   -12.6844 -12.5961 -12.4694 -12.4265 -12.2273 -12.1910 -12.1692 -12.0518
   -11.3140 -11.0848  -6.5259  -6.5035  -6.4407  -6.4348  -6.4160  -6.4134
    -4.2059  -4.1520  -2.3261  -2.2752  -1.7618  -1.3427  -1.1223  -1.0837
    -1.0023  -0.9484  -0.5975  -0.5428  -0.4130  -0.3000  -0.2863  -0.2122
     0.0491   0.1426   0.1948   0.4541   0.6404   0.6507   0.7438   0.9421
     0.9824   1.1404   1.2226   1.2538   1.4801   1.5028   1.6185   1.7177
     1.7917   1.8289   2.0481   2.1341   2.1669   2.1973   2.2408   2.2964
     2.3509   2.3902   2.5934   2.6695   2.6827   2.6963   2.7078   2.8260
     2.8610   2.9643   3.0373   3.1289   3.1426   3.1741   3.2790   3.3440
     3.3695   3.4259   3.4306   3.5627   3.5949   3.7137   3.7637   3.7834
     3.8437   3.8693   3.8844   3.9580   3.9885   4.2651   4.3360   4.3894
     5.2749   5.4028   6.4755   6.8810   7.0592   9.4461  10.1721  11.3532
    11.6875  11.7838  12.1555  12.2310  12.7553  12.8497  12.9790  13.0837
    13.2245  13.2721  13.3752  13.4392  13.5245  13.6881  13.7740  13.8028
    13.9095  14.0616  14.0813  14.3341  14.3536

     occupation numbers 
     1.0000   1.0000   1.0000   1.0000   1.0000   1.0000   1.0000   1.0000
     1.0000   1.0000   1.0000   1.0000   1.0000   1.0000   1.0000   1.0000
     1.0000   1.0000   1.0000   1.0000   1.0000   1.0000   1.0000   1.0000
     1.0000   1.0000   1.0000   1.0000   1.0000   1.0000   1.0000   1.0000
     1.0000   1.0000   1.0000   1.0000   1.0000   1.0000   1.0000   1.0000
     1.0000   1.0000   1.0000   1.0000   1.0000   1.0000   1.0000   1.0000
     1.0000   1.0000   1.0000   1.0000   1.0000   1.0000   1.0000   1.0000
     1.0000   1.0000   1.0000   1.0000   1.0000   1.0000   1.0000   1.0000
     1.0000   1.0000   1.0000   1.0000   1.0000   1.0000   1.0000   1.0000
     1.0000   1.0000   1.0000   1.0000   1.0000   1.0000   1.0000   1.0000
     1.0000   1.0000   1.0000   1.0000   1.0000   1.0000   1.0000   1.0000
     1.0000   1.0000   1.0000   1.0000   1.0000   1.0000   1.0000   1.0000
     1.0000   1.0000   1.0000   1.0000   1.0000   1.0000   1.0000   1.0000
     1.0000   1.0000   1.0000   1.0000   1.0000   1.0000   1.0000   1.0000
     1.0000   1.0000   1.0000   1.0000   1.0000   1.0000   1.0000   1.0000
     1.0000   1.0000   1.0000   1.0000   1.0000   1.0000   1.0000   1.0000
     1.0000   1.0000   1.0000   1.0000   1.0000   0.0000   0.0000   0.0000
     0.0000   0.0000   0.0000   0.0000   0.0000   0.0000   0.0000   0.0000
     0.0000   0.0000   0.0000   0.0000   0.0000   0.0000   0.0000   0.0000
     0.0000   0.0000   0.0000   0.0000   0.0000

          k = 0.0000 0.1921 0.0000 ( 25933 PWs)   bands (ev):

   -81.2103 -67.4835 -67.4717 -67.4116 -66.9621 -66.9406 -48.2433 -47.0546
   -46.5016 -34.2556 -34.2404 -34.2363 -34.2234 -34.2218 -34.2084 -34.1744
   -34.1707 -34.1445 -33.7343 -33.7290 -33.7104 -33.6926 -33.6867 -33.6748
   -22.9443 -22.9396 -15.0123 -14.9565 -14.1136 -14.0626 -13.5567 -13.5314
   -13.2696 -13.1792 -13.1247 -13.0469 -12.8878 -12.8545 -12.8021 -12.7585
   -12.7174 -12.5909 -12.4642 -12.4144 -12.2219 -12.2000 -12.1671 -12.0409
   -11.3125 -11.0835  -6.5206  -6.5089  -6.4397  -6.4311  -6.4174  -6.4167
    -4.1677  -4.1090  -2.4967  -2.3909  -1.7427  -1.4057  -1.0180  -0.9906
    -0.9343  -0.8652  -0.7044  -0.5983  -0.3856  -0.2922  -0.2131  -0.0880
    -0.0385   0.1645   0.2287   0.5072   0.5961   0.6138   0.7500   0.9029
     0.9389   1.0998   1.1279   1.2630   1.4282   1.5960   1.5980   1.7048
     1.8121   1.8601   2.0090   2.1178   2.1556   2.1905   2.2743   2.3538
     2.3889   2.4771   2.5663   2.6397   2.7056   2.7085   2.7772   2.8684
     2.9431   3.0154   3.0191   3.0800   3.1279   3.1527   3.2792   3.2858
     3.3818   3.4409   3.4858   3.5240   3.5883   3.6041   3.7593   3.8171
     3.8290   3.8686   3.9471   3.9879   3.9886   4.1196   4.2205   4.3675
     5.2878   5.3985   6.4743   6.8519   7.0643   9.5338  10.4794  10.8829
    11.4857  11.8987  12.3143  12.6029  12.6177  12.7782  12.9151  13.0779
    13.1782  13.3032  13.3702  13.4650  13.5149  13.6434  13.6808  13.7712
    13.7752  13.8389  14.3557  14.3762  14.5279

     occupation numbers 
     1.0000   1.0000   1.0000   1.0000   1.0000   1.0000   1.0000   1.0000
     1.0000   1.0000   1.0000   1.0000   1.0000   1.0000   1.0000   1.0000
     1.0000   1.0000   1.0000   1.0000   1.0000   1.0000   1.0000   1.0000
     1.0000   1.0000   1.0000   1.0000   1.0000   1.0000   1.0000   1.0000
     1.0000   1.0000   1.0000   1.0000   1.0000   1.0000   1.0000   1.0000
     1.0000   1.0000   1.0000   1.0000   1.0000   1.0000   1.0000   1.0000
     1.0000   1.0000   1.0000   1.0000   1.0000   1.0000   1.0000   1.0000
     1.0000   1.0000   1.0000   1.0000   1.0000   1.0000   1.0000   1.0000
     1.0000   1.0000   1.0000   1.0000   1.0000   1.0000   1.0000   1.0000
     1.0000   1.0000   1.0000   1.0000   1.0000   1.0000   1.0000   1.0000
     1.0000   1.0000   1.0000   1.0000   1.0000   1.0000   1.0000   1.0000
     1.0000   1.0000   1.0000   1.0000   1.0000   1.0000   1.0000   1.0000
     1.0000   1.0000   1.0000   1.0000   1.0000   1.0000   1.0000   1.0000
     1.0000   1.0000   1.0000   1.0000   1.0000   1.0000   1.0000   1.0000
     1.0000   1.0000   1.0000   1.0000   1.0000   1.0000   1.0000   1.0000
     1.0000   1.0000   1.0000   1.0000   1.0000   1.0000   1.0000   1.0000
     1.0000   1.0000   1.0000   1.0000   1.0000   0.0000   0.0000   0.0000
     0.0000   0.0000   0.0000   0.0000   0.0000   0.0000   0.0000   0.0000
     0.0000   0.0000   0.0000   0.0000   0.0000   0.0000   0.0000   0.0000
     0.0000   0.0000   0.0000   0.0000   0.0000

          k = 0.0000 0.1921 0.1758 ( 25924 PWs)   bands (ev):

   -81.2103 -67.4835 -67.4717 -67.4116 -66.9621 -66.9406 -48.2433 -47.0546
   -46.5016 -34.2556 -34.2404 -34.2363 -34.2234 -34.2218 -34.2084 -34.1744
   -34.1707 -34.1446 -33.7343 -33.7290 -33.7104 -33.6926 -33.6867 -33.6748
   -22.9443 -22.9396 -14.9988 -14.9709 -14.1013 -14.0758 -13.5573 -13.5308
   -13.2626 -13.1719 -13.1440 -13.0364 -12.9026 -12.8388 -12.8036 -12.7616
   -12.7141 -12.5951 -12.4570 -12.4217 -12.2268 -12.1904 -12.1638 -12.0480
   -11.3122 -11.0844  -6.5207  -6.5090  -6.4397  -6.4310  -6.4173  -6.4166
    -4.1630  -4.1141  -2.4732  -2.4171  -1.7143  -1.3952  -1.0071  -0.9909
    -0.9233  -0.8879  -0.6802  -0.6238  -0.4151  -0.2678  -0.2382  -0.1706
     0.0055   0.1606   0.1854   0.4740   0.5825   0.5985   0.7732   0.9145
     0.9986   1.0469   1.1264   1.3142   1.5116   1.5818   1.6695   1.7220
     1.8182   1.8797   2.0371   2.0676   2.1488   2.2441   2.2881   2.3655
     2.4072   2.4328   2.5551   2.6266   2.6555   2.7094   2.7774   2.8335
     2.8783   2.9535   3.0288   3.0932   3.1053   3.1845   3.2345   3.2952
     3.4375   3.4563   3.4751   3.5347   3.6000   3.6346   3.6884   3.8082
     3.8511   3.8899   3.9091   3.9647   3.9834   4.1267   4.2763   4.3698
     5.2880   5.3955   6.4757   6.8422   7.0671   9.8067  10.4553  10.6738
    11.1787  11.8780  12.2983  12.6464  12.7711  12.9625  13.0108  13.1009
    13.2309  13.2804  13.4143  13.4484  13.5734  13.5991  13.6438  13.7199
    13.7943  13.9584  14.2342  14.3462  14.4333

     occupation numbers 
     1.0000   1.0000   1.0000   1.0000   1.0000   1.0000   1.0000   1.0000
     1.0000   1.0000   1.0000   1.0000   1.0000   1.0000   1.0000   1.0000
     1.0000   1.0000   1.0000   1.0000   1.0000   1.0000   1.0000   1.0000
     1.0000   1.0000   1.0000   1.0000   1.0000   1.0000   1.0000   1.0000
     1.0000   1.0000   1.0000   1.0000   1.0000   1.0000   1.0000   1.0000
     1.0000   1.0000   1.0000   1.0000   1.0000   1.0000   1.0000   1.0000
     1.0000   1.0000   1.0000   1.0000   1.0000   1.0000   1.0000   1.0000
     1.0000   1.0000   1.0000   1.0000   1.0000   1.0000   1.0000   1.0000
     1.0000   1.0000   1.0000   1.0000   1.0000   1.0000   1.0000   1.0000
     1.0000   1.0000   1.0000   1.0000   1.0000   1.0000   1.0000   1.0000
     1.0000   1.0000   1.0000   1.0000   1.0000   1.0000   1.0000   1.0000
     1.0000   1.0000   1.0000   1.0000   1.0000   1.0000   1.0000   1.0000
     1.0000   1.0000   1.0000   1.0000   1.0000   1.0000   1.0000   1.0000
     1.0000   1.0000   1.0000   1.0000   1.0000   1.0000   1.0000   1.0000
     1.0000   1.0000   1.0000   1.0000   1.0000   1.0000   1.0000   1.0000
     1.0000   1.0000   1.0000   1.0000   1.0000   1.0000   1.0000   1.0000
     1.0000   1.0000   1.0000   1.0000   1.0000   0.0000   0.0000   0.0000
     0.0000   0.0000   0.0000   0.0000   0.0000   0.0000   0.0000   0.0000
     0.0000   0.0000   0.0000   0.0000   0.0000   0.0000   0.0000   0.0000
     0.0000   0.0000   0.0000   0.0000   0.0000

          k = 0.1667 0.0000 0.0301 ( 25941 PWs)   bands (ev):

   -81.2103 -67.4835 -67.4717 -67.4116 -66.9621 -66.9406 -48.2433 -47.0546
   -46.5016 -34.2548 -34.2422 -34.2353 -34.2236 -34.2215 -34.2083 -34.1744
   -34.1708 -34.1446 -33.7351 -33.7279 -33.7104 -33.6932 -33.6857 -33.6754
   -22.9442 -22.9394 -14.9589 -14.9041 -14.0973 -14.0532 -13.6730 -13.6395
   -13.2861 -13.1688 -13.1370 -13.0142 -12.8220 -12.8184 -12.7750 -12.7671
   -12.6831 -12.6003 -12.4931 -12.4296 -12.2907 -12.2428 -12.1559 -12.0311
   -11.3106 -11.0873  -6.5257  -6.5075  -6.4389  -6.4328  -6.4140  -6.4130
    -4.0506  -3.9895  -2.3182  -2.2144  -1.7793  -1.3718  -1.3500  -1.3056
    -0.8353  -0.7405  -0.6205  -0.5823  -0.3786  -0.2984  -0.2671  -0.1099
     0.0100   0.1507   0.2199   0.4950   0.5748   0.6826   0.7091   0.8253
     1.0630   1.1462   1.2287   1.2596   1.3652   1.4488   1.5927   1.6058
     1.7035   1.9297   1.9749   2.0264   2.1175   2.2435   2.3096   2.3649
     2.3927   2.4231   2.5762   2.6281   2.6974   2.7410   2.7777   2.8300
     2.9260   2.9688   3.0246   3.1033   3.1135   3.2318   3.2717   3.3100
     3.3861   3.4099   3.4704   3.4779   3.5906   3.6586   3.7502   3.7991
     3.8374   3.8724   3.9112   3.9376   3.9735   4.1416   4.2241   4.3458
     5.2613   5.3655   6.4781   6.8951   7.0600   9.4554  10.8302  11.3373
    11.7613  11.9708  12.1752  12.4137  12.6000  12.7277  12.9178  13.0558
    13.1339  13.2770  13.3217  13.5217  13.5972  13.6463  13.7149  13.7861
    13.8854  14.1095  14.1933  14.2676  14.4239

     occupation numbers 
     1.0000   1.0000   1.0000   1.0000   1.0000   1.0000   1.0000   1.0000
     1.0000   1.0000   1.0000   1.0000   1.0000   1.0000   1.0000   1.0000
     1.0000   1.0000   1.0000   1.0000   1.0000   1.0000   1.0000   1.0000
     1.0000   1.0000   1.0000   1.0000   1.0000   1.0000   1.0000   1.0000
     1.0000   1.0000   1.0000   1.0000   1.0000   1.0000   1.0000   1.0000
     1.0000   1.0000   1.0000   1.0000   1.0000   1.0000   1.0000   1.0000
     1.0000   1.0000   1.0000   1.0000   1.0000   1.0000   1.0000   1.0000
     1.0000   1.0000   1.0000   1.0000   1.0000   1.0000   1.0000   1.0000
     1.0000   1.0000   1.0000   1.0000   1.0000   1.0000   1.0000   1.0000
     1.0000   1.0000   1.0000   1.0000   1.0000   1.0000   1.0000   1.0000
     1.0000   1.0000   1.0000   1.0000   1.0000   1.0000   1.0000   1.0000
     1.0000   1.0000   1.0000   1.0000   1.0000   1.0000   1.0000   1.0000
     1.0000   1.0000   1.0000   1.0000   1.0000   1.0000   1.0000   1.0000
     1.0000   1.0000   1.0000   1.0000   1.0000   1.0000   1.0000   1.0000
     1.0000   1.0000   1.0000   1.0000   1.0000   1.0000   1.0000   1.0000
     1.0000   1.0000   1.0000   1.0000   1.0000   1.0000   1.0000   1.0000
     1.0000   1.0000   1.0000   1.0000   1.0000   0.0000   0.0000   0.0000
     0.0000   0.0000   0.0000   0.0000   0.0000   0.0000   0.0000   0.0000
     0.0000   0.0000   0.0000   0.0000   0.0000   0.0000   0.0000   0.0000
     0.0000   0.0000   0.0000   0.0000   0.0000

          k = 0.1667 0.0000 0.2059 ( 25961 PWs)   bands (ev):

   -81.2103 -67.4835 -67.4717 -67.4116 -66.9621 -66.9406 -48.2433 -47.0545
   -46.5016 -34.2548 -34.2422 -34.2353 -34.2236 -34.2215 -34.2083 -34.1744
   -34.1708 -34.1446 -33.7351 -33.7279 -33.7104 -33.6932 -33.6857 -33.6754
   -22.9442 -22.9394 -14.9419 -14.9221 -14.0879 -14.0633 -13.6688 -13.6439
   -13.2754 -13.1848 -13.1335 -13.0086 -12.8187 -12.8152 -12.7878 -12.7671
   -12.6753 -12.6045 -12.4878 -12.4353 -12.2864 -12.2478 -12.1448 -12.0405
   -11.3101 -11.0883  -6.5259  -6.5075  -6.4389  -6.4328  -6.4138  -6.4130
    -4.0543  -3.9859  -2.2973  -2.2404  -1.7436  -1.4081  -1.3335  -1.2797
    -0.8310  -0.7423  -0.6230  -0.5692  -0.3959  -0.2930  -0.2644  -0.2288
     0.0452   0.1722   0.1976   0.4275   0.5535   0.6595   0.7078   0.8841
     1.0946   1.1407   1.2339   1.2709   1.3844   1.4778   1.5840   1.6865
     1.7115   1.9463   1.9996   2.0502   2.2149   2.2240   2.2784   2.3301
     2.3998   2.4468   2.5678   2.5977   2.6255   2.6847   2.7451   2.8086
     2.9101   2.9826   3.0220   3.0960   3.1681   3.2050   3.2414   3.3486
     3.3620   3.4084   3.4449   3.5001   3.6233   3.7145   3.7605   3.7659
     3.8098   3.8642   3.8883   3.9149   3.9431   4.2014   4.2421   4.3527
     5.2590   5.3651   6.4793   6.8887   7.0600   9.8233  10.2856  11.4129
    11.8000  11.8461  12.2259  12.3143  12.5600  12.8754  13.0592  13.1597
    13.1879  13.3461  13.3686  13.3925  13.5639  13.6421  13.7198  13.8283
    13.8922  13.9303  14.1316  14.3021  14.4132

     occupation numbers 
     1.0000   1.0000   1.0000   1.0000   1.0000   1.0000   1.0000   1.0000
     1.0000   1.0000   1.0000   1.0000   1.0000   1.0000   1.0000   1.0000
     1.0000   1.0000   1.0000   1.0000   1.0000   1.0000   1.0000   1.0000
     1.0000   1.0000   1.0000   1.0000   1.0000   1.0000   1.0000   1.0000
     1.0000   1.0000   1.0000   1.0000   1.0000   1.0000   1.0000   1.0000
     1.0000   1.0000   1.0000   1.0000   1.0000   1.0000   1.0000   1.0000
     1.0000   1.0000   1.0000   1.0000   1.0000   1.0000   1.0000   1.0000
     1.0000   1.0000   1.0000   1.0000   1.0000   1.0000   1.0000   1.0000
     1.0000   1.0000   1.0000   1.0000   1.0000   1.0000   1.0000   1.0000
     1.0000   1.0000   1.0000   1.0000   1.0000   1.0000   1.0000   1.0000
     1.0000   1.0000   1.0000   1.0000   1.0000   1.0000   1.0000   1.0000
     1.0000   1.0000   1.0000   1.0000   1.0000   1.0000   1.0000   1.0000
     1.0000   1.0000   1.0000   1.0000   1.0000   1.0000   1.0000   1.0000
     1.0000   1.0000   1.0000   1.0000   1.0000   1.0000   1.0000   1.0000
     1.0000   1.0000   1.0000   1.0000   1.0000   1.0000   1.0000   1.0000
     1.0000   1.0000   1.0000   1.0000   1.0000   1.0000   1.0000   1.0000
     1.0000   1.0000   1.0000   1.0000   1.0000   0.0000   0.0000   0.0000
     0.0000   0.0000   0.0000   0.0000   0.0000   0.0000   0.0000   0.0000
     0.0000   0.0000   0.0000   0.0000   0.0000   0.0000   0.0000   0.0000
     0.0000   0.0000   0.0000   0.0000   0.0000

          k = 0.1667 0.0000-0.1457 ( 25956 PWs)   bands (ev):

   -81.2103 -67.4835 -67.4717 -67.4116 -66.9621 -66.9406 -48.2433 -47.0546
   -46.5016 -34.2548 -34.2422 -34.2353 -34.2236 -34.2215 -34.2083 -34.1744
   -34.1708 -34.1446 -33.7351 -33.7279 -33.7104 -33.6932 -33.6857 -33.6754
   -22.9442 -22.9394 -14.9494 -14.9144 -14.0888 -14.0624 -13.6677 -13.6449
   -13.2797 -13.1701 -13.1448 -13.0097 -12.8198 -12.8141 -12.7874 -12.7632
   -12.6794 -12.6044 -12.4821 -12.4405 -12.2733 -12.2616 -12.1450 -12.0388
   -11.3099 -11.0882  -6.5259  -6.5075  -6.4389  -6.4328  -6.4138  -6.4130
    -4.0368  -4.0038  -2.2941  -2.2417  -1.7580  -1.4062  -1.3276  -1.2879
    -0.8167  -0.7606  -0.5952  -0.5720  -0.4063  -0.3009  -0.2771  -0.1894
     0.0149   0.1690   0.2067   0.4382   0.5962   0.6892   0.7161   0.8703
     1.0800   1.0896   1.2223   1.2724   1.4079   1.5196   1.5595   1.6064
     1.7557   1.9357   1.9664   2.0721   2.1022   2.2392   2.3084   2.3451
     2.3883   2.4502   2.5592   2.6099   2.6799   2.7007   2.7389   2.8524
     2.8667   2.9713   3.0775   3.1291   3.1580   3.1990   3.2604   3.3321
     3.3710   3.3920   3.4807   3.5215   3.5823   3.6802   3.7361   3.7666
     3.8185   3.8482   3.8674   3.9265   3.9628   4.1831   4.2461   4.3631
     5.2600   5.3663   6.4785   6.8870   7.0616   9.6481  10.5131  11.4560
    11.8117  11.8634  12.2608  12.3056  12.6047  12.8800  12.9517  13.0807
    13.1784  13.2589  13.3587  13.4119  13.5324  13.6065  13.6976  13.8154
    13.8947  14.1348  14.2194  14.2664  14.4128

     occupation numbers 
     1.0000   1.0000   1.0000   1.0000   1.0000   1.0000   1.0000   1.0000
     1.0000   1.0000   1.0000   1.0000   1.0000   1.0000   1.0000   1.0000
     1.0000   1.0000   1.0000   1.0000   1.0000   1.0000   1.0000   1.0000
     1.0000   1.0000   1.0000   1.0000   1.0000   1.0000   1.0000   1.0000
     1.0000   1.0000   1.0000   1.0000   1.0000   1.0000   1.0000   1.0000
     1.0000   1.0000   1.0000   1.0000   1.0000   1.0000   1.0000   1.0000
     1.0000   1.0000   1.0000   1.0000   1.0000   1.0000   1.0000   1.0000
     1.0000   1.0000   1.0000   1.0000   1.0000   1.0000   1.0000   1.0000
     1.0000   1.0000   1.0000   1.0000   1.0000   1.0000   1.0000   1.0000
     1.0000   1.0000   1.0000   1.0000   1.0000   1.0000   1.0000   1.0000
     1.0000   1.0000   1.0000   1.0000   1.0000   1.0000   1.0000   1.0000
     1.0000   1.0000   1.0000   1.0000   1.0000   1.0000   1.0000   1.0000
     1.0000   1.0000   1.0000   1.0000   1.0000   1.0000   1.0000   1.0000
     1.0000   1.0000   1.0000   1.0000   1.0000   1.0000   1.0000   1.0000
     1.0000   1.0000   1.0000   1.0000   1.0000   1.0000   1.0000   1.0000
     1.0000   1.0000   1.0000   1.0000   1.0000   1.0000   1.0000   1.0000
     1.0000   1.0000   1.0000   1.0000   1.0000   0.0000   0.0000   0.0000
     0.0000   0.0000   0.0000   0.0000   0.0000   0.0000   0.0000   0.0000
     0.0000   0.0000   0.0000   0.0000   0.0000   0.0000   0.0000   0.0000
     0.0000   0.0000   0.0000   0.0000   0.0000

          k = 0.1667 0.1921 0.0301 ( 25937 PWs)   bands (ev):

   -81.2103 -67.4835 -67.4717 -67.4116 -66.9621 -66.9406 -48.2433 -47.0545
   -46.5016 -34.2548 -34.2423 -34.2353 -34.2236 -34.2215 -34.2083 -34.1743
   -34.1708 -34.1446 -33.7351 -33.7279 -33.7104 -33.6932 -33.6857 -33.6754
   -22.9442 -22.9394 -14.9540 -14.8993 -14.1278 -14.0799 -13.6597 -13.6298
   -13.2309 -13.1518 -13.0716 -13.0090 -12.8731 -12.8529 -12.8140 -12.7632
   -12.7125 -12.5991 -12.4857 -12.4177 -12.2857 -12.2438 -12.1532 -12.0292
   -11.3093 -11.0871  -6.5217  -6.5120  -6.4385  -6.4298  -6.4167  -6.4134
    -4.0139  -3.9517  -2.4778  -2.3726  -1.7107  -1.3728  -1.2198  -1.1976
    -0.8334  -0.7474  -0.7076  -0.5531  -0.3885  -0.2559  -0.2246  -0.0717
     0.0090   0.1463   0.2054   0.4821   0.5323   0.6621   0.7059   0.7829
     1.0585   1.0759   1.2054   1.2904   1.3489   1.4810   1.6032   1.6520
     1.7375   1.8939   1.9617   2.0601   2.1326   2.2018   2.3288   2.3982
     2.4209   2.5194   2.5569   2.6524   2.7191   2.7575   2.7928   2.8651
     2.9030   2.9832   3.0327   3.0814   3.1381   3.2095   3.2559   3.2861
     3.3818   3.4044   3.4565   3.5053   3.6083   3.6196   3.6810   3.7684
     3.8144   3.8649   3.8954   3.9621   3.9975   4.1010   4.1632   4.3164
     5.2723   5.3605   6.4780   6.8585   7.0720   9.8076  10.6615  11.0362
    11.5793  11.9402  12.2885  12.6342  12.6793  12.8490  12.9060  13.0431
    13.1636  13.2707  13.3369  13.4519  13.4982  13.5947  13.7042  13.7692
    13.9187  13.9841  14.2751  14.4074  14.5487

     occupation numbers 
     1.0000   1.0000   1.0000   1.0000   1.0000   1.0000   1.0000   1.0000
     1.0000   1.0000   1.0000   1.0000   1.0000   1.0000   1.0000   1.0000
     1.0000   1.0000   1.0000   1.0000   1.0000   1.0000   1.0000   1.0000
     1.0000   1.0000   1.0000   1.0000   1.0000   1.0000   1.0000   1.0000
     1.0000   1.0000   1.0000   1.0000   1.0000   1.0000   1.0000   1.0000
     1.0000   1.0000   1.0000   1.0000   1.0000   1.0000   1.0000   1.0000
     1.0000   1.0000   1.0000   1.0000   1.0000   1.0000   1.0000   1.0000
     1.0000   1.0000   1.0000   1.0000   1.0000   1.0000   1.0000   1.0000
     1.0000   1.0000   1.0000   1.0000   1.0000   1.0000   1.0000   1.0000
     1.0000   1.0000   1.0000   1.0000   1.0000   1.0000   1.0000   1.0000
     1.0000   1.0000   1.0000   1.0000   1.0000   1.0000   1.0000   1.0000
     1.0000   1.0000   1.0000   1.0000   1.0000   1.0000   1.0000   1.0000
     1.0000   1.0000   1.0000   1.0000   1.0000   1.0000   1.0000   1.0000
     1.0000   1.0000   1.0000   1.0000   1.0000   1.0000   1.0000   1.0000
     1.0000   1.0000   1.0000   1.0000   1.0000   1.0000   1.0000   1.0000
     1.0000   1.0000   1.0000   1.0000   1.0000   1.0000   1.0000   1.0000
     1.0000   1.0000   1.0000   1.0000   1.0000   0.0000   0.0000   0.0000
     0.0000   0.0000   0.0000   0.0000   0.0000   0.0000   0.0000   0.0000
     0.0000   0.0000   0.0000   0.0000   0.0000   0.0000   0.0000   0.0000
     0.0000   0.0000   0.0000   0.0000   0.0000

          k = 0.1667 0.1921 0.2059 ( 25944 PWs)   bands (ev):

   -81.2103 -67.4835 -67.4717 -67.4116 -66.9621 -66.9406 -48.2433 -47.0546
   -46.5016 -34.2548 -34.2423 -34.2353 -34.2236 -34.2215 -34.2083 -34.1743
   -34.1708 -34.1446 -33.7351 -33.7279 -33.7104 -33.6932 -33.6857 -33.6754
   -22.9442 -22.9394 -14.9371 -14.9173 -14.1154 -14.0931 -13.6579 -13.6317
   -13.2242 -13.1447 -13.0929 -12.9952 -12.8885 -12.8382 -12.8155 -12.7643
   -12.7093 -12.6040 -12.4820 -12.4221 -12.2840 -12.2459 -12.1424 -12.0383
   -11.3088 -11.0880  -6.5218  -6.5121  -6.4385  -6.4297  -6.4166  -6.4134
    -4.0141  -3.9515  -2.4527  -2.4008  -1.6825  -1.3616  -1.2414  -1.1774
    -0.8308  -0.7491  -0.7022  -0.5439  -0.4117  -0.2974  -0.2109  -0.1348
     0.0434   0.1296   0.1999   0.4315   0.5180   0.6477   0.6866   0.8335
     1.0240   1.1034   1.2174   1.3187   1.3990   1.5310   1.6038   1.7016
     1.8079   1.8651   1.9410   2.0589   2.1406   2.2807   2.3141   2.3867
     2.4411   2.4991   2.5437   2.6483   2.6679   2.6897   2.7729   2.8556
     2.8778   2.9589   3.0201   3.0809   3.1382   3.1900   3.2373   3.2817
     3.3893   3.4374   3.4966   3.5442   3.5969   3.6297   3.6756   3.7511
     3.7921   3.8527   3.8976   3.9222   3.9893   4.1171   4.2328   4.3202
     5.2702   5.3589   6.4793   6.8518   7.0723  10.1220  10.5608  10.8704
    11.2603  11.9129  12.2694  12.6341  12.7556  12.8844  13.0788  13.1900
    13.2597  13.3337  13.3626  13.4391  13.5233  13.6264  13.6991  13.7570
    13.8095  13.9376  14.1740  14.3038  14.4590

     occupation numbers 
     1.0000   1.0000   1.0000   1.0000   1.0000   1.0000   1.0000   1.0000
     1.0000   1.0000   1.0000   1.0000   1.0000   1.0000   1.0000   1.0000
     1.0000   1.0000   1.0000   1.0000   1.0000   1.0000   1.0000   1.0000
     1.0000   1.0000   1.0000   1.0000   1.0000   1.0000   1.0000   1.0000
     1.0000   1.0000   1.0000   1.0000   1.0000   1.0000   1.0000   1.0000
     1.0000   1.0000   1.0000   1.0000   1.0000   1.0000   1.0000   1.0000
     1.0000   1.0000   1.0000   1.0000   1.0000   1.0000   1.0000   1.0000
     1.0000   1.0000   1.0000   1.0000   1.0000   1.0000   1.0000   1.0000
     1.0000   1.0000   1.0000   1.0000   1.0000   1.0000   1.0000   1.0000
     1.0000   1.0000   1.0000   1.0000   1.0000   1.0000   1.0000   1.0000
     1.0000   1.0000   1.0000   1.0000   1.0000   1.0000   1.0000   1.0000
     1.0000   1.0000   1.0000   1.0000   1.0000   1.0000   1.0000   1.0000
     1.0000   1.0000   1.0000   1.0000   1.0000   1.0000   1.0000   1.0000
     1.0000   1.0000   1.0000   1.0000   1.0000   1.0000   1.0000   1.0000
     1.0000   1.0000   1.0000   1.0000   1.0000   1.0000   1.0000   1.0000
     1.0000   1.0000   1.0000   1.0000   1.0000   1.0000   1.0000   1.0000
     1.0000   1.0000   1.0000   1.0000   1.0000   0.0000   0.0000   0.0000
     0.0000   0.0000   0.0000   0.0000   0.0000   0.0000   0.0000   0.0000
     0.0000   0.0000   0.0000   0.0000   0.0000   0.0000   0.0000   0.0000
     0.0000   0.0000   0.0000   0.0000   0.0000

          k = 0.1667 0.1921-0.1457 ( 25923 PWs)   bands (ev):

   -81.2103 -67.4835 -67.4717 -67.4116 -66.9621 -66.9406 -48.2433 -47.0545
   -46.5016 -34.2548 -34.2423 -34.2353 -34.2236 -34.2215 -34.2083 -34.1743
   -34.1708 -34.1446 -33.7351 -33.7279 -33.7104 -33.6932 -33.6857 -33.6754
   -22.9442 -22.9394 -14.9445 -14.9096 -14.1181 -14.0903 -13.6550 -13.6347
   -13.2268 -13.1452 -13.0861 -13.0015 -12.8839 -12.8417 -12.8153 -12.7649
   -12.7100 -12.6030 -12.4752 -12.4278 -12.2731 -12.2579 -12.1425 -12.0369
   -11.3085 -11.0880  -6.5219  -6.5121  -6.4385  -6.4297  -6.4166  -6.4134
    -3.9976  -3.9684  -2.4537  -2.3990  -1.6932  -1.3650  -1.2452  -1.1727
    -0.8106  -0.7709  -0.6742  -0.5608  -0.4228  -0.2679  -0.2256  -0.1171
     0.0129   0.1438   0.1797   0.4626   0.5506   0.6457   0.7296   0.8215
     1.0179   1.0654   1.1992   1.2952   1.4264   1.5054   1.6321   1.6953
     1.7285   1.8762   1.9374   2.0956   2.1529   2.2212   2.3073   2.3948
     2.4483   2.4716   2.5721   2.6436   2.6692   2.7291   2.7972   2.8321
     2.8707   2.9625   3.0397   3.1111   3.1537   3.2058   3.2389   3.2936
     3.4190   3.4347   3.4673   3.5329   3.5977   3.6304   3.6507   3.7624
     3.7880   3.8509   3.8936   3.9192   3.9569   4.1182   4.2321   4.3197
     5.2719   5.3612   6.4784   6.8490   7.0733   9.9878  10.7471  10.8123
    11.3642  11.9861  12.3124  12.6116  12.7056  12.8772  13.0322  13.0652
    13.2031  13.2790  13.3549  13.4376  13.5362  13.6149  13.6640  13.8280
    13.9157  13.9367  14.1185  14.3551  14.4611

     occupation numbers 
     1.0000   1.0000   1.0000   1.0000   1.0000   1.0000   1.0000   1.0000
     1.0000   1.0000   1.0000   1.0000   1.0000   1.0000   1.0000   1.0000
     1.0000   1.0000   1.0000   1.0000   1.0000   1.0000   1.0000   1.0000
     1.0000   1.0000   1.0000   1.0000   1.0000   1.0000   1.0000   1.0000
     1.0000   1.0000   1.0000   1.0000   1.0000   1.0000   1.0000   1.0000
     1.0000   1.0000   1.0000   1.0000   1.0000   1.0000   1.0000   1.0000
     1.0000   1.0000   1.0000   1.0000   1.0000   1.0000   1.0000   1.0000
     1.0000   1.0000   1.0000   1.0000   1.0000   1.0000   1.0000   1.0000
     1.0000   1.0000   1.0000   1.0000   1.0000   1.0000   1.0000   1.0000
     1.0000   1.0000   1.0000   1.0000   1.0000   1.0000   1.0000   1.0000
     1.0000   1.0000   1.0000   1.0000   1.0000   1.0000   1.0000   1.0000
     1.0000   1.0000   1.0000   1.0000   1.0000   1.0000   1.0000   1.0000
     1.0000   1.0000   1.0000   1.0000   1.0000   1.0000   1.0000   1.0000
     1.0000   1.0000   1.0000   1.0000   1.0000   1.0000   1.0000   1.0000
     1.0000   1.0000   1.0000   1.0000   1.0000   1.0000   1.0000   1.0000
     1.0000   1.0000   1.0000   1.0000   1.0000   1.0000   1.0000   1.0000
     1.0000   1.0000   1.0000   1.0000   1.0000   0.0000   0.0000   0.0000
     0.0000   0.0000   0.0000   0.0000   0.0000   0.0000   0.0000   0.0000
     0.0000   0.0000   0.0000   0.0000   0.0000   0.0000   0.0000   0.0000
     0.0000   0.0000   0.0000   0.0000   0.0000

          k = 0.3333 0.0000 0.0601 ( 25907 PWs)   bands (ev):

   -81.2103 -67.4835 -67.4718 -67.4116 -66.9621 -66.9406 -48.2433 -47.0545
   -46.5016 -34.2526 -34.2458 -34.2338 -34.2236 -34.2213 -34.2083 -34.1741
   -34.1711 -34.1448 -33.7362 -33.7262 -33.7104 -33.6942 -33.6840 -33.6769
   -22.9438 -22.9391 -14.7976 -14.7467 -14.2207 -14.1814 -13.7923 -13.7545
   -13.1829 -13.0717 -13.0078 -12.9872 -12.8709 -12.8517 -12.7899 -12.7658
   -12.6895 -12.6134 -12.5353 -12.4707 -12.3783 -12.3136 -12.1367 -12.0232
   -11.3054 -11.0945  -6.5260  -6.5157  -6.4353  -6.4284  -6.4155  -6.4065
    -3.6413  -3.5680  -2.4562  -2.3391  -1.7433  -1.5857  -1.3690  -1.2271
    -0.8152  -0.6731  -0.6611  -0.6184  -0.3563  -0.2451  -0.1840  -0.1032
    -0.0730   0.1550   0.2976   0.4631   0.5586   0.6683   0.7100   0.7627
     0.9847   1.1011   1.1591   1.2294   1.4121   1.4804   1.5480   1.6140
     1.6292   1.7219   1.8596   1.9614   2.1001   2.2760   2.3658   2.4133
     2.4503   2.5263   2.6483   2.7150   2.7476   2.7837   2.7881   2.8096
     2.8676   2.9731   3.0237   3.0916   3.1484   3.2158   3.2670   3.2840
     3.3057   3.3440   3.4765   3.5261   3.5851   3.6331   3.6880   3.7220
     3.7390   3.7626   3.8341   3.9335   3.9678   4.0407   4.1454   4.3016
     5.2290   5.2908   6.4836   6.9052   7.0693  10.2293  11.2334  11.4682
    11.9744  12.0326  12.2295  12.3110  12.6854  12.7406  12.7774  13.0139
    13.1637  13.2067  13.3572  13.5110  13.5387  13.6191  13.7517  13.9591
    14.0265  14.1240  14.2475  14.2738  14.4494

     occupation numbers 
     1.0000   1.0000   1.0000   1.0000   1.0000   1.0000   1.0000   1.0000
     1.0000   1.0000   1.0000   1.0000   1.0000   1.0000   1.0000   1.0000
     1.0000   1.0000   1.0000   1.0000   1.0000   1.0000   1.0000   1.0000
     1.0000   1.0000   1.0000   1.0000   1.0000   1.0000   1.0000   1.0000
     1.0000   1.0000   1.0000   1.0000   1.0000   1.0000   1.0000   1.0000
     1.0000   1.0000   1.0000   1.0000   1.0000   1.0000   1.0000   1.0000
     1.0000   1.0000   1.0000   1.0000   1.0000   1.0000   1.0000   1.0000
     1.0000   1.0000   1.0000   1.0000   1.0000   1.0000   1.0000   1.0000
     1.0000   1.0000   1.0000   1.0000   1.0000   1.0000   1.0000   1.0000
     1.0000   1.0000   1.0000   1.0000   1.0000   1.0000   1.0000   1.0000
     1.0000   1.0000   1.0000   1.0000   1.0000   1.0000   1.0000   1.0000
     1.0000   1.0000   1.0000   1.0000   1.0000   1.0000   1.0000   1.0000
     1.0000   1.0000   1.0000   1.0000   1.0000   1.0000   1.0000   1.0000
     1.0000   1.0000   1.0000   1.0000   1.0000   1.0000   1.0000   1.0000
     1.0000   1.0000   1.0000   1.0000   1.0000   1.0000   1.0000   1.0000
     1.0000   1.0000   1.0000   1.0000   1.0000   1.0000   1.0000   1.0000
     1.0000   1.0000   1.0000   1.0000   1.0000   0.0000   0.0000   0.0000
     0.0000   0.0000   0.0000   0.0000   0.0000   0.0000   0.0000   0.0000
     0.0000   0.0000   0.0000   0.0000   0.0000   0.0000   0.0000   0.0000
     0.0000   0.0000   0.0000   0.0000   0.0000

          k = 0.3333 0.0000 0.2360 ( 25948 PWs)   bands (ev):

   -81.2103 -67.4835 -67.4718 -67.4116 -66.9621 -66.9406 -48.2433 -47.0545
   -46.5016 -34.2526 -34.2458 -34.2338 -34.2237 -34.2213 -34.2084 -34.1741
   -34.1711 -34.1448 -33.7362 -33.7263 -33.7104 -33.6942 -33.6840 -33.6769
   -22.9438 -22.9391 -14.7789 -14.7664 -14.2189 -14.1833 -13.7854 -13.7618
   -13.1756 -13.0739 -13.0224 -12.9782 -12.8639 -12.8473 -12.8032 -12.7639
   -12.6879 -12.6143 -12.5302 -12.4782 -12.3638 -12.3259 -12.1256 -12.0333
   -11.3043 -11.0957  -6.5263  -6.5157  -6.4352  -6.4284  -6.4154  -6.4065
    -3.6443  -3.5650  -2.4292  -2.3699  -1.7142  -1.6242  -1.3404  -1.2160
    -0.8151  -0.6763  -0.6560  -0.6075  -0.3312  -0.2435  -0.2220  -0.1786
    -0.0411   0.1156   0.3074   0.4284   0.5611   0.6461   0.6982   0.8189
[...]
     atom   11 type  7   force =    -0.00018065    0.00319400    0.01380359
     atom   12 type  7   force =    -0.00097762   -0.01072444    0.01128887
     atom   13 type  7   force =     0.00097759   -0.01072444   -0.01128887
     atom   14 type  1   force =    -0.00070595   -0.00317804   -0.00908055
     atom   15 type  1   force =     0.00070594   -0.00317804    0.00908058
     atom   16 type  6   force =    -0.00013519    0.00020288    0.00651190
     atom   17 type  6   force =     0.00013516    0.00020288   -0.00651190
     atom   18 type  6   force =    -0.00014221    0.00005616   -0.00703053
     atom   19 type  6   force =     0.00014222    0.00005616    0.00703053
     atom   20 type  6   force =     0.00049923    0.00048207    0.00669927
     atom   21 type  6   force =    -0.00049924    0.00048207   -0.00669928
     atom   22 type  6   force =    -0.00058692   -0.00111115   -0.00268587
     atom   23 type  6   force =     0.00058692   -0.00111115    0.00268587
     atom   24 type  6   force =     0.00448463   -0.00151580   -0.00585892
     atom   25 type  6   force =    -0.00448463   -0.00151580    0.00585892
     atom   26 type  6   force =    -0.00314011    0.00077036   -0.00715847
     atom   27 type  6   force =     0.00314010    0.00077036    0.00715847
     atom   28 type  6   force =    -0.00141152    0.00195401    0.00735093
     atom   29 type  6   force =     0.00141152    0.00195401   -0.00735093
     atom   30 type  6   force =     0.00075295   -0.00188564   -0.00754413
     atom   31 type  6   force =    -0.00075295   -0.00188564    0.00754414
     atom   32 type  6   force =    -0.00224106   -0.00347952   -0.00632383
     atom   33 type  6   force =     0.00224104   -0.00347952    0.00632385
     atom   34 type  6   force =     0.00118527    0.00393429    0.00644506
     atom   35 type  6   force =    -0.00118527    0.00393431   -0.00644503
     atom   36 type  6   force =    -0.00227707    0.00042873    0.01110631
     atom   37 type  6   force =     0.00227707    0.00042873   -0.01110628
     atom   38 type  6   force =     0.00001762   -0.00148678    0.01109847
     atom   39 type  6   force =    -0.00001761   -0.00148677   -0.01109845
     atom   40 type  3   force =     0.00000000    0.00000000    0.00000000
     atom   41 type  3   force =     0.00000000    0.00000000    0.00000000
     atom   42 type  3   force =     0.00000000    0.00000000    0.00000000
     atom   43 type  3   force =     0.00000000    0.00000000    0.00000000
     atom   44 type  2   force =    -0.00000000   -0.00849879   -0.00000000
     The Hubbard contrib.    to forces
     atom    1 type  4   force =     0.00000000    0.00000000    0.00000000
     atom    2 type  4   force =     0.00000000    0.00000000    0.00000000
     atom    3 type  5   force =     0.00000000    0.00000000    0.00000000
     atom    4 type  5   force =     0.00000000    0.00000000    0.00000000
     atom    5 type  5   force =     0.00000000    0.00000000    0.00000000
     atom    6 type  5   force =     0.00000000    0.00000000    0.00000000
     atom    7 type  5   force =     0.00000000    0.00000000    0.00000000
     atom    8 type  7   force =     0.00000000    0.00000000    0.00000000
     atom    9 type  7   force =     0.00000000    0.00000000    0.00000000
     atom   10 type  7   force =     0.00000000    0.00000000    0.00000000
     atom   11 type  7   force =     0.00000000    0.00000000    0.00000000
     atom   12 type  7   force =     0.00000000    0.00000000    0.00000000
     atom   13 type  7   force =     0.00000000    0.00000000    0.00000000
     atom   14 type  1   force =     0.00000000    0.00000000    0.00000000
     atom   15 type  1   force =     0.00000000    0.00000000    0.00000000
     atom   16 type  6   force =     0.00000000    0.00000000    0.00000000
     atom   17 type  6   force =     0.00000000    0.00000000    0.00000000
     atom   18 type  6   force =     0.00000000    0.00000000    0.00000000
     atom   19 type  6   force =     0.00000000    0.00000000    0.00000000
     atom   20 type  6   force =     0.00000000    0.00000000    0.00000000
     atom   21 type  6   force =     0.00000000    0.00000000    0.00000000
     atom   22 type  6   force =     0.00000000    0.00000000    0.00000000
     atom   23 type  6   force =     0.00000000    0.00000000    0.00000000
     atom   24 type  6   force =     0.00000000    0.00000000    0.00000000
     atom   25 type  6   force =     0.00000000    0.00000000    0.00000000
     atom   26 type  6   force =     0.00000000    0.00000000    0.00000000
     atom   27 type  6   force =     0.00000000    0.00000000    0.00000000
     atom   28 type  6   force =     0.00000000    0.00000000    0.00000000
     atom   29 type  6   force =     0.00000000    0.00000000    0.00000000
     atom   30 type  6   force =     0.00000000    0.00000000    0.00000000
     atom   31 type  6   force =     0.00000000    0.00000000    0.00000000
     atom   32 type  6   force =     0.00000000    0.00000000    0.00000000
     atom   33 type  6   force =     0.00000000    0.00000000    0.00000000
     atom   34 type  6   force =     0.00000000    0.00000000    0.00000000
     atom   35 type  6   force =     0.00000000    0.00000000    0.00000000
     atom   36 type  6   force =     0.00000000    0.00000000    0.00000000
     atom   37 type  6   force =     0.00000000    0.00000000    0.00000000
     atom   38 type  6   force =     0.00000000    0.00000000    0.00000000
     atom   39 type  6   force =     0.00000000    0.00000000    0.00000000
     atom   40 type  3   force =     0.00000000    0.00000000    0.00000000
     atom   41 type  3   force =     0.00000000    0.00000000    0.00000000
     atom   42 type  3   force =     0.00000000    0.00000000    0.00000000
     atom   43 type  3   force =     0.00000000    0.00000000    0.00000000
     atom   44 type  2   force =     0.00000000    0.00000000    0.00000000
     The SCF correction term to forces
     atom    1 type  4   force =    -0.00000000   -0.00000021   -0.00000000
     atom    2 type  4   force =    -0.00000000    0.00000002   -0.00000000
     atom    3 type  5   force =    -0.00000000   -0.00000074    0.00000000
     atom    4 type  5   force =    -0.00000000    0.00000192    0.00000000
     atom    5 type  5   force =    -0.00000000   -0.00000070    0.00000000
     atom    6 type  5   force =     0.00000000   -0.00000717    0.00000000
     atom    7 type  5   force =     0.00000000    0.00000103    0.00000000
     atom    8 type  7   force =    -0.00000099   -0.00000100    0.00000078
     atom    9 type  7   force =     0.00000099   -0.00000100   -0.00000078
     atom   10 type  7   force =     0.00000034   -0.00000139    0.00000140
     atom   11 type  7   force =    -0.00000034   -0.00000139   -0.00000140
     atom   12 type  7   force =     0.00000031   -0.00000029    0.00000006
     atom   13 type  7   force =    -0.00000031   -0.00000029   -0.00000006
     atom   14 type  1   force =    -0.00000002    0.00000161   -0.00000007
     atom   15 type  1   force =     0.00000002    0.00000161    0.00000007
     atom   16 type  6   force =    -0.00000078    0.00000216    0.00000314
     atom   17 type  6   force =     0.00000078    0.00000216   -0.00000314
     atom   18 type  6   force =    -0.00000024   -0.00000397   -0.00000244
     atom   19 type  6   force =     0.00000024   -0.00000397    0.00000244
     atom   20 type  6   force =    -0.00000047   -0.00000355    0.00000129
     atom   21 type  6   force =     0.00000047   -0.00000355   -0.00000129
     atom   22 type  6   force =     0.00000100    0.00000545    0.00000270
     atom   23 type  6   force =    -0.00000100    0.00000545   -0.00000270
     atom   24 type  6   force =     0.00000445    0.00000515    0.00000086
     atom   25 type  6   force =    -0.00000445    0.00000515   -0.00000086
     atom   26 type  6   force =    -0.00000281    0.00000141   -0.00000320
     atom   27 type  6   force =     0.00000281    0.00000141    0.00000320
     atom   28 type  6   force =    -0.00000219   -0.00000331    0.00000176
     atom   29 type  6   force =     0.00000219   -0.00000331   -0.00000176
     atom   30 type  6   force =    -0.00000105   -0.00000427   -0.00000264
     atom   31 type  6   force =     0.00000105   -0.00000427    0.00000264
     atom   32 type  6   force =     0.00000044   -0.00000027    0.00000324
     atom   33 type  6   force =    -0.00000044   -0.00000027   -0.00000324
     atom   34 type  6   force =     0.00000428    0.00000419   -0.00000134
     atom   35 type  6   force =    -0.00000428    0.00000419    0.00000134
     atom   36 type  6   force =     0.00000010    0.00000008    0.00000009
     atom   37 type  6   force =    -0.00000010    0.00000008   -0.00000009
     atom   38 type  6   force =     0.00000060    0.00000106    0.00000053
     atom   39 type  6   force =    -0.00000060    0.00000106   -0.00000053
     atom   40 type  3   force =     0.00000003    0.00000009   -0.00000028
     atom   41 type  3   force =    -0.00000003    0.00000009    0.00000028
     atom   42 type  3   force =     0.00000012    0.00000010   -0.00000069
     atom   43 type  3   force =    -0.00000012    0.00000010    0.00000069
     atom   44 type  2   force =    -0.00000000    0.00000647    0.00000000

     DFT-D3 dispersion contribution to forces:
     atom    1 type  4   force =    -0.00000000    0.00110877    0.00000000
     atom    2 type  4   force =     0.00000000   -0.00101646    0.00000000
     atom    3 type  5   force =    -0.00000000    0.00030043   -0.00000000
     atom    4 type  5   force =     0.00000000    0.00084939    0.00000000
     atom    5 type  5   force =     0.00000000   -0.00121986   -0.00000000
     atom    6 type  5   force =    -0.00000000    0.00111495    0.00000000
     atom    7 type  5   force =     0.00000000   -0.00033071   -0.00000000
     atom    8 type  7   force =     0.00003771   -0.00016052   -0.00032535
     atom    9 type  7   force =    -0.00003771   -0.00016052    0.00032535
     atom   10 type  7   force =     0.00002724    0.00015760    0.00026737
     atom   11 type  7   force =    -0.00002724    0.00015760   -0.00026737
     atom   12 type  7   force =    -0.00010297    0.00009949   -0.00001845
     atom   13 type  7   force =     0.00010297    0.00009949    0.00001845
     atom   14 type  1   force =     0.00010849    0.00016053   -0.00107330
     atom   15 type  1   force =    -0.00010849    0.00016053    0.00107330
     atom   16 type  6   force =    -0.00002113    0.00001297    0.00043948
     atom   17 type  6   force =     0.00002113    0.00001297   -0.00043948
     atom   18 type  6   force =     0.00001577    0.00004358   -0.00039188
     atom   19 type  6   force =    -0.00001577    0.00004358    0.00039188
     atom   20 type  6   force =    -0.00004312   -0.00008249    0.00047310
     atom   21 type  6   force =     0.00004312   -0.00008249   -0.00047310
     atom   22 type  6   force =    -0.00001908    0.00003410    0.00005233
     atom   23 type  6   force =     0.00001908    0.00003410   -0.00005233
     atom   24 type  6   force =    -0.00018873    0.00098270    0.00032228
     atom   25 type  6   force =     0.00018873    0.00098270   -0.00032228
     atom   26 type  6   force =     0.00085818    0.00007152    0.00020193
     atom   27 type  6   force =    -0.00085818    0.00007152   -0.00020193
     atom   28 type  6   force =     0.00032186   -0.00047718    0.00005939
     atom   29 type  6   force =    -0.00032186   -0.00047718   -0.00005939
     atom   30 type  6   force =    -0.00017403    0.00030141   -0.00010481
     atom   31 type  6   force =     0.00017403    0.00030141    0.00010481
     atom   32 type  6   force =     0.00094262   -0.00044182    0.00040496
     atom   33 type  6   force =    -0.00094262   -0.00044182   -0.00040496
     atom   34 type  6   force =     0.00065375   -0.00052974   -0.00046617
     atom   35 type  6   force =    -0.00065375   -0.00052974    0.00046617
     atom   36 type  6   force =     0.00014344   -0.00001273   -0.00045231
     atom   37 type  6   force =    -0.00014344   -0.00001273    0.00045231
     atom   38 type  6   force =     0.00001438    0.00005667   -0.00051077
     atom   39 type  6   force =    -0.00001438    0.00005667    0.00051077
     atom   40 type  3   force =    -0.00003325    0.00006231   -0.00012837
     atom   41 type  3   force =     0.00003325    0.00006231    0.00012837
     atom   42 type  3   force =     0.00001899   -0.00037325   -0.00033615
     atom   43 type  3   force =    -0.00001899   -0.00037325    0.00033615
     atom   44 type  2   force =     0.00000000   -0.00061681    0.00000000

     Total force =     0.002641     Total SCF correction =     0.000025

     DFT-D3 dispersion Force =     0.004575


     Computing stress (Cartesian axis) and pressure


     negative rho (up, down):  0.000E+00 4.806E-04
          total   stress  (Ry/bohr**3)                   (kbar)     P=       -0.10
   0.00000045   0.00000000   0.00000044            0.07        0.00        0.07
   0.00000000  -0.00000219   0.00000000            0.00       -0.32        0.00
   0.00000044   0.00000000  -0.00000022            0.07        0.00       -0.03

     kinetic stress (kbar)  20099.97      0.00     19.20
                                0.00  20018.19      0.00
                               19.20      0.00  19846.67

     local   stress (kbar) -40450.92      0.00    122.25
                                0.00 -40264.88      0.00
                              122.25      0.00  19326.74

     nonloc. stress (kbar)   3793.01      0.00      0.50
                                0.00   3794.74      0.00
                                0.50      0.00   3771.36

     hartree stress (kbar)  22799.77     -0.00    -46.11
                               -0.00  22716.62      0.00
                              -46.11      0.00  -6427.25

     exc-cor stress (kbar)  -2815.69     -0.00     -0.08
                               -0.00  -2816.10      0.00
                               -0.08      0.00  -2812.46

     corecor stress (kbar)  -1854.75      0.00     -0.06
                                0.00  -1854.24     -0.00
                               -0.06     -0.00  -1856.43

     ewald   stress (kbar)  -1556.80     -0.00    -95.80
                               -0.00  -1579.91     -0.00
                              -95.80     -0.00 -31837.75

     hubbard stress (kbar)      0.00      0.00      0.00
                                0.00      0.00      0.00
                                0.00      0.00      0.00

     DFT-D   stress (kbar)    -14.53     -0.00      0.17
                               -0.00    -14.74     -0.00
                                0.17     -0.00    -10.91

     XDM     stress (kbar)      0.00      0.00      0.00
                                0.00      0.00      0.00
                                0.00      0.00      0.00

     dft-nl  stress (kbar)      0.00      0.00      0.00
                                0.00      0.00      0.00
                                0.00      0.00      0.00

     TS-vdW  stress (kbar)      0.00      0.00      0.00
                                0.00      0.00      0.00
                                0.00      0.00      0.00

     MDB     stress (kbar)      0.00      0.00      0.00
                                0.00      0.00      0.00
                                0.00      0.00      0.00

     3D-RISM stress (kbar)      0.00      0.00      0.00
                                0.00      0.00      0.00
                                0.00      0.00      0.00


     Writing all to output data dir ./temp/phl-fe1-fe4.save/ :
     XML data file, charge density, pseudopotentials, collected wavefunctions

     init_run     :    214.91s CPU    219.55s WALL (       2 calls)
     electrons    :  87557.34s CPU  88401.86s WALL (      20 calls)
     update_pot   :     41.20s CPU     41.95s WALL (      18 calls)
     forces       :   1435.30s CPU   1446.74s WALL (      20 calls)
     force_dftd3  :     60.77s CPU     60.86s WALL (      20 calls)
     stress       :  11448.71s CPU  11518.94s WALL (      20 calls)
     stres_dftd3  :     58.83s CPU     58.90s WALL (      20 calls)

     Called by init_run:
     wfcinit      :    200.88s CPU    203.19s WALL (       2 calls)
     wfcinit:atom :      0.85s CPU      1.06s WALL (      80 calls)
     wfcinit:wfcr :    194.92s CPU    196.73s WALL (      80 calls)
     potinit      :      5.13s CPU      5.22s WALL (       2 calls)
     hinit0       :      1.93s CPU      2.21s WALL (       2 calls)

     Called by electrons:
     c_bands      :  78600.22s CPU  79178.46s WALL (     200 calls)
     sum_band     :   7881.35s CPU   8062.07s WALL (     200 calls)
     v_of_rho     :    106.43s CPU    109.53s WALL (     206 calls)
     v_h          :      4.79s CPU      4.97s WALL (     206 calls)
     v_xc         :    120.89s CPU    124.57s WALL (     246 calls)
     newd         :    662.98s CPU    753.26s WALL (     206 calls)
     PAW_pot      :    362.06s CPU    362.08s WALL (     224 calls)
     mix_rho      :     18.90s CPU     19.46s WALL (     200 calls)
     energy_dftd3 :     45.93s CPU     45.94s WALL (      20 calls)

     Called by c_bands:
     init_us_2    :    596.26s CPU    596.81s WALL (   18400 calls)
     cegterg      :  77809.80s CPU  78381.69s WALL (    8042 calls)

     Called by sum_band:
     sum_band:wei :      0.09s CPU      0.09s WALL (     200 calls)
     sum_band:loo :   6487.24s CPU   6552.28s WALL (     200 calls)
     sum_band:buf :     75.66s CPU     75.75s WALL (    8000 calls)
     sum_band:ini :    266.53s CPU    266.65s WALL (    8000 calls)
     sum_band:cal :   3068.57s CPU   3070.82s WALL (    8720 calls)
     sum_band:bec :      8.49s CPU      8.51s WALL (    8720 calls)
     addusdens    :   1153.55s CPU   1268.25s WALL (     200 calls)
                                        0.00s GPU  (     200 calls)
     addusd:skk   :      6.60s CPU      9.09s WALL (    1400 calls)
                                        0.00s GPU  (    1400 calls)

     Called by *egterg:
     cdiaghg      :   3641.75s CPU   3674.99s WALL (   57423 calls)
     cegterg:over :  13226.29s CPU  13231.72s WALL (   50703 calls)
     cegterg:upda :   6404.70s CPU   6425.55s WALL (   50703 calls)
     cegterg:last :  12988.72s CPU  12995.18s WALL (   23172 calls)
     cdiaghg:chol :     99.57s CPU     99.71s WALL (   57423 calls)
     cdiaghg:inve :     68.72s CPU     68.84s WALL (   57423 calls)
     cdiaghg:para :    923.41s CPU    937.60s WALL (  114846 calls)
     h_psi        :  31377.76s CPU  31772.26s WALL (   58825 calls)
     s_psi        :   5773.57s CPU   5778.81s WALL (   58825 calls)
     g_psi        :     73.61s CPU     73.77s WALL (   50703 calls)

     Called by h_psi:
     h_psi:calbec :   9378.40s CPU   9388.52s WALL (   58825 calls)
     vloc_psi     :  15905.53s CPU  16229.47s WALL (   58825 calls)
     add_vuspsi   :   5949.23s CPU   5954.98s WALL (   58825 calls)

     General routines
     calbec       :  17408.64s CPU  17422.48s WALL (   71545 calls)
     fft          :     89.14s CPU     94.13s WALL (    5956 calls)
     ffts         :      2.22s CPU      2.31s WALL (     812 calls)
     fftw         :  12659.92s CPU  12903.77s WALL ( 9355072 calls)
     interpolate  :      9.41s CPU      9.82s WALL (     412 calls)

     Parallel routines

     PAW routines
     PAW_pot      :    362.06s CPU    362.08s WALL (     224 calls)
     PAW_symme    :      0.23s CPU      0.23s WALL (     424 calls)

     PWSCF        :   1d 4h 4m CPU   1d 4h20m WALL


   This run was terminated on:  10:29:54  26Jan2025            

=------------------------------------------------------------------------------=
   JOB DONE.
=------------------------------------------------------------------------------=
