
     Program PWSCF v.7.3.1 starts on  5Feb2025 at 23:41:16 

     This program is part of the open-source Quantum ESPRESSO suite
     for quantum simulation of materials; please cite
         "P. Giannozzi et al., J. Phys.:Condens. Matter 21 395502 (2009);
         "P. Giannozzi et al., J. Phys.:Condens. Matter 29 465901 (2017);
         "P. Giannozzi et al., J. Chem. Phys. 152 154105 (2020);
          URL http://www.quantum-espresso.org", 
     in publications or presentations arising from this work. More details at
     http://www.quantum-espresso.org/quote

     Parallel version (MPI), running on     6 processors

     MPI processes distributed on     1 nodes
     3912 MiB available memory on the printing compute node when the environment starts

     Reading input from vc_relax.in

     Current dimensions of program PWSCF are:
     Max number of different atomic species (ntypx) = 10
     Max number of k-points (npk) =  40000
     Max angular momentum in pseudopotentials (lmaxx) =  4
     file Al.pbe-n-kjpaw_psl.1.0.0.UPF: wavefunction(s)  3S 3P renormalized
     file Fe.pbe-spn-kjpaw_psl.1.0.0.UPF: wavefunction(s)  3P 3D renormalized
     file H.pbe-kjpaw_psl.1.0.0.UPF: wavefunction(s)  1S renormalized
     file K.pbe-spn-kjpaw_psl.1.0.0.UPF: wavefunction(s)  3S renormalized
     file Mg.pbe-spnl-kjpaw_psl.1.0.0.UPF: wavefunction(s)  2P renormalized
     file O.pbe-n-kjpaw_psl.1.0.0.UPF: wavefunction(s)  2S 2P renormalized
     file Si.pbe-n-kjpaw_psl.1.0.0.UPF: wavefunction(s)  3S 3P renormalized

     R & G space division:  proc/nbgrp/npool/nimage =       6
     Subspace diagonalization in iterative solution of the eigenvalue problem:
     one sub-group per band group will be used
     custom distributed-memory algorithm (size of sub-group:  2*  2 procs)


     Parallelization info
     --------------------
     sticks:   dense  smooth     PW     G-vecs:    dense   smooth      PW
     Min        1106     554    150                99929    35332    5024
     Max        1107     555    151                99930    35335    5026
     Sum        6637    3329    905               599575   212003   30147

     Using Slab Decomposition



     bravais-lattice index     =          -12
     lattice parameter (alat)  =      10.0281  a.u.
     unit-cell volume          =    3376.0184 (a.u.)^3
     number of atoms/cell      =           44
     number of atomic types    =            7
     number of electrons       =       262.00
     number of Kohn-Sham states=          157
     kinetic-energy cutoff     =      60.0000  Ry
     charge density cutoff     =     480.0000  Ry
     scf convergence threshold =      1.0E-06
     mixing beta               =       0.7000
     number of iterations used =            8  plain     mixing
     energy convergence thresh.=      1.0E-06
     force convergence thresh. =      1.0E-03
     press convergence thresh. =      5.0E-01
     Exchange-correlation= SLA  PW   PBX  PBC
                           (   1   4   3   4   0   0   0)
     nstep                     =           50


     celldm(1)=  10.028089  celldm(2)=   1.730369  celldm(3)=   1.965803
     celldm(4)=   0.000000  celldm(5)=  -0.177210  celldm(6)=   0.000000

     crystal axes: (cart. coord. in units of alat)
               a(1) = (   1.000000   0.000000   0.000000 )  
               a(2) = (   0.000000   1.730369   0.000000 )  
               a(3) = (  -0.348359   0.000000   1.934690 )  

     reciprocal axes: (cart. coord. in units 2 pi/alat)
               b(1) = (  1.000000 -0.000000  0.180059 )  
               b(2) = (  0.000000  0.577911 -0.000000 )  
               b(3) = (  0.000000  0.000000  0.516879 )  


     PseudoPot. # 1 for Al read from file:
     ./../../../pseudos/Al.pbe-n-kjpaw_psl.1.0.0.UPF
     MD5 check sum: 502b6b27b9c6270cab5dd1084b96fa6d
     Pseudo is Projector augmented-wave + core cor, Zval =  3.0
     Generated using &quot;atomic&quot; code by A. Dal Corso  v.6.3
     Shape of augmentation charge: PSQ
     Using radial grid of 1135 points,  6 beta functions with: 
                l(1) =   0
                l(2) =   0
                l(3) =   1
                l(4) =   1
                l(5) =   2
                l(6) =   2
     Q(r) pseudized with 0 coefficients 


     PseudoPot. # 2 for Fe read from file:
     ./../../../pseudos/Fe.pbe-spn-kjpaw_psl.1.0.0.UPF
     MD5 check sum: fc81f059e5c5069939230b1155715ae8
     Pseudo is Projector augmented-wave + core cor, Zval = 16.0
     Generated using &quot;atomic&quot; code by A. Dal Corso  v.6.3
     Shape of augmentation charge: PSQ
     Using radial grid of 1191 points,  6 beta functions with: 
                l(1) =   0
                l(2) =   0
                l(3) =   1
                l(4) =   1
                l(5) =   2
                l(6) =   2
     Q(r) pseudized with 0 coefficients 


     PseudoPot. # 3 for H  read from file:
     ./../../../pseudos/H.pbe-kjpaw_psl.1.0.0.UPF
     MD5 check sum: d81a744832360e4a8af0b0b5b123bc2a
     Pseudo is Projector augmented-wave, Zval =  1.0
     Generated using &quot;atomic&quot; code by A. Dal Corso  v.6.3MaX
     Shape of augmentation charge: PSQ
     Using radial grid of  929 points,  2 beta functions with: 
                l(1) =   0
                l(2) =   0
     Q(r) pseudized with 0 coefficients 


     PseudoPot. # 4 for K  read from file:
     ./../../../pseudos/K.pbe-spn-kjpaw_psl.1.0.0.UPF
     MD5 check sum: 34cc42130a09071ebe376fd42eb21491
     Pseudo is Projector augmented-wave + core cor, Zval =  9.0
     Generated using &quot;atomic&quot; code by A. Dal Corso  v.6.2.2
     Shape of augmentation charge: PSQ
     Using radial grid of 1165 points,  6 beta functions with: 
                l(1) =   0
                l(2) =   0
                l(3) =   1
                l(4) =   1
                l(5) =   2
                l(6) =   2
     Q(r) pseudized with 0 coefficients 


     PseudoPot. # 5 for Mg read from file:
     ./../../../pseudos/Mg.pbe-spnl-kjpaw_psl.1.0.0.UPF
     MD5 check sum: fda14e0d92a6a9a5ebed782e5a4b3067
     Pseudo is Projector augmented-wave + core cor, Zval = 10.0
     Generated using &quot;atomic&quot; code by A. Dal Corso  v.6.3
     Shape of augmentation charge: PSQ
     Using radial grid of 1129 points,  4 beta functions with: 
                l(1) =   0
                l(2) =   0
                l(3) =   1
                l(4) =   1
     Q(r) pseudized with 0 coefficients 


     PseudoPot. # 6 for O  read from file:
     ./../../../pseudos/O.pbe-n-kjpaw_psl.1.0.0.UPF
     MD5 check sum: e99d9cef9b487d1ca56f5b95ecd0fd7a
     Pseudo is Projector augmented-wave + core cor, Zval =  6.0
     Generated using &quot;atomic&quot; code by A. Dal Corso  v.6.3
     Shape of augmentation charge: PSQ
     Using radial grid of 1095 points,  4 beta functions with: 
                l(1) =   0
                l(2) =   0
                l(3) =   1
                l(4) =   1
     Q(r) pseudized with 0 coefficients 


     PseudoPot. # 7 for Si read from file:
     ./../../../pseudos/Si.pbe-n-kjpaw_psl.1.0.0.UPF
     MD5 check sum: c39c59da582df4a0d9f10159256ea34e
     Pseudo is Projector augmented-wave + core cor, Zval =  4.0
     Generated using &quot;atomic&quot; code by A. Dal Corso  v.6.3
     Shape of augmentation charge: PSQ
     Using radial grid of 1141 points,  6 beta functions with: 
                l(1) =   0
                l(2) =   0
                l(3) =   1
                l(4) =   1
                l(5) =   2
                l(6) =   2
     Q(r) pseudized with 0 coefficients 


     atomic species   valence    mass     pseudopotential
     Al                3.00    26.98154     Al( 1.00)
     Fe               16.00    55.84500     Fe( 1.00)
     H                 1.00     1.00794     H ( 1.00)
     K                 9.00    39.09830     K ( 1.00)
     Mg               10.00    24.30500     Mg( 1.00)
     O                 6.00    15.99940     O ( 1.00)
     Si                4.00    28.08550     Si( 1.00)

      2 Sym. Ops. (no inversion) found


                                    s                        frac. trans.

      isym =  1     identity                                     

 cryst.   s( 1) = (     1          0          0      )
                  (     0          1          0      )
                  (     0          0          1      )

 cart.    s( 1) = (  1.0000000  0.0000000  0.0000000 )
                  (  0.0000000  1.0000000  0.0000000 )
                  (  0.0000000  0.0000000  1.0000000 )


      isym =  2     180 deg rotation - cart. axis [0,1,0]        

 cryst.   s( 2) = (    -1          0          0      )
                  (     0          1          0      )
                  (     0          0         -1      )

 cart.    s( 2) = ( -1.0000000  0.0000000  0.0000000 )
                  (  0.0000000  1.0000000  0.0000000 )
                  (  0.0000000  0.0000000 -1.0000000 )


     point group C_2  (2)   
     there are  2 classes
     the character table:

       E     C2   
A      1.00  1.00
B      1.00 -1.00

     the symmetry operations in each class and the name of the first element:

     E        1
          identity                                               
     C2       2
          180 deg rotation - cart. axis [0,1,0]                  

   Cartesian axes

     site n.     atom                  positions (alat units)
         1        K      tau(   1) = (   0.0000000   0.8617144   0.0000000  )
         2        K      tau(   2) = (   0.5000002   0.0080747   0.0000000  )
         3        Mg     tau(   3) = (  -0.1741796   0.0153937   0.9673450  )
         4        Mg     tau(   4) = (  -0.1741796   1.1450587   0.9673450  )
         5        Mg     tau(   5) = (   0.3258204   0.8479547   0.9673450  )
         6        Mg     tau(   6) = (   0.3258204   1.4446134   0.9673450  )
         7        Mg     tau(   7) = (   0.3258204   0.3019103   0.9673450  )
         8        Si     tau(   8) = (   0.0090814   0.2909438   0.4403040  )
         9        Si     tau(   9) = (   0.6425594   0.2909438   1.4943861  )
        10        Si     tau(  10) = (   0.6693547   1.4458180   1.4811201  )
        11        Si     tau(  11) = (  -0.0177139   1.4458180   0.4535699  )
        12        Si     tau(  12) = (   0.4815886   1.1542146   0.4477286  )
        13        Si     tau(  13) = (   0.1700523   1.1542146   1.4869614  )
        14        Al     tau(  14) = (   0.1396826   0.5745774   1.4928119  )
        15        Al     tau(  15) = (   0.5119582   0.5745774   0.4418781  )
        16        O      tau(  16) = (  -0.0068617   0.2910846   0.7489091  )
        17        O      tau(  17) = (   0.6585025   0.2910846   1.1857810  )
        18        O      tau(  18) = (   0.6636624   1.4403052   1.1760523  )
        19        O      tau(  19) = (  -0.0120216   1.4403052   0.7586376  )
        20        O      tau(  20) = (   0.4873188   1.1553358   0.7546597  )
        21        O      tau(  21) = (   0.1643220   1.1553358   1.1800304  )
        22        O      tau(  22) = (   0.1490874   0.5760468   1.1660220  )
        23        O      tau(  23) = (   0.5025535   0.5760468   0.7686680  )
        24        O      tau(  24) = (   0.2903342   0.3499261   0.3316705  )
        25        O      tau(  25) = (   0.3613066   0.3499261   1.6030195  )
        26        O      tau(  26) = (   0.9376543   1.7299721   0.3387497  )
        27        O      tau(  27) = (  -0.2860135   1.7299721   1.5959402  )
        28        O      tau(  28) = (   0.3997939   1.3395536   1.5966313  )
        29        O      tau(  29) = (   0.2518470   1.3395536   0.3380588  )
        30        O      tau(  30) = (   0.7504975   1.2736484   0.3363432  )
        31        O      tau(  31) = (  -0.0988566   1.2736484   1.5983468  )
        32        O      tau(  32) = (   0.4413630   0.8795131   0.3216912  )
        33        O      tau(  33) = (   0.2102778   0.8795131   1.6129989  )
        34        O      tau(  34) = (  -0.1564119   0.4865215   1.6183674  )
        35        O      tau(  35) = (   0.8080527   0.4865215   0.3163226  )
        36        O      tau(  36) = (  -0.0120125   0.8587517   0.7704936  )
        37        O      tau(  37) = (   0.6636533   0.8587517   1.1641965  )
        38        O      tau(  38) = (   0.4932333   0.0001301   0.7734277  )
        39        O      tau(  39) = (   0.1584076   0.0001301   1.1612622  )
        40        H      tau(  40) = (  -0.0199001   0.8267596   0.5908759  )
        41        H      tau(  41) = (   0.6715410   0.8267596   1.3438142  )
        42        H      tau(  42) = (   0.4890447   0.0300283   0.5937093  )
        43        H      tau(  43) = (   0.1625962   0.0300283   1.3409807  )
        44        Fe     tau(  44) = (  -0.1741796   0.5763906   0.9673450  )

     --------------------------------------------
     DFT-D3 Dispersion Correction (3-body terms):
     --------------------------------------------
       Reference C6 values for interpolation: 

         atom   Coordination number   C6
         H          0.912             6.05
         H          0.000            15.18
         O          0.000            31.01
         O          0.993            25.63
         O          1.989            20.74
         Mg         0.000          1366.75
         Mg         0.963           902.54
         Mg         1.950           351.12
         Al         0.000          1081.08
         Al         0.965           875.51
         Al         1.931           513.50
         Al         2.915           307.19
         Si         0.000           635.71
         Si         0.951           540.53
         Si         1.944           466.25
         Si         2.941           443.01
         Si         3.868           299.55
         K          0.000          9967.00
         K          0.977           676.04
         Fe         0.000           982.67
         Fe         1.648           409.99
         Fe         9.138           219.01

       Values used:

         atom   Coordination number  R0_AB[au]  C6      C8
         K         12.221            4.007    676.04 129074.98
         K         12.298            4.007    676.04 129074.98
         Mg        11.446            3.292    351.12  31436.69
         Mg        11.314            3.292    351.12  31436.69
         Mg        11.423            3.292    351.12  31436.69
         Mg        11.578            3.292    351.12  31436.69
         Mg        11.645            3.292    351.12  31436.69
         Si         6.599            3.583    299.55  21425.58
         Si         6.599            3.583    299.55  21425.58
         Si         6.346            3.583    299.55  21425.58
         Si         6.347            3.583    299.55  21425.58
         Si         6.424            3.583    299.55  21425.58
         Si         6.424            3.583    299.55  21425.58
         Al         7.384            3.789    307.19  29441.29
         Al         7.384            3.789    307.19  29441.29
         O          3.704            2.345     20.74    418.58
         O          3.704            2.345     20.74    418.58
         O          3.904            2.345     20.74    418.58
         O          3.904            2.345     20.74    418.58
         O          3.892            2.345     20.74    418.58
         O          3.892            2.345     20.74    418.58
         O          3.857            2.345     20.74    418.58
         O          3.857            2.345     20.74    418.58
         O          3.109            2.345     20.74    418.58
         O          3.109            2.345     20.74    418.58
         O          3.046            2.345     20.74    418.58
         O          3.046            2.345     20.74    418.58
         O          2.976            2.345     20.74    418.58
         O          2.976            2.345     20.74    418.58
         O          2.975            2.345     20.74    418.58
         O          2.975            2.345     20.74    418.58
         O          3.117            2.345     20.74    418.58
         O          3.117            2.345     20.74    418.58
         O          3.160            2.345     20.74    418.58
         O          3.160            2.345     20.74    418.58
         O          3.865            2.345     20.74    418.58
         O          3.865            2.345     20.74    418.58
         O          3.982            2.345     20.74    418.58
         O          3.982            2.345     20.74    418.58
         H          1.200            2.062      6.08     73.54
         H          1.200            2.062      6.08     73.54
         H          1.231            2.062      6.08     73.46
         H          1.231            2.062      6.08     73.46
         Fe         8.632            3.252    219.01  20487.87

         Molecular C6 ( Ry / a.u.^6 ) =    165310.55


   Crystallographic axes

     site n.     atom                  positions (cryst. coord.)
         1        K      tau(   1) = (  0.0000000  0.4979946  0.0000000  )
         2        K      tau(   2) = (  0.5000002  0.0046664  0.0000000  )
         3        Mg     tau(   3) = (  0.0000000  0.0088962  0.4999999  )
         4        Mg     tau(   4) = (  0.0000000  0.6617424  0.4999999  )
         5        Mg     tau(   5) = (  0.5000001  0.4900427  0.4999999  )
         6        Mg     tau(   6) = (  0.5000001  0.8348585  0.4999999  )
         7        Mg     tau(   7) = (  0.5000001  0.1744774  0.4999999  )
         8        Si     tau(   8) = (  0.0883623  0.1681397  0.2275837  )
         9        Si     tau(   9) = (  0.9116378  0.1681397  0.7724162  )
        10        Si     tau(  10) = (  0.9360445  0.8355547  0.7655593  )
        11        Si     tau(  11) = (  0.0639557  0.8355547  0.2344406  )
        12        Si     tau(  12) = (  0.5622064  0.6670337  0.2314213  )
        13        Si     tau(  13) = (  0.4377938  0.6670337  0.7685785  )
        14        Al     tau(  14) = (  0.4084776  0.3320548  0.7716025  )
        15        Al     tau(  15) = (  0.5915225  0.3320548  0.2283973  )
        16        O      tau(  16) = (  0.1279865  0.1682211  0.3870951  )
        17        O      tau(  17) = (  0.8720136  0.1682211  0.6129048  )
        18        O      tau(  18) = (  0.8754218  0.8323687  0.6078762  )
        19        O      tau(  19) = (  0.1245783  0.8323687  0.3921235  )
        20        O      tau(  20) = (  0.6232024  0.6676817  0.3900675  )
        21        O      tau(  21) = (  0.3767977  0.6676817  0.6099324  )
        22        O      tau(  22) = (  0.3590407  0.3329040  0.6026918  )
        23        O      tau(  23) = (  0.6409594  0.3329040  0.3973081  )
        24        O      tau(  24) = (  0.3500547  0.2022263  0.1714334  )
        25        O      tau(  25) = (  0.6499455  0.2022263  0.8285664  )
        26        O      tau(  26) = (  0.9986494  0.9997705  0.1750925  )
        27        O      tau(  27) = (  0.0013507  0.9997705  0.8249073  )
        28        O      tau(  28) = (  0.6872825  0.7741433  0.8252645  )
        29        O      tau(  29) = (  0.3127176  0.7741433  0.1747354  )
        30        O      tau(  30) = (  0.8110592  0.7360559  0.1738486  )
        31        O      tau(  31) = (  0.1889409  0.7360559  0.8261513  )
        32        O      tau(  32) = (  0.4992866  0.5082806  0.1662753  )
        33        O      tau(  33) = (  0.5007135  0.5082806  0.8337246  )
        34        O      tau(  34) = (  0.1349905  0.2811663  0.8364995  )
        35        O      tau(  35) = (  0.8650096  0.2811663  0.1635004  )
        36        O      tau(  36) = (  0.1267222  0.4962824  0.3982517  )
        37        O      tau(  37) = (  0.8732780  0.4962824  0.6017482  )
        38        O      tau(  38) = (  0.6324963  0.0000752  0.3997682  )
        39        O      tau(  39) = (  0.3675039  0.0000752  0.6002316  )
        40        H      tau(  40) = (  0.0864927  0.4777938  0.3054111  )
        41        H      tau(  41) = (  0.9135075  0.4777938  0.6945888  )
        42        H      tau(  42) = (  0.5959477  0.0173537  0.3068756  )
        43        H      tau(  43) = (  0.4040525  0.0173537  0.6931242  )
        44        Fe     tau(  44) = (  0.0000000  0.3331027  0.4999999  )

     number of k points=    20  Gaussian smearing, width (Ry)=  0.0010
                       cart. coord. in units 2pi/alat
        k(    1) = (   0.0000000   0.0000000   0.0000000), wk =   0.0370370
        k(    2) = (   0.0000000   0.0000000   0.1722929), wk =   0.0740741
        k(    3) = (   0.0000000   0.1926371   0.0000000), wk =   0.0740741
        k(    4) = (   0.0000000   0.1926371   0.1722929), wk =   0.1481481
        k(    5) = (   0.1666667   0.0000000   0.0300099), wk =   0.0740741
        k(    6) = (   0.1666667   0.0000000   0.2023028), wk =   0.0740741
        k(    7) = (   0.1666667   0.0000000  -0.1422829), wk =   0.0740741
        k(    8) = (   0.1666667   0.1926371   0.0300099), wk =   0.1481481
        k(    9) = (   0.1666667   0.1926371   0.2023028), wk =   0.1481481
        k(   10) = (   0.1666667   0.1926371  -0.1422829), wk =   0.1481481
        k(   11) = (   0.3333333   0.0000000   0.0600198), wk =   0.0740741
        k(   12) = (   0.3333333   0.0000000   0.2323127), wk =   0.0740741
        k(   13) = (   0.3333333   0.0000000  -0.1122730), wk =   0.0740741
        k(   14) = (   0.3333333   0.1926371   0.0600198), wk =   0.1481481
        k(   15) = (   0.3333333   0.1926371   0.2323127), wk =   0.1481481
        k(   16) = (   0.3333333   0.1926371  -0.1122730), wk =   0.1481481
        k(   17) = (  -0.5000000   0.0000000  -0.0900297), wk =   0.0370370
        k(   18) = (  -0.5000000   0.0000000   0.0822631), wk =   0.0740741
        k(   19) = (  -0.5000000   0.1926371  -0.0900297), wk =   0.0740741
        k(   20) = (  -0.5000000   0.1926371   0.0822631), wk =   0.1481481

                       cryst. coord.
        k(    1) = (   0.0000000   0.0000000   0.0000000), wk =   0.0370370
        k(    2) = (   0.0000000   0.0000000   0.3333333), wk =   0.0740741
        k(    3) = (   0.0000000   0.3333333   0.0000000), wk =   0.0740741
        k(    4) = (   0.0000000   0.3333333   0.3333333), wk =   0.1481481
        k(    5) = (   0.1666667   0.0000000  -0.0000000), wk =   0.0740741
        k(    6) = (   0.1666667   0.0000000   0.3333333), wk =   0.0740741
        k(    7) = (   0.1666667   0.0000000  -0.3333333), wk =   0.0740741
        k(    8) = (   0.1666667   0.3333333  -0.0000000), wk =   0.1481481
        k(    9) = (   0.1666667   0.3333333   0.3333333), wk =   0.1481481
        k(   10) = (   0.1666667   0.3333333  -0.3333333), wk =   0.1481481
        k(   11) = (   0.3333333   0.0000000  -0.0000000), wk =   0.0740741
        k(   12) = (   0.3333333   0.0000000   0.3333333), wk =   0.0740741
        k(   13) = (   0.3333333   0.0000000  -0.3333333), wk =   0.0740741
        k(   14) = (   0.3333333   0.3333333  -0.0000000), wk =   0.1481481
        k(   15) = (   0.3333333   0.3333333   0.3333333), wk =   0.1481481
        k(   16) = (   0.3333333   0.3333333  -0.3333333), wk =   0.1481481
        k(   17) = (  -0.5000000   0.0000000   0.0000000), wk =   0.0370370
        k(   18) = (  -0.5000000   0.0000000   0.3333333), wk =   0.0740741
        k(   19) = (  -0.5000000   0.3333333   0.0000000), wk =   0.0740741
        k(   20) = (  -0.5000000   0.3333333   0.3333333), wk =   0.1481481

     Dense  grid:   599575 G-vectors     FFT dimensions: (  72, 125, 144)

     Smooth grid:   212003 G-vectors     FFT dimensions: (  50,  90, 100)

     Dynamical RAM for                 wfc:      10.58 MB

     Dynamical RAM for     wfc (w. buffer):     222.16 MB

     Dynamical RAM for           str. fact:      10.67 MB

     Dynamical RAM for           local pot:       0.00 MB

     Dynamical RAM for          nlocal pot:      29.51 MB

     Dynamical RAM for                qrad:      24.61 MB

     Dynamical RAM for          rho,v,vnew:       9.52 MB

     Dynamical RAM for               rhoin:       3.17 MB

     Dynamical RAM for            rho*nmix:      24.40 MB

     Dynamical RAM for           G-vectors:       5.99 MB

     Dynamical RAM for          h,s,v(r/c):       1.13 MB

     Dynamical RAM for          <psi|beta>:       1.05 MB

     Dynamical RAM for                 psi:      21.16 MB

     Dynamical RAM for                hpsi:      21.16 MB

     Dynamical RAM for                spsi:      21.16 MB

     Dynamical RAM for      wfcinit/wfcrot:      25.43 MB

     Dynamical RAM for           addusdens:     320.21 MB

     Dynamical RAM for          addusforce:     391.20 MB

     Dynamical RAM for         addusstress:     306.48 MB

     Estimated static dynamical RAM per process >     326.08 MB

     Estimated max dynamical RAM per process >     741.68 MB

     Estimated total dynamical RAM >       4.35 GB

     Check: negative core charge=   -0.000004

     Initial potential from superposition of free atoms

     starting charge     261.9493, renormalised to     262.0000
     Starting wfcs are  183 randomized atomic wfcs
     Checking if some PAW data can be deallocated... 
       PAW data deallocated on    5 nodes for type:  1
       PAW data deallocated on    5 nodes for type:  2
       PAW data deallocated on    5 nodes for type:  3
       PAW data deallocated on    5 nodes for type:  4
       PAW data deallocated on    5 nodes for type:  5
       PAW data deallocated on    1 nodes for type:  6
       PAW data deallocated on    4 nodes for type:  7

     total cpu time spent up to now is      176.7 secs

     Self-consistent Calculation

     iteration #  1     ecut=    60.00 Ry     beta= 0.70
     Davidson diagonalization with overlap

---- Real-time Memory Report at c_bands before calling an iterative solver
           412 MiB given to the printing process from OS
             0 MiB allocation reported by mallinfo(arena+hblkhd)
          1641 MiB available memory on the node where the printing process lives
------------------
     ethr =  1.00E-02,  avg # of iterations =  6.0

     total cpu time spent up to now is      724.5 secs

     total energy              =   -2623.79168410 Ry
     estimated scf accuracy    <      12.22889437 Ry

     iteration #  2     ecut=    60.00 Ry     beta= 0.70
     Davidson diagonalization with overlap

---- Real-time Memory Report at c_bands before calling an iterative solver
           675 MiB given to the printing process from OS
             0 MiB allocation reported by mallinfo(arena+hblkhd)
          2164 MiB available memory on the node where the printing process lives
------------------
     ethr =  4.67E-03,  avg # of iterations =  5.2

     total cpu time spent up to now is     1581.8 secs

     total energy              =   -2629.17624715 Ry
     estimated scf accuracy    <      11.34892816 Ry

     iteration #  3     ecut=    60.00 Ry     beta= 0.70
     Davidson diagonalization with overlap

---- Real-time Memory Report at c_bands before calling an iterative solver
           676 MiB given to the printing process from OS
             0 MiB allocation reported by mallinfo(arena+hblkhd)
          2144 MiB available memory on the node where the printing process lives
------------------
     ethr =  4.33E-03,  avg # of iterations =  2.0

     total cpu time spent up to now is     2017.2 secs

     total energy              =   -2630.00880859 Ry
     estimated scf accuracy    <       1.45321235 Ry

     iteration #  4     ecut=    60.00 Ry     beta= 0.70
     Davidson diagonalization with overlap

---- Real-time Memory Report at c_bands before calling an iterative solver
           677 MiB given to the printing process from OS
             0 MiB allocation reported by mallinfo(arena+hblkhd)
          2144 MiB available memory on the node where the printing process lives
------------------
     ethr =  5.55E-04,  avg # of iterations =  6.8

     total cpu time spent up to now is     2785.1 secs

     total energy              =   -2631.13984883 Ry
     estimated scf accuracy    <       0.24822244 Ry

     iteration #  5     ecut=    60.00 Ry     beta= 0.70
     Davidson diagonalization with overlap

---- Real-time Memory Report at c_bands before calling an iterative solver
           679 MiB given to the printing process from OS
             0 MiB allocation reported by mallinfo(arena+hblkhd)
          2200 MiB available memory on the node where the printing process lives
------------------
     c_bands:  1 eigenvalues not converged
     c_bands:  1 eigenvalues not converged
     c_bands:  1 eigenvalues not converged
     c_bands:  2 eigenvalues not converged
     c_bands:  1 eigenvalues not converged
     ethr =  9.47E-05,  avg # of iterations = 16.9

     total cpu time spent up to now is     3580.1 secs

     total energy              =   -2631.16273952 Ry
     estimated scf accuracy    <       0.20096999 Ry

     iteration #  6     ecut=    60.00 Ry     beta= 0.70
     Davidson diagonalization with overlap

---- Real-time Memory Report at c_bands before calling an iterative solver
           680 MiB given to the printing process from OS
             0 MiB allocation reported by mallinfo(arena+hblkhd)
          2180 MiB available memory on the node where the printing process lives
------------------
     ethr =  7.67E-05,  avg # of iterations =  2.0

     total cpu time spent up to now is     4030.4 secs

     total energy              =   -2631.18562794 Ry
     estimated scf accuracy    <       0.01810577 Ry

     iteration #  7     ecut=    60.00 Ry     beta= 0.70
     Davidson diagonalization with overlap

---- Real-time Memory Report at c_bands before calling an iterative solver
           681 MiB given to the printing process from OS
             0 MiB allocation reported by mallinfo(arena+hblkhd)
          2194 MiB available memory on the node where the printing process lives
------------------
     c_bands:  3 eigenvalues not converged
     c_bands:  2 eigenvalues not converged
     c_bands:  1 eigenvalues not converged
     c_bands:  2 eigenvalues not converged
     c_bands:  1 eigenvalues not converged
     c_bands:  1 eigenvalues not converged
     c_bands:  2 eigenvalues not converged
     c_bands:  3 eigenvalues not converged
     c_bands:  1 eigenvalues not converged
     c_bands:  2 eigenvalues not converged
     c_bands:  3 eigenvalues not converged
     c_bands:  2 eigenvalues not converged
     c_bands:  2 eigenvalues not converged
     ethr =  6.91E-06,  avg # of iterations = 18.7

     total cpu time spent up to now is     5199.3 secs

     total energy              =   -2631.20369676 Ry
     estimated scf accuracy    <       0.00200122 Ry

     iteration #  8     ecut=    60.00 Ry     beta= 0.70
     Davidson diagonalization with overlap

---- Real-time Memory Report at c_bands before calling an iterative solver
           682 MiB given to the printing process from OS
             0 MiB allocation reported by mallinfo(arena+hblkhd)
          2179 MiB available memory on the node where the printing process lives
------------------
     c_bands:  1 eigenvalues not converged
     c_bands:  2 eigenvalues not converged
     c_bands:  2 eigenvalues not converged
     c_bands:  1 eigenvalues not converged
     c_bands:  3 eigenvalues not converged
     c_bands:  1 eigenvalues not converged
     c_bands:  1 eigenvalues not converged
     c_bands:  2 eigenvalues not converged
     c_bands:  3 eigenvalues not converged
     c_bands:  1 eigenvalues not converged
     c_bands:  1 eigenvalues not converged
     c_bands:  2 eigenvalues not converged
     c_bands:  2 eigenvalues not converged
     c_bands:  2 eigenvalues not converged
     c_bands:  3 eigenvalues not converged
     ethr =  7.64E-07,  avg # of iterations = 17.9

     total cpu time spent up to now is     5980.8 secs

     total energy              =   -2631.20453839 Ry
     estimated scf accuracy    <       0.00045703 Ry

     iteration #  9     ecut=    60.00 Ry     beta= 0.70
     Davidson diagonalization with overlap

---- Real-time Memory Report at c_bands before calling an iterative solver
           683 MiB given to the printing process from OS
             0 MiB allocation reported by mallinfo(arena+hblkhd)
          2182 MiB available memory on the node where the printing process lives
------------------
     c_bands:  1 eigenvalues not converged
     c_bands:  2 eigenvalues not converged
     c_bands:  1 eigenvalues not converged
     ethr =  1.74E-07,  avg # of iterations =  9.7

     total cpu time spent up to now is     6708.0 secs

     total energy              =   -2631.20480185 Ry
     estimated scf accuracy    <       0.00005011 Ry

     iteration # 10     ecut=    60.00 Ry     beta= 0.70
     Davidson diagonalization with overlap

---- Real-time Memory Report at c_bands before calling an iterative solver
           685 MiB given to the printing process from OS
             0 MiB allocation reported by mallinfo(arena+hblkhd)
          2150 MiB available memory on the node where the printing process lives
------------------
     ethr =  1.91E-08,  avg # of iterations =  6.5

     total cpu time spent up to now is     7549.4 secs

     total energy              =   -2631.20480545 Ry
     estimated scf accuracy    <       0.00008269 Ry

     iteration # 11     ecut=    60.00 Ry     beta= 0.70
     Davidson diagonalization with overlap

---- Real-time Memory Report at c_bands before calling an iterative solver
           685 MiB given to the printing process from OS
             0 MiB allocation reported by mallinfo(arena+hblkhd)
          2151 MiB available memory on the node where the printing process lives
------------------
     ethr =  1.91E-08,  avg # of iterations =  4.2

     total cpu time spent up to now is     8100.7 secs

     total energy              =   -2631.20481909 Ry
     estimated scf accuracy    <       0.00000402 Ry

     iteration # 12     ecut=    60.00 Ry     beta= 0.70
     Davidson diagonalization with overlap

---- Real-time Memory Report at c_bands before calling an iterative solver
           685 MiB given to the printing process from OS
             0 MiB allocation reported by mallinfo(arena+hblkhd)
          2157 MiB available memory on the node where the printing process lives
------------------
     ethr =  1.53E-09,  avg # of iterations =  7.5

     total cpu time spent up to now is     9145.9 secs

     total energy              =   -2631.20482575 Ry
     estimated scf accuracy    <       0.00000110 Ry

     iteration # 13     ecut=    60.00 Ry     beta= 0.70
     Davidson diagonalization with overlap

---- Real-time Memory Report at c_bands before calling an iterative solver
           685 MiB given to the printing process from OS
             0 MiB allocation reported by mallinfo(arena+hblkhd)
          2157 MiB available memory on the node where the printing process lives
------------------
     ethr =  4.18E-10,  avg # of iterations =  4.2

     total cpu time spent up to now is     9648.0 secs

     End of self-consistent calculation

          k = 0.0000 0.0000 0.0000 ( 26519 PWs)   bands (ev):

   -78.1536 -67.8817 -67.7803 -67.6763 -67.3112 -67.1359 -44.3314 -44.2981
   -44.1792 -34.6472 -34.6264 -34.6263 -34.5486 -34.5277 -34.5199 -34.4408
   -34.4331 -34.4086 -34.0661 -34.0646 -34.0591 -33.9087 -33.8792 -33.8767
   -23.3794 -23.2739 -15.2291 -15.1869 -14.3116 -14.2771 -13.7725 -13.7583
   -13.6184 -13.4775 -13.3984 -13.2960 -13.1226 -13.0361 -13.0002 -12.9709
   -12.9165 -12.8279 -12.6624 -12.5907 -12.4954 -12.4835 -12.4504 -12.3409
   -11.3706 -11.1039  -6.9168  -6.8664  -6.8601  -6.8173  -6.7568  -6.7451
    -4.4485  -4.4083  -2.5847  -2.5021  -1.9724  -1.5185  -1.3303  -1.2995
    -1.2331  -1.1659  -0.8519  -0.8127  -0.6797  -0.5284  -0.5135  -0.3428
    -0.1331  -0.0717   0.0381   0.2463   0.3925   0.4031   0.5171   0.7363
     0.7455   0.9695   1.0569   1.1213   1.2097   1.3314   1.3629   1.4735
     1.6194   1.7021   1.7467   1.8982   1.9278   2.0294   2.0777   2.0935
     2.1878   2.2989   2.4508   2.4683   2.4836   2.5175   2.6369   2.6589
     2.7118   2.8003   2.8265   2.8906   2.9533   3.0828   3.0838   3.1135
     3.2196   3.2277   3.2851   3.3240   3.3920   3.4408   3.4561   3.5601
     3.5991   3.6148   3.6721   3.7012   3.8380   4.0801   4.2642   4.3599
     7.9249   8.1590   8.2243   8.8613   9.4164   9.7845  10.3476  11.0647
    11.2865  11.7279  11.8054  11.9085  12.2634  12.4075  12.7389  12.7780
    12.8614  13.0698  13.1032  13.2225  13.3855  13.4012  13.4427  13.5692
    13.5987  13.6734  13.7944  13.8812  13.9917

     occupation numbers 
     1.0000   1.0000   1.0000   1.0000   1.0000   1.0000   1.0000   1.0000
     1.0000   1.0000   1.0000   1.0000   1.0000   1.0000   1.0000   1.0000
     1.0000   1.0000   1.0000   1.0000   1.0000   1.0000   1.0000   1.0000
     1.0000   1.0000   1.0000   1.0000   1.0000   1.0000   1.0000   1.0000
     1.0000   1.0000   1.0000   1.0000   1.0000   1.0000   1.0000   1.0000
     1.0000   1.0000   1.0000   1.0000   1.0000   1.0000   1.0000   1.0000
     1.0000   1.0000   1.0000   1.0000   1.0000   1.0000   1.0000   1.0000
     1.0000   1.0000   1.0000   1.0000   1.0000   1.0000   1.0000   1.0000
     1.0000   1.0000   1.0000   1.0000   1.0000   1.0000   1.0000   1.0000
     1.0000   1.0000   1.0000   1.0000   1.0000   1.0000   1.0000   1.0000
     1.0000   1.0000   1.0000   1.0000   1.0000   1.0000   1.0000   1.0000
     1.0000   1.0000   1.0000   1.0000   1.0000   1.0000   1.0000   1.0000
     1.0000   1.0000   1.0000   1.0000   1.0000   1.0000   1.0000   1.0000
     1.0000   1.0000   1.0000   1.0000   1.0000   1.0000   1.0000   1.0000
     1.0000   1.0000   1.0000   1.0000   1.0000   1.0000   1.0000   1.0000
     1.0000   1.0000   1.0000   1.0000   1.0000   1.0000   1.0000   1.0000
     1.0000   1.0000   1.0000   0.0000   0.0000   0.0000   0.0000   0.0000
     0.0000   0.0000   0.0000   0.0000   0.0000   0.0000   0.0000   0.0000
     0.0000   0.0000   0.0000   0.0000   0.0000   0.0000   0.0000   0.0000
     0.0000   0.0000   0.0000   0.0000   0.0000

          k = 0.0000 0.0000 0.1723 ( 26547 PWs)   bands (ev):

   -78.1536 -67.8817 -67.7803 -67.6763 -67.3112 -67.1359 -44.3315 -44.2981
   -44.1792 -34.6472 -34.6264 -34.6263 -34.5486 -34.5278 -34.5199 -34.4408
   -34.4332 -34.4086 -34.0661 -34.0646 -34.0591 -33.9087 -33.8792 -33.8767
   -23.3794 -23.2739 -15.2203 -15.1962 -14.3033 -14.2857 -13.7729 -13.7579
   -13.6126 -13.4898 -13.3929 -13.2933 -13.1233 -13.0300 -13.0079 -12.9721
   -12.9117 -12.8307 -12.6571 -12.5954 -12.5001 -12.4769 -12.4478 -12.3455
   -11.3704 -11.1043  -6.9168  -6.8664  -6.8600  -6.8173  -6.7567  -6.7451
    -4.4440  -4.4132  -2.5668  -2.5228  -1.9485  -1.5117  -1.3263  -1.2992
    -1.2285  -1.1820  -0.8323  -0.8179  -0.7029  -0.5400  -0.4898  -0.4185
    -0.1075  -0.0582   0.0003   0.2063   0.3868   0.3900   0.5334   0.7489
     0.7822   1.0074   1.0579   1.0874   1.2575   1.3105   1.3667   1.4825
     1.6502   1.7132   1.8786   1.9136   1.9316   2.0095   2.0457   2.1127
     2.1801   2.2470   2.4041   2.4494   2.4656   2.5189   2.6108   2.6333
     2.6762   2.8464   2.8564   2.8868   2.9190   3.0645   3.0900   3.1613
     3.2261   3.2545   3.2660   3.2930   3.4021   3.4604   3.4733   3.5263
     3.6025   3.6091   3.6583   3.6852   3.8440   4.0839   4.2624   4.3620
     7.9263   8.1596   8.2221   9.1545   9.4112   9.7633   9.9047  11.1714
    11.3186  11.5637  11.8413  11.9136  12.3591  12.5948  12.7169  12.8386
    12.9450  13.0000  13.1083  13.1917  13.2695  13.4503  13.5089  13.5262
    13.6223  13.6965  13.8142  13.8560  13.9269

     occupation numbers 
     1.0000   1.0000   1.0000   1.0000   1.0000   1.0000   1.0000   1.0000
     1.0000   1.0000   1.0000   1.0000   1.0000   1.0000   1.0000   1.0000
     1.0000   1.0000   1.0000   1.0000   1.0000   1.0000   1.0000   1.0000
     1.0000   1.0000   1.0000   1.0000   1.0000   1.0000   1.0000   1.0000
     1.0000   1.0000   1.0000   1.0000   1.0000   1.0000   1.0000   1.0000
     1.0000   1.0000   1.0000   1.0000   1.0000   1.0000   1.0000   1.0000
     1.0000   1.0000   1.0000   1.0000   1.0000   1.0000   1.0000   1.0000
     1.0000   1.0000   1.0000   1.0000   1.0000   1.0000   1.0000   1.0000
     1.0000   1.0000   1.0000   1.0000   1.0000   1.0000   1.0000   1.0000
     1.0000   1.0000   1.0000   1.0000   1.0000   1.0000   1.0000   1.0000
     1.0000   1.0000   1.0000   1.0000   1.0000   1.0000   1.0000   1.0000
     1.0000   1.0000   1.0000   1.0000   1.0000   1.0000   1.0000   1.0000
     1.0000   1.0000   1.0000   1.0000   1.0000   1.0000   1.0000   1.0000
     1.0000   1.0000   1.0000   1.0000   1.0000   1.0000   1.0000   1.0000
     1.0000   1.0000   1.0000   1.0000   1.0000   1.0000   1.0000   1.0000
     1.0000   1.0000   1.0000   1.0000   1.0000   1.0000   1.0000   1.0000
     1.0000   1.0000   1.0000   0.0000   0.0000   0.0000   0.0000   0.0000
     0.0000   0.0000   0.0000   0.0000   0.0000   0.0000   0.0000   0.0000
     0.0000   0.0000   0.0000   0.0000   0.0000   0.0000   0.0000   0.0000
     0.0000   0.0000   0.0000   0.0000   0.0000

          k = 0.0000 0.1926 0.0000 ( 26501 PWs)   bands (ev):

   -78.1536 -67.8817 -67.7803 -67.6763 -67.3112 -67.1359 -44.3314 -44.2981
   -44.1792 -34.6472 -34.6264 -34.6263 -34.5486 -34.5277 -34.5199 -34.4408
   -34.4331 -34.4086 -34.0660 -34.0646 -34.0591 -33.9087 -33.8792 -33.8767
   -23.3794 -23.2739 -15.2234 -15.1817 -14.3483 -14.3083 -13.7726 -13.7585
   -13.5355 -13.3910 -13.3772 -13.3003 -13.1401 -13.0866 -13.0719 -12.9706
   -12.9394 -12.8224 -12.6527 -12.5874 -12.4950 -12.4824 -12.4449 -12.3371
   -11.3692 -11.1033  -6.9163  -6.8664  -6.8599  -6.8180  -6.7566  -6.7454
    -4.4096  -4.3678  -2.7280  -2.6428  -1.9025  -1.6056  -1.2337  -1.2186
    -1.1458  -1.1057  -0.9086  -0.8063  -0.7546  -0.4660  -0.4631  -0.3161
    -0.2281  -0.0252   0.0220   0.2509   0.3457   0.3541   0.5232   0.7007
     0.7713   0.9218   1.0077   1.1065   1.2260   1.3738   1.4102   1.5278
     1.6497   1.7340   1.7877   1.8936   1.9061   2.0110   2.1463   2.1757
     2.2168   2.2902   2.3703   2.4853   2.4979   2.5376   2.6418   2.6592
     2.7694   2.7766   2.8297   2.8731   2.9567   2.9695   3.0869   3.1628
     3.2433   3.2581   3.2701   3.2928   3.4146   3.4238   3.4454   3.5567
     3.5699   3.6193   3.6727   3.6861   3.8066   4.0562   4.0812   4.3560
     7.9328   8.1600   8.2232   9.2660   9.3735   9.7869  10.2085  10.6183
    11.2007  11.5794  11.9960  12.2786  12.3048  12.5500  12.6641  12.8092
    12.8717  13.0054  13.1097  13.1874  13.1995  13.3897  13.3991  13.5255
    13.5431  13.5924  13.8923  14.0629  14.0786

     occupation numbers 
     1.0000   1.0000   1.0000   1.0000   1.0000   1.0000   1.0000   1.0000
     1.0000   1.0000   1.0000   1.0000   1.0000   1.0000   1.0000   1.0000
     1.0000   1.0000   1.0000   1.0000   1.0000   1.0000   1.0000   1.0000
     1.0000   1.0000   1.0000   1.0000   1.0000   1.0000   1.0000   1.0000
     1.0000   1.0000   1.0000   1.0000   1.0000   1.0000   1.0000   1.0000
     1.0000   1.0000   1.0000   1.0000   1.0000   1.0000   1.0000   1.0000
     1.0000   1.0000   1.0000   1.0000   1.0000   1.0000   1.0000   1.0000
     1.0000   1.0000   1.0000   1.0000   1.0000   1.0000   1.0000   1.0000
     1.0000   1.0000   1.0000   1.0000   1.0000   1.0000   1.0000   1.0000
     1.0000   1.0000   1.0000   1.0000   1.0000   1.0000   1.0000   1.0000
     1.0000   1.0000   1.0000   1.0000   1.0000   1.0000   1.0000   1.0000
     1.0000   1.0000   1.0000   1.0000   1.0000   1.0000   1.0000   1.0000
     1.0000   1.0000   1.0000   1.0000   1.0000   1.0000   1.0000   1.0000
     1.0000   1.0000   1.0000   1.0000   1.0000   1.0000   1.0000   1.0000
     1.0000   1.0000   1.0000   1.0000   1.0000   1.0000   1.0000   1.0000
     1.0000   1.0000   1.0000   1.0000   1.0000   1.0000   1.0000   1.0000
     1.0000   1.0000   1.0000   0.0000   0.0000   0.0000   0.0000   0.0000
     0.0000   0.0000   0.0000   0.0000   0.0000   0.0000   0.0000   0.0000
     0.0000   0.0000   0.0000   0.0000   0.0000   0.0000   0.0000   0.0000
     0.0000   0.0000   0.0000   0.0000   0.0000

          k = 0.0000 0.1926 0.1723 ( 26489 PWs)   bands (ev):

   -78.1536 -67.8817 -67.7803 -67.6763 -67.3112 -67.1359 -44.3314 -44.2981
   -44.1792 -34.6472 -34.6264 -34.6262 -34.5486 -34.5277 -34.5199 -34.4408
   -34.4331 -34.4086 -34.0660 -34.0646 -34.0591 -33.9087 -33.8792 -33.8767
   -23.3794 -23.2739 -15.2144 -15.1911 -14.3399 -14.3172 -13.7731 -13.7580
   -13.5315 -13.3918 -13.3848 -13.2930 -13.1438 -13.0826 -13.0734 -12.9712
   -12.9373 -12.8251 -12.6478 -12.5919 -12.4995 -12.4765 -12.4415 -12.3417
   -11.3690 -11.1037  -6.9163  -6.8664  -6.8598  -6.8180  -6.7565  -6.7454
    -4.4026  -4.3751  -2.7075  -2.6650  -1.8821  -1.5982  -1.2268  -1.2202
    -1.1403  -1.1167  -0.8888  -0.8254  -0.7660  -0.5056  -0.4306  -0.3747
    -0.1940  -0.0370  -0.0194   0.2302   0.3414   0.3486   0.5484   0.6998
     0.8090   0.9274   0.9589   1.1498   1.2942   1.3544   1.4841   1.5229
     1.6823   1.7144   1.8291   1.8715   1.9448   2.0044   2.0872   2.1858
     2.2242   2.2650   2.3612   2.4599   2.5016   2.5344   2.5936   2.6521
     2.7518   2.7806   2.8421   2.8808   2.9195   2.9979   3.0553   3.1881
     3.2109   3.2622   3.2832   3.3224   3.3909   3.4399   3.4861   3.5326
     3.5746   3.6006   3.6506   3.7020   3.7879   4.0642   4.0946   4.3586
     7.9345   8.1607   8.2203   9.3106   9.5716   9.7910  10.1954  10.4010
    10.8988  11.6006  12.0168  12.3100  12.4014  12.6609  12.7819  12.8894
    12.9258  13.0127  13.0999  13.2094  13.3138  13.3458  13.3707  13.4824
    13.5614  13.6396  13.8838  13.9470  14.0221

     occupation numbers 
     1.0000   1.0000   1.0000   1.0000   1.0000   1.0000   1.0000   1.0000
     1.0000   1.0000   1.0000   1.0000   1.0000   1.0000   1.0000   1.0000
     1.0000   1.0000   1.0000   1.0000   1.0000   1.0000   1.0000   1.0000
     1.0000   1.0000   1.0000   1.0000   1.0000   1.0000   1.0000   1.0000
     1.0000   1.0000   1.0000   1.0000   1.0000   1.0000   1.0000   1.0000
     1.0000   1.0000   1.0000   1.0000   1.0000   1.0000   1.0000   1.0000
     1.0000   1.0000   1.0000   1.0000   1.0000   1.0000   1.0000   1.0000
     1.0000   1.0000   1.0000   1.0000   1.0000   1.0000   1.0000   1.0000
     1.0000   1.0000   1.0000   1.0000   1.0000   1.0000   1.0000   1.0000
     1.0000   1.0000   1.0000   1.0000   1.0000   1.0000   1.0000   1.0000
     1.0000   1.0000   1.0000   1.0000   1.0000   1.0000   1.0000   1.0000
     1.0000   1.0000   1.0000   1.0000   1.0000   1.0000   1.0000   1.0000
     1.0000   1.0000   1.0000   1.0000   1.0000   1.0000   1.0000   1.0000
     1.0000   1.0000   1.0000   1.0000   1.0000   1.0000   1.0000   1.0000
     1.0000   1.0000   1.0000   1.0000   1.0000   1.0000   1.0000   1.0000
     1.0000   1.0000   1.0000   1.0000   1.0000   1.0000   1.0000   1.0000
     1.0000   1.0000   1.0000   0.0000   0.0000   0.0000   0.0000   0.0000
     0.0000   0.0000   0.0000   0.0000   0.0000   0.0000   0.0000   0.0000
     0.0000   0.0000   0.0000   0.0000   0.0000   0.0000   0.0000   0.0000
     0.0000   0.0000   0.0000   0.0000   0.0000

          k = 0.1667 0.0000 0.0300 ( 26532 PWs)   bands (ev):

   -78.1536 -67.8817 -67.7803 -67.6763 -67.3112 -67.1359 -44.3315 -44.2981
   -44.1792 -34.6470 -34.6267 -34.6262 -34.5486 -34.5278 -34.5199 -34.4409
   -34.4331 -34.4086 -34.0661 -34.0646 -34.0591 -33.9087 -33.8792 -33.8767
   -23.3793 -23.2737 -15.1712 -15.1300 -14.3264 -14.2950 -13.8941 -13.8709
   -13.5530 -13.4047 -13.3499 -13.2804 -13.1346 -13.0353 -12.9974 -12.9859
   -12.9064 -12.8338 -12.6814 -12.6169 -12.5554 -12.5092 -12.4302 -12.3291
   -11.3593 -11.1176  -6.9170  -6.8666  -6.8593  -6.8199  -6.7564  -6.7429
    -4.2918  -4.2466  -2.5574  -2.4723  -1.9665  -1.5860  -1.5657  -1.4799
    -1.0470  -0.9783  -0.8859  -0.7901  -0.7101  -0.5134  -0.4761  -0.3363
    -0.1250  -0.0631   0.0267   0.2265   0.3423   0.4446   0.4761   0.6179
     0.8968   0.9880   1.0536   1.0776   1.1842   1.2984   1.3593   1.4338
     1.5322   1.7011   1.7700   1.8304   1.9096   2.0830   2.1177   2.1743
     2.1850   2.3139   2.4311   2.4479   2.4611   2.5132   2.5674   2.6944
     2.7373   2.7706   2.8664   2.9358   2.9724   3.0134   3.0883   3.1101
     3.1698   3.2231   3.2523   3.3179   3.3500   3.4451   3.4781   3.5324
     3.5904   3.5970   3.6716   3.6763   3.8007   4.0776   4.1922   4.2679
     7.9298   8.1655   8.2011   9.1642   9.4182   9.7666  10.5467  11.1468
    11.4096  11.7625  11.8528  12.0841  12.2396  12.5085  12.6614  12.7730
    12.9040  13.0002  13.0151  13.2592  13.3136  13.3388  13.4113  13.5330
    13.5407  13.8038  13.8409  13.9081  14.0124

     occupation numbers 
     1.0000   1.0000   1.0000   1.0000   1.0000   1.0000   1.0000   1.0000
     1.0000   1.0000   1.0000   1.0000   1.0000   1.0000   1.0000   1.0000
     1.0000   1.0000   1.0000   1.0000   1.0000   1.0000   1.0000   1.0000
     1.0000   1.0000   1.0000   1.0000   1.0000   1.0000   1.0000   1.0000
     1.0000   1.0000   1.0000   1.0000   1.0000   1.0000   1.0000   1.0000
     1.0000   1.0000   1.0000   1.0000   1.0000   1.0000   1.0000   1.0000
     1.0000   1.0000   1.0000   1.0000   1.0000   1.0000   1.0000   1.0000
     1.0000   1.0000   1.0000   1.0000   1.0000   1.0000   1.0000   1.0000
     1.0000   1.0000   1.0000   1.0000   1.0000   1.0000   1.0000   1.0000
     1.0000   1.0000   1.0000   1.0000   1.0000   1.0000   1.0000   1.0000
     1.0000   1.0000   1.0000   1.0000   1.0000   1.0000   1.0000   1.0000
     1.0000   1.0000   1.0000   1.0000   1.0000   1.0000   1.0000   1.0000
     1.0000   1.0000   1.0000   1.0000   1.0000   1.0000   1.0000   1.0000
     1.0000   1.0000   1.0000   1.0000   1.0000   1.0000   1.0000   1.0000
     1.0000   1.0000   1.0000   1.0000   1.0000   1.0000   1.0000   1.0000
     1.0000   1.0000   1.0000   1.0000   1.0000   1.0000   1.0000   1.0000
     1.0000   1.0000   1.0000   0.0000   0.0000   0.0000   0.0000   0.0000
     0.0000   0.0000   0.0000   0.0000   0.0000   0.0000   0.0000   0.0000
     0.0000   0.0000   0.0000   0.0000   0.0000   0.0000   0.0000   0.0000
     0.0000   0.0000   0.0000   0.0000   0.0000

          k = 0.1667 0.0000 0.2023 ( 26514 PWs)   bands (ev):

   -78.1536 -67.8817 -67.7803 -67.6763 -67.3112 -67.1359 -44.3315 -44.2981
   -44.1792 -34.6470 -34.6266 -34.6262 -34.5486 -34.5278 -34.5199 -34.4409
   -34.4331 -34.4086 -34.0661 -34.0646 -34.0591 -33.9087 -33.8792 -33.8767
   -23.3793 -23.2737 -15.1602 -15.1416 -14.3184 -14.3033 -13.8893 -13.8758
   -13.5479 -13.4175 -13.3436 -13.2767 -13.1353 -13.0275 -13.0083 -12.9852
   -12.9025 -12.8364 -12.6763 -12.6231 -12.5487 -12.5152 -12.4235 -12.3350
   -11.3590 -11.1181  -6.9170  -6.8665  -6.8592  -6.8199  -6.7563  -6.7429
    -4.2923  -4.2463  -2.5429  -2.4899  -1.9404  -1.6145  -1.5501  -1.4654
    -1.0429  -0.9838  -0.8788  -0.7991  -0.7064  -0.5060  -0.4679  -0.4278
    -0.0970  -0.0359  -0.0122   0.1813   0.3309   0.4458   0.4546   0.6604
     0.9420   1.0025   1.0412   1.0667   1.1992   1.3095   1.3663   1.4409
     1.5642   1.7292   1.8091   1.8253   1.9800   2.0604   2.1366   2.1682
     2.1833   2.2773   2.3466   2.4157   2.4574   2.5168   2.5740   2.6815
     2.6934   2.7777   2.8940   2.9164   2.9731   3.0207   3.0627   3.1251
     3.1657   3.2356   3.2578   3.3225   3.3357   3.4714   3.5006   3.5294
     3.5936   3.6032   3.6127   3.6655   3.8175   4.0747   4.2061   4.2696
     7.9303   8.1656   8.1996   9.3953   9.4557   9.8662   9.9908  11.2409
    11.4381  11.6241  11.9394  12.0099  12.2025  12.5918  12.7734  12.9125
    12.9563  13.0413  13.0949  13.1751  13.2614  13.3720  13.4383  13.5595
    13.5914  13.6574  13.7289  13.8735  14.0262

     occupation numbers 
     1.0000   1.0000   1.0000   1.0000   1.0000   1.0000   1.0000   1.0000
     1.0000   1.0000   1.0000   1.0000   1.0000   1.0000   1.0000   1.0000
     1.0000   1.0000   1.0000   1.0000   1.0000   1.0000   1.0000   1.0000
     1.0000   1.0000   1.0000   1.0000   1.0000   1.0000   1.0000   1.0000
     1.0000   1.0000   1.0000   1.0000   1.0000   1.0000   1.0000   1.0000
     1.0000   1.0000   1.0000   1.0000   1.0000   1.0000   1.0000   1.0000
     1.0000   1.0000   1.0000   1.0000   1.0000   1.0000   1.0000   1.0000
     1.0000   1.0000   1.0000   1.0000   1.0000   1.0000   1.0000   1.0000
     1.0000   1.0000   1.0000   1.0000   1.0000   1.0000   1.0000   1.0000
     1.0000   1.0000   1.0000   1.0000   1.0000   1.0000   1.0000   1.0000
     1.0000   1.0000   1.0000   1.0000   1.0000   1.0000   1.0000   1.0000
     1.0000   1.0000   1.0000   1.0000   1.0000   1.0000   1.0000   1.0000
     1.0000   1.0000   1.0000   1.0000   1.0000   1.0000   1.0000   1.0000
     1.0000   1.0000   1.0000   1.0000   1.0000   1.0000   1.0000   1.0000
     1.0000   1.0000   1.0000   1.0000   1.0000   1.0000   1.0000   1.0000
     1.0000   1.0000   1.0000   1.0000   1.0000   1.0000   1.0000   1.0000
     1.0000   1.0000   1.0000   0.0000   0.0000   0.0000   0.0000   0.0000
     0.0000   0.0000   0.0000   0.0000   0.0000   0.0000   0.0000   0.0000
     0.0000   0.0000   0.0000   0.0000   0.0000   0.0000   0.0000   0.0000
     0.0000   0.0000   0.0000   0.0000   0.0000

          k = 0.1667 0.0000-0.1423 ( 26499 PWs)   bands (ev):

   -78.1536 -67.8817 -67.7803 -67.6763 -67.3112 -67.1359 -44.3314 -44.2981
   -44.1792 -34.6470 -34.6266 -34.6262 -34.5486 -34.5278 -34.5199 -34.4409
   -34.4331 -34.4086 -34.0660 -34.0646 -34.0591 -33.9087 -33.8792 -33.8767
   -23.3793 -23.2737 -15.1646 -15.1370 -14.3191 -14.3026 -13.8890 -13.8760
   -13.5495 -13.4124 -13.3482 -13.2765 -13.1351 -13.0307 -13.0038 -12.9849
   -12.9049 -12.8362 -12.6738 -12.6252 -12.5420 -12.5220 -12.4239 -12.3340
   -11.3589 -11.1181  -6.9171  -6.8665  -6.8592  -6.8199  -6.7563  -6.7429
    -4.2753  -4.2635  -2.5410  -2.4905  -1.9511  -1.6106  -1.5492  -1.4687
    -1.0344  -0.9927  -0.8747  -0.7778  -0.7255  -0.5042  -0.4863  -0.3985
    -0.1197  -0.0395   0.0025   0.1807   0.3504   0.4413   0.4998   0.6481
     0.8981   0.9781   1.0357   1.0787   1.2242   1.3356   1.3572   1.4171
     1.5789   1.7325   1.7772   1.8362   1.9089   2.0871   2.1035   2.1429
     2.1734   2.3088   2.3983   2.4246   2.4470   2.5211   2.5820   2.6702
     2.7272   2.7913   2.8910   2.9221   2.9876   3.0435   3.0787   3.1358
     3.1472   3.2168   3.2500   3.3367   3.3543   3.3903   3.5054   3.5312
     3.5577   3.5941   3.6228   3.6923   3.8382   4.0727   4.2015   4.2679
     7.9312   8.1651   8.2013   9.3411   9.4312   9.6990  10.2942  11.2771
    11.4954  11.6093  11.9408  11.9813  12.2194  12.6642  12.7035  12.7903
    12.9096  13.0051  13.0684  13.1565  13.2597  13.3906  13.4200  13.4917
    13.5449  13.7254  13.8222  13.9226  14.0221

     occupation numbers 
     1.0000   1.0000   1.0000   1.0000   1.0000   1.0000   1.0000   1.0000
     1.0000   1.0000   1.0000   1.0000   1.0000   1.0000   1.0000   1.0000
     1.0000   1.0000   1.0000   1.0000   1.0000   1.0000   1.0000   1.0000
     1.0000   1.0000   1.0000   1.0000   1.0000   1.0000   1.0000   1.0000
     1.0000   1.0000   1.0000   1.0000   1.0000   1.0000   1.0000   1.0000
     1.0000   1.0000   1.0000   1.0000   1.0000   1.0000   1.0000   1.0000
     1.0000   1.0000   1.0000   1.0000   1.0000   1.0000   1.0000   1.0000
     1.0000   1.0000   1.0000   1.0000   1.0000   1.0000   1.0000   1.0000
     1.0000   1.0000   1.0000   1.0000   1.0000   1.0000   1.0000   1.0000
     1.0000   1.0000   1.0000   1.0000   1.0000   1.0000   1.0000   1.0000
     1.0000   1.0000   1.0000   1.0000   1.0000   1.0000   1.0000   1.0000
     1.0000   1.0000   1.0000   1.0000   1.0000   1.0000   1.0000   1.0000
     1.0000   1.0000   1.0000   1.0000   1.0000   1.0000   1.0000   1.0000
     1.0000   1.0000   1.0000   1.0000   1.0000   1.0000   1.0000   1.0000
     1.0000   1.0000   1.0000   1.0000   1.0000   1.0000   1.0000   1.0000
     1.0000   1.0000   1.0000   1.0000   1.0000   1.0000   1.0000   1.0000
     1.0000   1.0000   1.0000   0.0000   0.0000   0.0000   0.0000   0.0000
     0.0000   0.0000   0.0000   0.0000   0.0000   0.0000   0.0000   0.0000
     0.0000   0.0000   0.0000   0.0000   0.0000   0.0000   0.0000   0.0000
     0.0000   0.0000   0.0000   0.0000   0.0000

          k = 0.1667 0.1926 0.0300 ( 26502 PWs)   bands (ev):

   -78.1536 -67.8817 -67.7803 -67.6763 -67.3112 -67.1359 -44.3314 -44.2981
   -44.1792 -34.6470 -34.6266 -34.6262 -34.5486 -34.5278 -34.5199 -34.4409
   -34.4331 -34.4086 -34.0660 -34.0646 -34.0591 -33.9087 -33.8792 -33.8767
   -23.3793 -23.2737 -15.1658 -15.1250 -14.3586 -14.3222 -13.8798 -13.8603
   -13.5006 -13.3689 -13.3253 -13.2608 -13.1364 -13.0864 -13.0582 -12.9899
   -12.9294 -12.8286 -12.6772 -12.6027 -12.5483 -12.5141 -12.4279 -12.3272
   -11.3582 -11.1172  -6.9167  -6.8666  -6.8592  -6.8205  -6.7561  -6.7431
    -4.2557  -4.2094  -2.7110  -2.6260  -1.8793  -1.5906  -1.4453  -1.4102
    -1.0464  -0.9823  -0.9178  -0.8037  -0.6906  -0.4696  -0.4318  -0.2914
    -0.1711  -0.0595   0.0029   0.2238   0.3048   0.4088   0.4879   0.5829
     0.8884   0.9180   1.0334   1.1223   1.1695   1.2978   1.3828   1.4631
     1.5599   1.7140   1.7444   1.8552   1.9438   2.0451   2.1532   2.1743
     2.2405   2.3304   2.3640   2.4909   2.5057   2.5764   2.6292   2.6853
     2.7522   2.7787   2.8403   2.9188   2.9574   2.9901   3.0414   3.1410
     3.1970   3.2389   3.2669   3.3010   3.3469   3.4131   3.4515   3.5043
     3.5589   3.5868   3.6284   3.7129   3.7855   4.0333   4.1280   4.2458
     7.9374   8.1667   8.1993   9.3728   9.5225   9.7823  10.3941  10.7814
    11.3115  11.6374  11.9945  12.2898  12.3753  12.5204  12.7372  12.7861
    12.8768  12.9948  13.0370  13.1529  13.2151  13.3313  13.4065  13.4854
    13.6313  13.7173  13.9186  14.0435  14.1717

     occupation numbers 
     1.0000   1.0000   1.0000   1.0000   1.0000   1.0000   1.0000   1.0000
     1.0000   1.0000   1.0000   1.0000   1.0000   1.0000   1.0000   1.0000
     1.0000   1.0000   1.0000   1.0000   1.0000   1.0000   1.0000   1.0000
     1.0000   1.0000   1.0000   1.0000   1.0000   1.0000   1.0000   1.0000
     1.0000   1.0000   1.0000   1.0000   1.0000   1.0000   1.0000   1.0000
     1.0000   1.0000   1.0000   1.0000   1.0000   1.0000   1.0000   1.0000
     1.0000   1.0000   1.0000   1.0000   1.0000   1.0000   1.0000   1.0000
     1.0000   1.0000   1.0000   1.0000   1.0000   1.0000   1.0000   1.0000
     1.0000   1.0000   1.0000   1.0000   1.0000   1.0000   1.0000   1.0000
     1.0000   1.0000   1.0000   1.0000   1.0000   1.0000   1.0000   1.0000
     1.0000   1.0000   1.0000   1.0000   1.0000   1.0000   1.0000   1.0000
     1.0000   1.0000   1.0000   1.0000   1.0000   1.0000   1.0000   1.0000
     1.0000   1.0000   1.0000   1.0000   1.0000   1.0000   1.0000   1.0000
     1.0000   1.0000   1.0000   1.0000   1.0000   1.0000   1.0000   1.0000
     1.0000   1.0000   1.0000   1.0000   1.0000   1.0000   1.0000   1.0000
     1.0000   1.0000   1.0000   1.0000   1.0000   1.0000   1.0000   1.0000
     1.0000   1.0000   1.0000   0.0000   0.0000   0.0000   0.0000   0.0000
     0.0000   0.0000   0.0000   0.0000   0.0000   0.0000   0.0000   0.0000
     0.0000   0.0000   0.0000   0.0000   0.0000   0.0000   0.0000   0.0000
     0.0000   0.0000   0.0000   0.0000   0.0000

          k = 0.1667 0.1926 0.2023 ( 26501 PWs)   bands (ev):

   -78.1536 -67.8817 -67.7803 -67.6763 -67.3112 -67.1359 -44.3314 -44.2981
   -44.1792 -34.6470 -34.6266 -34.6262 -34.5486 -34.5278 -34.5199 -34.4409
   -34.4331 -34.4086 -34.0660 -34.0646 -34.0591 -33.9087 -33.8792 -33.8767
   -23.3793 -23.2737 -15.1545 -15.1368 -14.3489 -14.3324 -13.8779 -13.8622
   -13.4968 -13.3680 -13.3360 -13.2510 -13.1383 -13.0909 -13.0536 -12.9899
   -12.9279 -12.8317 -12.6730 -12.6083 -12.5436 -12.5178 -12.4213 -12.3329
   -11.3579 -11.1177  -6.9167  -6.8666  -6.8591  -6.8205  -6.7560  -6.7431
    -4.2534  -4.2119  -2.6904  -2.6486  -1.8592  -1.5836  -1.4606  -1.3959
    -1.0489  -0.9789  -0.9135  -0.8108  -0.6840  -0.5095  -0.4180  -0.3362
    -0.1456  -0.0692  -0.0147   0.1909   0.3006   0.4054   0.4754   0.6101
     0.8911   0.9197   1.0296   1.1558   1.1964   1.3187   1.4062   1.5174
     1.5896   1.6693   1.7372   1.8743   1.9899   2.0326   2.1518   2.1838
     2.2364   2.3055   2.3486   2.4437   2.5017   2.5677   2.6127   2.6671
     2.7405   2.7923   2.8173   2.9175   2.9410   2.9814   3.0488   3.1541
     3.1885   3.2404   3.2638   3.3140   3.3629   3.4007   3.4728   3.5117
     3.5499   3.5918   3.6305   3.6854   3.7885   4.0385   4.1366   4.2535
     7.9382   8.1667   8.1974   9.3525   9.6657   9.9567  10.3010  10.6035
    10.9934  11.6446  12.0060  12.2980  12.4438  12.5652  12.8280  12.9433
    12.9792  13.0397  13.0773  13.1703  13.2425  13.3565  13.3989  13.4752
    13.5776  13.6757  13.8111  13.9907  14.0806

     occupation numbers 
     1.0000   1.0000   1.0000   1.0000   1.0000   1.0000   1.0000   1.0000
     1.0000   1.0000   1.0000   1.0000   1.0000   1.0000   1.0000   1.0000
     1.0000   1.0000   1.0000   1.0000   1.0000   1.0000   1.0000   1.0000
     1.0000   1.0000   1.0000   1.0000   1.0000   1.0000   1.0000   1.0000
     1.0000   1.0000   1.0000   1.0000   1.0000   1.0000   1.0000   1.0000
     1.0000   1.0000   1.0000   1.0000   1.0000   1.0000   1.0000   1.0000
     1.0000   1.0000   1.0000   1.0000   1.0000   1.0000   1.0000   1.0000
     1.0000   1.0000   1.0000   1.0000   1.0000   1.0000   1.0000   1.0000
     1.0000   1.0000   1.0000   1.0000   1.0000   1.0000   1.0000   1.0000
     1.0000   1.0000   1.0000   1.0000   1.0000   1.0000   1.0000   1.0000
     1.0000   1.0000   1.0000   1.0000   1.0000   1.0000   1.0000   1.0000
     1.0000   1.0000   1.0000   1.0000   1.0000   1.0000   1.0000   1.0000
     1.0000   1.0000   1.0000   1.0000   1.0000   1.0000   1.0000   1.0000
     1.0000   1.0000   1.0000   1.0000   1.0000   1.0000   1.0000   1.0000
     1.0000   1.0000   1.0000   1.0000   1.0000   1.0000   1.0000   1.0000
     1.0000   1.0000   1.0000   1.0000   1.0000   1.0000   1.0000   1.0000
     1.0000   1.0000   1.0000   0.0000   0.0000   0.0000   0.0000   0.0000
     0.0000   0.0000   0.0000   0.0000   0.0000   0.0000   0.0000   0.0000
     0.0000   0.0000   0.0000   0.0000   0.0000   0.0000   0.0000   0.0000
     0.0000   0.0000   0.0000   0.0000   0.0000

          k = 0.1667 0.1926-0.1423 ( 26502 PWs)   bands (ev):

   -78.1536 -67.8817 -67.7803 -67.6763 -67.3112 -67.1359 -44.3314 -44.2981
   -44.1792 -34.6470 -34.6266 -34.6262 -34.5486 -34.5278 -34.5199 -34.4409
   -34.4331 -34.4086 -34.0660 -34.0646 -34.0591 -33.9087 -33.8792 -33.8767
   -23.3793 -23.2737 -15.1591 -15.1321 -14.3510 -14.3303 -13.8751 -13.8651
   -13.4979 -13.3689 -13.3310 -13.2553 -13.1383 -13.0830 -13.0621 -12.9895
   -12.9281 -12.8311 -12.6699 -12.6101 -12.5353 -12.5271 -12.4215 -12.3321
   -11.3578 -11.1176  -6.9168  -6.8666  -6.8591  -6.8206  -6.7560  -6.7431
    -4.2379  -4.2276  -2.6916  -2.6470  -1.8670  -1.5850  -1.4631  -1.3931
    -1.0326  -0.9963  -0.8951  -0.8049  -0.7139  -0.4823  -0.4279  -0.3245
    -0.1619  -0.0706  -0.0198   0.2083   0.3127   0.4008   0.5126   0.6059
     0.8673   0.9017   1.0266   1.1381   1.2127   1.3108   1.4102   1.5066
     1.5869   1.7084   1.7097   1.8969   1.9373   2.0214   2.1286   2.1726
     2.2072   2.3299   2.3749   2.4592   2.5207   2.5548   2.6063   2.7108
     2.7360   2.8196   2.8347   2.9067   2.9472   2.9707   3.0557   3.1685
     3.2039   3.2245   3.2571   3.3145   3.3627   3.4112   3.4654   3.4995
     3.5187   3.5661   3.6475   3.6794   3.8196   4.0311   4.1340   4.2455
     7.9390   8.1664   8.1998   9.3338   9.7245   9.7577  10.5123  10.5483
    11.0938  11.6981  12.0331  12.2920  12.3583  12.5831  12.7632  12.8637
    12.9186  13.0155  13.0919  13.1656  13.2876  13.3144  13.3816  13.5157
    13.5876  13.6292  13.7544  14.0298  14.1063

     occupation numbers 
     1.0000   1.0000   1.0000   1.0000   1.0000   1.0000   1.0000   1.0000
     1.0000   1.0000   1.0000   1.0000   1.0000   1.0000   1.0000   1.0000
     1.0000   1.0000   1.0000   1.0000   1.0000   1.0000   1.0000   1.0000
     1.0000   1.0000   1.0000   1.0000   1.0000   1.0000   1.0000   1.0000
     1.0000   1.0000   1.0000   1.0000   1.0000   1.0000   1.0000   1.0000
     1.0000   1.0000   1.0000   1.0000   1.0000   1.0000   1.0000   1.0000
     1.0000   1.0000   1.0000   1.0000   1.0000   1.0000   1.0000   1.0000
     1.0000   1.0000   1.0000   1.0000   1.0000   1.0000   1.0000   1.0000
     1.0000   1.0000   1.0000   1.0000   1.0000   1.0000   1.0000   1.0000
     1.0000   1.0000   1.0000   1.0000   1.0000   1.0000   1.0000   1.0000
     1.0000   1.0000   1.0000   1.0000   1.0000   1.0000   1.0000   1.0000
     1.0000   1.0000   1.0000   1.0000   1.0000   1.0000   1.0000   1.0000
     1.0000   1.0000   1.0000   1.0000   1.0000   1.0000   1.0000   1.0000
     1.0000   1.0000   1.0000   1.0000   1.0000   1.0000   1.0000   1.0000
     1.0000   1.0000   1.0000   1.0000   1.0000   1.0000   1.0000   1.0000
     1.0000   1.0000   1.0000   1.0000   1.0000   1.0000   1.0000   1.0000
     1.0000   1.0000   1.0000   0.0000   0.0000   0.0000   0.0000   0.0000
     0.0000   0.0000   0.0000   0.0000   0.0000   0.0000   0.0000   0.0000
     0.0000   0.0000   0.0000   0.0000   0.0000   0.0000   0.0000   0.0000
     0.0000   0.0000   0.0000   0.0000   0.0000

          k = 0.3333 0.0000 0.0600 ( 26479 PWs)   bands (ev):

   -78.1536 -67.8817 -67.7803 -67.6763 -67.3112 -67.1359 -44.3314 -44.2981
   -44.1792 -34.6467 -34.6270 -34.6261 -34.5485 -34.5279 -34.5198 -34.4410
   -34.4329 -34.4087 -34.0660 -34.0647 -34.0592 -33.9087 -33.8791 -33.8768
   -23.3790 -23.2735 -15.0124 -14.9748 -14.4371 -14.4103 -14.0222 -13.9965
   -13.4613 -13.3075 -13.2436 -13.2409 -13.1576 -13.0692 -13.0207 -12.9993
   -12.9130 -12.8430 -12.7407 -12.6903 -12.6115 -12.5365 -12.4143 -12.3213
   -11.3335 -11.1496  -6.9178  -6.8667  -6.8579  -6.8251  -6.7556  -6.7385
    -3.8831  -3.8247  -2.6886  -2.5894  -1.9641  -1.8189  -1.5983  -1.4239
    -1.0077  -0.9622  -0.8665  -0.8372  -0.5873  -0.4707  -0.4068  -0.2987
    -0.2435  -0.0618   0.0768   0.2252   0.3233   0.4301   0.4998   0.5591
     0.8406   0.9019   0.9898   1.1017   1.2218   1.2699   1.3744   1.3874
     1.4608   1.5048   1.6336   1.7825   1.8968   2.1059   2.1314   2.2187
     2.2489   2.3577   2.4399   2.4962   2.5225   2.5571   2.5936   2.6861
     2.7241   2.7892   2.8993   2.9125   2.9338   2.9981   3.0361   3.0653
     3.0832   3.2572   3.2716   3.2993   3.3419   3.3863   3.4250   3.4855
     3.5158   3.5827   3.6445   3.7107   3.7444   3.9062   4.1252   4.2293
     7.9385   8.1506   8.1807   9.4233   9.5952  10.0739  10.9715  11.3002
    11.6501  11.8008  11.9087  11.9858  12.4021  12.4526  12.4830  12.6993
    12.9110  12.9222  13.1485  13.2291  13.2616  13.3095  13.4228  13.4904
    13.6582  13.8743  13.9363  14.0391  14.2013

     occupation numbers 
     1.0000   1.0000   1.0000   1.0000   1.0000   1.0000   1.0000   1.0000
     1.0000   1.0000   1.0000   1.0000   1.0000   1.0000   1.0000   1.0000
     1.0000   1.0000   1.0000   1.0000   1.0000   1.0000   1.0000   1.0000
     1.0000   1.0000   1.0000   1.0000   1.0000   1.0000   1.0000   1.0000
     1.0000   1.0000   1.0000   1.0000   1.0000   1.0000   1.0000   1.0000
     1.0000   1.0000   1.0000   1.0000   1.0000   1.0000   1.0000   1.0000
     1.0000   1.0000   1.0000   1.0000   1.0000   1.0000   1.0000   1.0000
     1.0000   1.0000   1.0000   1.0000   1.0000   1.0000   1.0000   1.0000
     1.0000   1.0000   1.0000   1.0000   1.0000   1.0000   1.0000   1.0000
     1.0000   1.0000   1.0000   1.0000   1.0000   1.0000   1.0000   1.0000
     1.0000   1.0000   1.0000   1.0000   1.0000   1.0000   1.0000   1.0000
     1.0000   1.0000   1.0000   1.0000   1.0000   1.0000   1.0000   1.0000
     1.0000   1.0000   1.0000   1.0000   1.0000   1.0000   1.0000   1.0000
     1.0000   1.0000   1.0000   1.0000   1.0000   1.0000   1.0000   1.0000
     1.0000   1.0000   1.0000   1.0000   1.0000   1.0000   1.0000   1.0000
     1.0000   1.0000   1.0000   1.0000   1.0000   1.0000   1.0000   1.0000
     1.0000   1.0000   1.0000   0.0000   0.0000   0.0000   0.0000   0.0000
     0.0000   0.0000   0.0000   0.0000   0.0000   0.0000   0.0000   0.0000
     0.0000   0.0000   0.0000   0.0000   0.0000   0.0000   0.0000   0.0000
     0.0000   0.0000   0.0000   0.0000   0.0000

          k = 0.3333 0.0000 0.2323 ( 26473 PWs)   bands (ev):

   -78.1536 -67.8817 -67.7803 -67.6763 -67.3112 -67.1359 -44.3314 -44.2981
   -44.1792 -34.6467 -34.6270 -34.6261 -34.5485 -34.5279 -34.5198 -34.4409
   -34.4329 -34.4087 -34.0660 -34.0647 -34.0591 -33.9087 -33.8791 -33.8768
   -23.3790 -23.2735 -14.9993 -14.9884 -14.4351 -14.4124 -14.0157 -14.0033
   -13.4578 -13.3149 -13.2476 -13.2315 -13.1589 -13.0626 -13.0219 -13.0049
   -12.9128 -12.8437 -12.7356 -12.6964 -12.6018 -12.5443 -12.4077 -12.3276
   -11.3328 -11.1503  -6.9179  -6.8666  -6.8578  -6.8252  -6.7555  -6.7384
    -3.8837  -3.8242  -2.6718  -2.6083  -1.9441  -1.8454  -1.5822  -1.4150
    -1.0045  -0.9658  -0.8734  -0.8228  -0.5661  -0.4504  -0.4311  -0.3813
    -0.2076  -0.0907   0.0778   0.1999   0.3280   0.4206   0.4816   0.6021
     0.8604   0.9212   0.9893   1.0972   1.1547   1.3082   1.3765   1.4191
     1.4910   1.5468   1.5878   1.8543   1.9104   2.0616   2.1508   2.2212
     2.2335   2.2961   2.4208   2.4958   2.5411   2.5628   2.5977   2.6418
     2.7156   2.8288   2.8643   2.8800   2.9064   3.0058   3.0656   3.0910
     3.1027   3.2556   3.2696   3.3360   3.3448   3.3607   3.4190   3.4635
     3.5072   3.6009   3.6279   3.6950   3.7582   3.9364   4.1214   4.2332
     7.9382   8.1502   8.1811   9.4193   9.6164  10.3663  10.5193  11.3570
    11.7062  11.7449  11.8657  12.0579  12.3052  12.4048  12.5229  12.6977
    12.9998  13.0255  13.1409  13.1775  13.2799  13.3221  13.4842  13.5817
    13.6599  13.6930  13.7661  14.1464  14.2152

     occupation numbers 
     1.0000   1.0000   1.0000   1.0000   1.0000   1.0000   1.0000   1.0000
     1.0000   1.0000   1.0000   1.0000   1.0000   1.0000   1.0000   1.0000
     1.0000   1.0000   1.0000   1.0000   1.0000   1.0000   1.0000   1.0000
     1.0000   1.0000   1.0000   1.0000   1.0000   1.0000   1.0000   1.0000
     1.0000   1.0000   1.0000   1.0000   1.0000   1.0000   1.0000   1.0000
     1.0000   1.0000   1.0000   1.0000   1.0000   1.0000   1.0000   1.0000
     1.0000   1.0000   1.0000   1.0000   1.0000   1.0000   1.0000   1.0000
     1.0000   1.0000   1.0000   1.0000   1.0000   1.0000   1.0000   1.0000
     1.0000   1.0000   1.0000   1.0000   1.0000   1.0000   1.0000   1.0000
     1.0000   1.0000   1.0000   1.0000   1.0000   1.0000   1.0000   1.0000
     1.0000   1.0000   1.0000   1.0000   1.0000   1.0000   1.0000   1.0000
     1.0000   1.0000   1.0000   1.0000   1.0000   1.0000   1.0000   1.0000
     1.0000   1.0000   1.0000   1.0000   1.0000   1.0000   1.0000   1.0000
     1.0000   1.0000   1.0000   1.0000   1.0000   1.0000   1.0000   1.0000
     1.0000   1.0000   1.0000   1.0000   1.0000   1.0000   1.0000   1.0000
     1.0000   1.0000   1.0000   1.0000   1.0000   1.0000   1.0000   1.0000
     1.0000   1.0000   1.0000   0.0000   0.0000   0.0000   0.0000   0.0000
     0.0000   0.0000   0.0000   0.0000   0.0000   0.0000   0.0000   0.0000
     0.0000   0.0000   0.0000   0.0000   0.0000   0.0000   0.0000   0.0000
     0.0000   0.0000   0.0000   0.0000   0.0000

          k = 0.3333 0.0000-0.1123 ( 26497 PWs)   bands (ev):

   -78.1536 -67.8817 -67.7803 -67.6763 -67.3112 -67.1359 -44.3315 -44.2981
   -44.1792 -34.6467 -34.6270 -34.6261 -34.5485 -34.5279 -34.5198 -34.4410
   -34.4329 -34.4087 -34.0660 -34.0647 -34.0592 -33.9087 -33.8791 -33.8768
   -23.3790 -23.2735 -15.0082 -14.9793 -14.4292 -14.4185 -14.0175 -14.0014
   -13.4598 -13.3109 -13.2489 -13.2314 -13.1595 -13.0702 -13.0124 -13.0066
   -12.9131 -12.8441 -12.7335 -12.6999 -12.5984 -12.5465 -12.4087 -12.3264
   -11.3329 -11.1501  -6.9179  -6.8666  -6.8578  -6.8252  -6.7555  -6.7384
    -3.8596  -3.8490  -2.6806  -2.5990  -1.9535  -1.8325  -1.5923  -1.4209
    -0.9949  -0.9613  -0.8631  -0.8283  -0.5925  -0.4677  -0.4156  -0.3369
    -0.2362  -0.0893   0.1022   0.1842   0.3416   0.4269   0.5210   0.5685
     0.8484   0.8858   0.9979   1.1526   1.1573   1.2989   1.3856   1.4073
     1.4642   1.4902   1.6444   1.8015   1.8842   2.0975   2.1128   2.1912
     2.2481   2.3360   2.4332   2.4820   2.5415   2.5735   2.6246   2.6574
     2.7136   2.7824   2.8824   2.9012   2.9603   2.9927   3.0879   3.1034
     3.1179   3.2441   3.2600   3.2872   3.3420   3.4024   3.4081   3.4344
     3.5154   3.5482   3.6184   3.7188   3.7880   3.9163   4.1247   4.2323
     7.9390   8.1515   8.1805   9.4191   9.6584  10.0174  10.9110  11.4280
    11.6253  11.7700  11.9504  12.0829  12.2913  12.3952  12.5638  12.6612
    12.8436  13.0103  13.0384  13.2025  13.2850  13.3121  13.3599  13.4430
    13.7270  13.8288  13.9361  14.0228  14.2261

     occupation numbers 
     1.0000   1.0000   1.0000   1.0000   1.0000   1.0000   1.0000   1.0000
     1.0000   1.0000   1.0000   1.0000   1.0000   1.0000   1.0000   1.0000
     1.0000   1.0000   1.0000   1.0000   1.0000   1.0000   1.0000   1.0000
     1.0000   1.0000   1.0000   1.0000   1.0000   1.0000   1.0000   1.0000
     1.0000   1.0000   1.0000   1.0000   1.0000   1.0000   1.0000   1.0000
     1.0000   1.0000   1.0000   1.0000   1.0000   1.0000   1.0000   1.0000
     1.0000   1.0000   1.0000   1.0000   1.0000   1.0000   1.0000   1.0000
     1.0000   1.0000   1.0000   1.0000   1.0000   1.0000   1.0000   1.0000
     1.0000   1.0000   1.0000   1.0000   1.0000   1.0000   1.0000   1.0000
     1.0000   1.0000   1.0000   1.0000   1.0000   1.0000   1.0000   1.0000
     1.0000   1.0000   1.0000   1.0000   1.0000   1.0000   1.0000   1.0000
     1.0000   1.0000   1.0000   1.0000   1.0000   1.0000   1.0000   1.0000
     1.0000   1.0000   1.0000   1.0000   1.0000   1.0000   1.0000   1.0000
     1.0000   1.0000   1.0000   1.0000   1.0000   1.0000   1.0000   1.0000
     1.0000   1.0000   1.0000   1.0000   1.0000   1.0000   1.0000   1.0000
     1.0000   1.0000   1.0000   1.0000   1.0000   1.0000   1.0000   1.0000
     1.0000   1.0000   1.0000   0.0000   0.0000   0.0000   0.0000   0.0000
     0.0000   0.0000   0.0000   0.0000   0.0000   0.0000   0.0000   0.0000
     0.0000   0.0000   0.0000   0.0000   0.0000   0.0000   0.0000   0.0000
     0.0000   0.0000   0.0000   0.0000   0.0000

          k = 0.3333 0.1926 0.0600 ( 26490 PWs)   bands (ev):

   -78.1536 -67.8817 -67.7803 -67.6763 -67.3112 -67.1359 -44.3314 -44.2981
   -44.1792 -34.6467 -34.6270 -34.6261 -34.5485 -34.5279 -34.5198 -34.4410
   -34.4329 -34.4087 -34.0660 -34.0647 -34.0592 -33.9087 -33.8791 -33.8768
   -23.3790 -23.2735 -15.0082 -14.9709 -14.4498 -14.4213 -14.0194 -13.9948
   -13.4336 -13.3129 -13.2457 -13.1973 -13.1448 -13.0818 -13.0537 -13.0390
   -12.9140 -12.8372 -12.7385 -12.6739 -12.6099 -12.5431 -12.4135 -12.3211
   -11.3329 -11.1496  -6.9179  -6.8667  -6.8580  -6.8256  -6.7551  -6.7385
    -3.8605  -3.8030  -2.7883  -2.7027  -1.8776  -1.7142  -1.5718  -1.4314
    -1.0423  -0.9628  -0.8618  -0.8067  -0.5750  -0.4544  -0.3841  -0.2788
    -0.2105  -0.0957   0.0651   0.2144   0.3390   0.4172   0.4502   0.5103
     0.7906   0.8509   1.0581   1.1605   1.2051   1.2805   1.3478   1.4079
     1.4319   1.5134   1.6281   1.7295   1.9227   2.0810   2.1730   2.2026
     2.2691   2.3756   2.4128   2.4742   2.5022   2.6007   2.6369   2.7243
     2.7564   2.8086   2.8326   2.9067   2.9334   2.9818   3.0860   3.1127
     3.1710   3.2129   3.2592   3.2847   3.3197   3.3666   3.4106   3.4337
     3.4729   3.5912   3.6584   3.7205   3.7743   3.9364   4.0780   4.1768
     7.9455   8.1488   8.1816   9.3916   9.6605  10.2738  10.8662  11.1535
    11.5752  11.6553  11.8494  12.1812  12.2811  12.3985  12.5867  12.7822
    12.9275  12.9597  13.0798  13.1665  13.1915  13.3804  13.4695  13.6168
    13.7214  13.9607  13.9656  14.0611  14.1364

     occupation numbers 
     1.0000   1.0000   1.0000   1.0000   1.0000   1.0000   1.0000   1.0000
     1.0000   1.0000   1.0000   1.0000   1.0000   1.0000   1.0000   1.0000
     1.0000   1.0000   1.0000   1.0000   1.0000   1.0000   1.0000   1.0000
     1.0000   1.0000   1.0000   1.0000   1.0000   1.0000   1.0000   1.0000
     1.0000   1.0000   1.0000   1.0000   1.0000   1.0000   1.0000   1.0000
     1.0000   1.0000   1.0000   1.0000   1.0000   1.0000   1.0000   1.0000
     1.0000   1.0000   1.0000   1.0000   1.0000   1.0000   1.0000   1.0000
     1.0000   1.0000   1.0000   1.0000   1.0000   1.0000   1.0000   1.0000
     1.0000   1.0000   1.0000   1.0000   1.0000   1.0000   1.0000   1.0000
     1.0000   1.0000   1.0000   1.0000   1.0000   1.0000   1.0000   1.0000
     1.0000   1.0000   1.0000   1.0000   1.0000   1.0000   1.0000   1.0000
     1.0000   1.0000   1.0000   1.0000   1.0000   1.0000   1.0000   1.0000
     1.0000   1.0000   1.0000   1.0000   1.0000   1.0000   1.0000   1.0000
     1.0000   1.0000   1.0000   1.0000   1.0000   1.0000   1.0000   1.0000
     1.0000   1.0000   1.0000   1.0000   1.0000   1.0000   1.0000   1.0000
     1.0000   1.0000   1.0000   1.0000   1.0000   1.0000   1.0000   1.0000
     1.0000   1.0000   1.0000   0.0000   0.0000   0.0000   0.0000   0.0000
     0.0000   0.0000   0.0000   0.0000   0.0000   0.0000   0.0000   0.0000
     0.0000   0.0000   0.0000   0.0000   0.0000   0.0000   0.0000   0.0000
     0.0000   0.0000   0.0000   0.0000   0.0000

          k = 0.3333 0.1926 0.2323 ( 26488 PWs)   bands (ev):

   -78.1536 -67.8817 -67.7803 -67.6763 -67.3112 -67.1359 -44.3314 -44.2981
   -44.1792 -34.6467 -34.6270 -34.6261 -34.5486 -34.5279 -34.5198 -34.4410
   -34.4329 -34.4087 -34.0660 -34.0647 -34.0592 -33.9087 -33.8791 -33.8768
   -23.3790 -23.2735 -14.9949 -14.9848 -14.4455 -14.4257 -14.0139 -14.0006
   -13.4306 -13.3128 -13.2535 -13.1889 -13.1474 -13.0760 -13.0629 -13.0354
   -12.9132 -12.8393 -12.7318 -12.6834 -12.6009 -12.5491 -12.4070 -12.3271
   -11.3323 -11.1502  -6.9179  -6.8667  -6.8580  -6.8257  -6.7551  -6.7385
    -3.8589  -3.8046  -2.7639  -2.7296  -1.8644  -1.7322  -1.5628  -1.4172
    -1.0344  -0.9778  -0.8406  -0.8141  -0.5523  -0.4605  -0.4170  -0.2957
    -0.2072  -0.1223   0.0888   0.1786   0.3309   0.4085   0.4424   0.5327
     0.7838   0.8702   1.0840   1.1457   1.1920   1.2813   1.3647   1.4256
     1.4770   1.5444   1.6100   1.7489   1.9695   2.0157   2.1851   2.2093
     2.2494   2.3379   2.3932   2.4927   2.5185   2.5567   2.6345   2.7132
     2.7537   2.7952   2.8482   2.8812   2.9232   2.9787   3.0985   3.1224
     3.1945   3.2168   3.2601   3.2948   3.3388   3.3569   3.3976   3.4301
     3.4600   3.6190   3.6414   3.7216   3.7632   3.9627   4.0692   4.1825
     7.9455   8.1483   8.1818   9.3826   9.6612  10.5466  10.7534  11.0440
    11.3295  11.6431  11.8581  12.2268  12.3115  12.4455  12.5430  12.7766
    12.8861  13.0637  13.1422  13.1763  13.3360  13.3688  13.5101  13.6036
    13.7049  13.8129  13.8503  13.9971  14.1383

     occupation numbers 
     1.0000   1.0000   1.0000   1.0000   1.0000   1.0000   1.0000   1.0000
     1.0000   1.0000   1.0000   1.0000   1.0000   1.0000   1.0000   1.0000
     1.0000   1.0000   1.0000   1.0000   1.0000   1.0000   1.0000   1.0000
     1.0000   1.0000   1.0000   1.0000   1.0000   1.0000   1.0000   1.0000
     1.0000   1.0000   1.0000   1.0000   1.0000   1.0000   1.0000   1.0000
     1.0000   1.0000   1.0000   1.0000   1.0000   1.0000   1.0000   1.0000
     1.0000   1.0000   1.0000   1.0000   1.0000   1.0000   1.0000   1.0000
     1.0000   1.0000   1.0000   1.0000   1.0000   1.0000   1.0000   1.0000
     1.0000   1.0000   1.0000   1.0000   1.0000   1.0000   1.0000   1.0000
     1.0000   1.0000   1.0000   1.0000   1.0000   1.0000   1.0000   1.0000
[...]
     atom   11 type  7   force =    -0.00026266    0.00247540    0.01363121
     atom   12 type  7   force =    -0.00134440   -0.01203873    0.00960205
     atom   13 type  7   force =     0.00134463   -0.01203867   -0.00960252
     atom   14 type  1   force =    -0.00018812   -0.00159788   -0.01002808
     atom   15 type  1   force =     0.00018830   -0.00159788    0.01002774
     atom   16 type  6   force =     0.00041104   -0.00097493    0.00599926
     atom   17 type  6   force =    -0.00041100   -0.00097497   -0.00599926
     atom   18 type  6   force =    -0.00000263    0.00002322   -0.00715387
     atom   19 type  6   force =     0.00000273    0.00002322    0.00715385
     atom   20 type  6   force =     0.00005437   -0.00025264    0.00681902
     atom   21 type  6   force =    -0.00005427   -0.00025264   -0.00681903
     atom   22 type  6   force =     0.00182813   -0.00010165   -0.00241654
     atom   23 type  6   force =    -0.00182806   -0.00010165    0.00241644
     atom   24 type  6   force =     0.00470326   -0.00212556   -0.00566244
     atom   25 type  6   force =    -0.00470328   -0.00212553    0.00566229
     atom   26 type  6   force =    -0.00365770    0.00079135   -0.00698522
     atom   27 type  6   force =     0.00365784    0.00079136    0.00698501
     atom   28 type  6   force =    -0.00162935    0.00235632    0.00733341
     atom   29 type  6   force =     0.00162934    0.00235635   -0.00733354
     atom   30 type  6   force =     0.00084894   -0.00209317   -0.00750531
     atom   31 type  6   force =    -0.00084894   -0.00209312    0.00750516
     atom   32 type  6   force =    -0.00256891   -0.00350395   -0.00662704
     atom   33 type  6   force =     0.00256899   -0.00350397    0.00662694
     atom   34 type  6   force =     0.00086258    0.00444278    0.00662472
     atom   35 type  6   force =    -0.00086253    0.00444278   -0.00662486
     atom   36 type  6   force =     0.00162772    0.00338852    0.01043000
     atom   37 type  6   force =    -0.00162760    0.00338853   -0.01042991
     atom   38 type  6   force =     0.00000780   -0.00171626    0.01094892
     atom   39 type  6   force =    -0.00000761   -0.00171620   -0.01094875
     atom   40 type  3   force =     0.00000000    0.00000000    0.00000000
     atom   41 type  3   force =     0.00000000    0.00000000    0.00000000
     atom   42 type  3   force =     0.00000000    0.00000000    0.00000000
     atom   43 type  3   force =     0.00000000    0.00000000    0.00000000
     atom   44 type  2   force =     0.00000016    0.00361840   -0.00000094
     The Hubbard contrib.    to forces
     atom    1 type  4   force =     0.00000000    0.00000000    0.00000000
     atom    2 type  4   force =     0.00000000    0.00000000    0.00000000
     atom    3 type  5   force =     0.00000000    0.00000000    0.00000000
     atom    4 type  5   force =     0.00000000    0.00000000    0.00000000
     atom    5 type  5   force =     0.00000000    0.00000000    0.00000000
     atom    6 type  5   force =     0.00000000    0.00000000    0.00000000
     atom    7 type  5   force =     0.00000000    0.00000000    0.00000000
     atom    8 type  7   force =     0.00000000    0.00000000    0.00000000
     atom    9 type  7   force =     0.00000000    0.00000000    0.00000000
     atom   10 type  7   force =     0.00000000    0.00000000    0.00000000
     atom   11 type  7   force =     0.00000000    0.00000000    0.00000000
     atom   12 type  7   force =     0.00000000    0.00000000    0.00000000
     atom   13 type  7   force =     0.00000000    0.00000000    0.00000000
     atom   14 type  1   force =     0.00000000    0.00000000    0.00000000
     atom   15 type  1   force =     0.00000000    0.00000000    0.00000000
     atom   16 type  6   force =     0.00000000    0.00000000    0.00000000
     atom   17 type  6   force =     0.00000000    0.00000000    0.00000000
     atom   18 type  6   force =     0.00000000    0.00000000    0.00000000
     atom   19 type  6   force =     0.00000000    0.00000000    0.00000000
     atom   20 type  6   force =     0.00000000    0.00000000    0.00000000
     atom   21 type  6   force =     0.00000000    0.00000000    0.00000000
     atom   22 type  6   force =     0.00000000    0.00000000    0.00000000
     atom   23 type  6   force =     0.00000000    0.00000000    0.00000000
     atom   24 type  6   force =     0.00000000    0.00000000    0.00000000
     atom   25 type  6   force =     0.00000000    0.00000000    0.00000000
     atom   26 type  6   force =     0.00000000    0.00000000    0.00000000
     atom   27 type  6   force =     0.00000000    0.00000000    0.00000000
     atom   28 type  6   force =     0.00000000    0.00000000    0.00000000
     atom   29 type  6   force =     0.00000000    0.00000000    0.00000000
     atom   30 type  6   force =     0.00000000    0.00000000    0.00000000
     atom   31 type  6   force =     0.00000000    0.00000000    0.00000000
     atom   32 type  6   force =     0.00000000    0.00000000    0.00000000
     atom   33 type  6   force =     0.00000000    0.00000000    0.00000000
     atom   34 type  6   force =     0.00000000    0.00000000    0.00000000
     atom   35 type  6   force =     0.00000000    0.00000000    0.00000000
     atom   36 type  6   force =     0.00000000    0.00000000    0.00000000
     atom   37 type  6   force =     0.00000000    0.00000000    0.00000000
     atom   38 type  6   force =     0.00000000    0.00000000    0.00000000
     atom   39 type  6   force =     0.00000000    0.00000000    0.00000000
     atom   40 type  3   force =     0.00000000    0.00000000    0.00000000
     atom   41 type  3   force =     0.00000000    0.00000000    0.00000000
     atom   42 type  3   force =     0.00000000    0.00000000    0.00000000
     atom   43 type  3   force =     0.00000000    0.00000000    0.00000000
     atom   44 type  2   force =     0.00000000    0.00000000    0.00000000
     The SCF correction term to forces
     atom    1 type  4   force =     0.00000000    0.00000206   -0.00000000
     atom    2 type  4   force =    -0.00000000   -0.00000363   -0.00000000
     atom    3 type  5   force =    -0.00000000    0.00000796    0.00000000
     atom    4 type  5   force =    -0.00000000    0.00001308    0.00000000
     atom    5 type  5   force =    -0.00000000   -0.00000373    0.00000000
     atom    6 type  5   force =    -0.00000000   -0.00001480    0.00000000
     atom    7 type  5   force =    -0.00000000    0.00001107    0.00000000
     atom    8 type  7   force =    -0.00000242   -0.00000096    0.00000936
     atom    9 type  7   force =     0.00000242   -0.00000096   -0.00000936
     atom   10 type  7   force =    -0.00000042    0.00000306   -0.00000426
     atom   11 type  7   force =     0.00000042    0.00000306    0.00000426
     atom   12 type  7   force =     0.00000003    0.00000015    0.00000580
     atom   13 type  7   force =    -0.00000003    0.00000015   -0.00000580
     atom   14 type  1   force =    -0.00000087   -0.00000081   -0.00001017
     atom   15 type  1   force =     0.00000087   -0.00000081    0.00001017
     atom   16 type  6   force =    -0.00000563    0.00000696    0.00001883
     atom   17 type  6   force =     0.00000563    0.00000696   -0.00001883
     atom   18 type  6   force =    -0.00000154    0.00000614   -0.00001169
     atom   19 type  6   force =     0.00000154    0.00000614    0.00001169
     atom   20 type  6   force =    -0.00000084   -0.00000109    0.00001659
     atom   21 type  6   force =     0.00000084   -0.00000109   -0.00001659
     atom   22 type  6   force =    -0.00001024   -0.00000867   -0.00002509
     atom   23 type  6   force =     0.00001024   -0.00000867    0.00002509
     atom   24 type  6   force =     0.00000284    0.00000295    0.00001298
     atom   25 type  6   force =    -0.00000284    0.00000295   -0.00001298
     atom   26 type  6   force =     0.00000104    0.00000722    0.00000941
     atom   27 type  6   force =    -0.00000104    0.00000722   -0.00000941
     atom   28 type  6   force =    -0.00000399    0.00000304   -0.00000114
     atom   29 type  6   force =     0.00000399    0.00000304    0.00000114
     atom   30 type  6   force =    -0.00000512    0.00000181   -0.00000013
     atom   31 type  6   force =     0.00000512    0.00000181    0.00000013
     atom   32 type  6   force =     0.00000235   -0.00000827    0.00000206
     atom   33 type  6   force =    -0.00000235   -0.00000827   -0.00000206
     atom   34 type  6   force =     0.00000765   -0.00000386   -0.00001216
     atom   35 type  6   force =    -0.00000765   -0.00000386    0.00001216
     atom   36 type  6   force =    -0.00000297   -0.00001620    0.00001063
     atom   37 type  6   force =     0.00000297   -0.00001620   -0.00001063
     atom   38 type  6   force =     0.00000126    0.00001066    0.00000402
     atom   39 type  6   force =    -0.00000126    0.00001066   -0.00000402
     atom   40 type  3   force =    -0.00000034   -0.00000184   -0.00000049
     atom   41 type  3   force =     0.00000034   -0.00000184    0.00000049
     atom   42 type  3   force =     0.00000018    0.00000155   -0.00000150
     atom   43 type  3   force =    -0.00000018    0.00000155    0.00000150
     atom   44 type  2   force =    -0.00000000   -0.00003663    0.00000000

     DFT-D3 dispersion contribution to forces:
     atom    1 type  4   force =     0.00000000    0.00078737   -0.00000000
     atom    2 type  4   force =    -0.00000000   -0.00050069    0.00000000
     atom    3 type  5   force =    -0.00000000    0.00068012    0.00000000
     atom    4 type  5   force =    -0.00000000   -0.00154965   -0.00000000
     atom    5 type  5   force =     0.00000000   -0.00081898    0.00000000
     atom    6 type  5   force =     0.00000000    0.00116433   -0.00000000
     atom    7 type  5   force =     0.00000000   -0.00003820   -0.00000000
     atom    8 type  7   force =    -0.00002621   -0.00004206   -0.00007266
     atom    9 type  7   force =     0.00002621   -0.00004206    0.00007266
     atom   10 type  7   force =     0.00005208   -0.00003961    0.00014154
     atom   11 type  7   force =    -0.00005208   -0.00003961   -0.00014154
     atom   12 type  7   force =    -0.00014966    0.00012732   -0.00017053
     atom   13 type  7   force =     0.00014966    0.00012732    0.00017053
     atom   14 type  1   force =     0.00000655    0.00007346   -0.00100349
     atom   15 type  1   force =    -0.00000655    0.00007346    0.00100349
     atom   16 type  6   force =     0.00000131   -0.00001338    0.00048523
     atom   17 type  6   force =    -0.00000131   -0.00001338   -0.00048523
     atom   18 type  6   force =    -0.00000929    0.00001924   -0.00037502
     atom   19 type  6   force =     0.00000929    0.00001924    0.00037502
     atom   20 type  6   force =    -0.00000467   -0.00005557    0.00041435
     atom   21 type  6   force =     0.00000467   -0.00005557   -0.00041435
     atom   22 type  6   force =     0.00003742   -0.00003497    0.00008190
     atom   23 type  6   force =    -0.00003742   -0.00003497   -0.00008190
     atom   24 type  6   force =    -0.00021233    0.00105593    0.00021056
     atom   25 type  6   force =     0.00021233    0.00105593   -0.00021056
     atom   26 type  6   force =     0.00084649    0.00008819    0.00019941
     atom   27 type  6   force =    -0.00084648    0.00008819   -0.00019940
     atom   28 type  6   force =     0.00036285   -0.00051478   -0.00010028
     atom   29 type  6   force =    -0.00036285   -0.00051478    0.00010028
     atom   30 type  6   force =    -0.00023543    0.00033470    0.00010626
     atom   31 type  6   force =     0.00023543    0.00033470   -0.00010625
     atom   32 type  6   force =     0.00093994   -0.00045969    0.00043124
     atom   33 type  6   force =    -0.00093994   -0.00045969   -0.00043124
     atom   34 type  6   force =     0.00072366   -0.00067965   -0.00032502
     atom   35 type  6   force =    -0.00072365   -0.00067965    0.00032502
     atom   36 type  6   force =     0.00007750    0.00013388   -0.00052237
     atom   37 type  6   force =    -0.00007750    0.00013388    0.00052237
     atom   38 type  6   force =     0.00002621    0.00004513   -0.00048248
     atom   39 type  6   force =    -0.00002621    0.00004513    0.00048248
     atom   40 type  3   force =     0.00020299    0.00044205   -0.00013414
     atom   41 type  3   force =    -0.00020299    0.00044205    0.00013414
     atom   42 type  3   force =     0.00008829   -0.00051831   -0.00022988
     atom   43 type  3   force =    -0.00008829   -0.00051831    0.00022988
     atom   44 type  2   force =    -0.00000000    0.00035194   -0.00000000

     Total force =     0.000678     Total SCF correction =     0.000091

     DFT-D3 dispersion Force =     0.004617
     SCF correction compared to forces is large: reduce conv_thr to get better values


     Computing stress (Cartesian axis) and pressure

          total   stress  (Ry/bohr**3)                   (kbar)     P=        0.13
   0.00000095   0.00000000   0.00000011            0.14        0.00        0.02
   0.00000000   0.00000126   0.00000000            0.00        0.18        0.00
   0.00000011   0.00000000   0.00000037            0.02        0.00        0.05

     kinetic stress (kbar)  20400.91      0.00     -4.12
                                0.00  20389.07      0.00
                               -4.12      0.00  20109.37

     local   stress (kbar) -42462.29      0.00    -60.35
                                0.00 -41903.08     -0.00
                              -60.35     -0.00  20915.85

     nonloc. stress (kbar)   3839.08      0.00     -4.55
                                0.00   3839.41      0.00
                               -4.55      0.00   3824.00

     hartree stress (kbar)  23859.18     -0.00     23.67
                               -0.00  23582.48     -0.00
                               23.67     -0.00  -7136.11

     exc-cor stress (kbar)  -2854.83      0.00      0.18
                                0.00  -2854.76      0.00
                                0.18      0.00  -2851.73

     corecor stress (kbar)  -1882.41     -0.00      0.25
                               -0.00  -1882.44     -0.00
                                0.25     -0.00  -1884.06

     ewald   stress (kbar)   -884.34     -0.00     44.86
                               -0.00  -1155.28      0.00
                               44.86      0.00 -32966.13

     hubbard stress (kbar)      0.00      0.00      0.00
                                0.00      0.00      0.00
                                0.00      0.00      0.00

     DFT-D   stress (kbar)    -15.17     -0.00      0.06
                               -0.00    -15.21      0.00
                                0.06      0.00    -11.14

     XDM     stress (kbar)      0.00      0.00      0.00
                                0.00      0.00      0.00
                                0.00      0.00      0.00

     dft-nl  stress (kbar)      0.00      0.00      0.00
                                0.00      0.00      0.00
                                0.00      0.00      0.00

     TS-vdW  stress (kbar)      0.00      0.00      0.00
                                0.00      0.00      0.00
                                0.00      0.00      0.00

     MDB     stress (kbar)      0.00      0.00      0.00
                                0.00      0.00      0.00
                                0.00      0.00      0.00

     3D-RISM stress (kbar)      0.00      0.00      0.00
                                0.00      0.00      0.00
                                0.00      0.00      0.00


     Writing all to output data dir ./temp/phl-fe1-fe2-nspin.save/ :
     XML data file, charge density, pseudopotentials, collected wavefunctions

     init_run     :    336.17s CPU    343.72s WALL (       2 calls)
     electrons    :  69282.76s CPU  69707.37s WALL (      13 calls)
     update_pot   :     12.89s CPU     13.47s WALL (      11 calls)
     forces       :   1804.89s CPU   1815.46s WALL (      13 calls)
     force_dftd3  :     32.83s CPU     32.88s WALL (      13 calls)
     stress       :   2857.37s CPU   2898.10s WALL (      13 calls)
     stres_dftd3  :     32.91s CPU     32.99s WALL (      13 calls)

     Called by init_run:
     wfcinit      :    322.73s CPU    328.83s WALL (       2 calls)
     wfcinit:atom :      0.62s CPU      0.63s WALL (      40 calls)
     wfcinit:wfcr :    318.53s CPU    324.51s WALL (      40 calls)
     potinit      :      2.26s CPU      2.33s WALL (       2 calls)
     hinit0       :      1.15s CPU      1.26s WALL (       2 calls)

     Called by electrons:
     c_bands      :  63973.29s CPU  64266.85s WALL (      95 calls)
     sum_band     :   4811.92s CPU   4895.76s WALL (      95 calls)
     v_of_rho     :     31.69s CPU     32.98s WALL (      97 calls)
     v_h          :      3.27s CPU      3.42s WALL (      97 calls)
     v_xc         :     35.88s CPU     37.42s WALL (     123 calls)
     newd         :    441.63s CPU    494.52s WALL (      97 calls)
     PAW_pot      :     67.90s CPU     68.10s WALL (     108 calls)
     mix_rho      :      5.68s CPU      5.88s WALL (      95 calls)
     energy_dftd3 :     25.76s CPU     25.81s WALL (      13 calls)

     Called by c_bands:
     init_us_2    :    182.42s CPU    183.84s WALL (    4580 calls)
     cegterg      :  63791.17s CPU  64081.96s WALL (    1920 calls)

     Called by sum_band:
     sum_band:wei :      0.02s CPU      0.02s WALL (      95 calls)
     sum_band:loo :   4065.74s CPU   4093.83s WALL (      95 calls)
     sum_band:buf :     23.73s CPU     24.12s WALL (    1900 calls)
     sum_band:ini :     78.93s CPU     79.43s WALL (    1900 calls)
     sum_band:cal :   3246.90s CPU   3254.05s WALL (    2120 calls)
     sum_band:bec :      3.82s CPU      3.83s WALL (    2120 calls)
     addusdens    :    738.83s CPU    794.06s WALL (      95 calls)
                                        0.00s GPU  (      95 calls)
     addusd:skk   :      4.73s CPU      6.38s WALL (     665 calls)
                                        0.00s GPU  (     665 calls)

     Called by *egterg:
     cdiaghg      :    764.14s CPU    773.42s WALL (   14655 calls)
     cegterg:over :   8595.22s CPU   8612.15s WALL (   13195 calls)
     cegterg:upda :   4999.42s CPU   5016.25s WALL (   13195 calls)
     cegterg:last :  13754.71s CPU  13781.76s WALL (    5856 calls)
     cdiaghg:chol :     17.05s CPU     17.14s WALL (   14655 calls)
     cdiaghg:inve :     14.43s CPU     14.46s WALL (   14655 calls)
     cdiaghg:para :    286.70s CPU    290.44s WALL (   29310 calls)
     h_psi        :  24420.99s CPU  24592.34s WALL (   15155 calls)
     s_psi        :   9949.06s CPU   9965.93s WALL (   15155 calls)
     g_psi        :     23.09s CPU     23.19s WALL (   13195 calls)

     Called by h_psi:
     h_psi:calbec :   9905.88s CPU   9924.86s WALL (   15155 calls)
     vloc_psi     :   4474.88s CPU   4592.93s WALL (   15155 calls)
     add_vuspsi   :   9984.33s CPU  10002.90s WALL (   15155 calls)

     General routines
     calbec       :  15151.31s CPU  15180.17s WALL (   18575 calls)
     fft          :     31.47s CPU     33.57s WALL (    1582 calls)
     ffts         :      0.88s CPU      0.94s WALL (     192 calls)
     fftw         :   2715.51s CPU   2772.05s WALL ( 2327538 calls)
     interpolate  :      3.01s CPU      3.14s WALL (      97 calls)

     Parallel routines

     PAW routines
     PAW_pot      :     67.90s CPU     68.10s WALL (     108 calls)
     PAW_symme    :      0.09s CPU      0.13s WALL (     203 calls)

     PWSCF        :     20h45m CPU     20h53m WALL


   This run was terminated on:  20:34:35   6Feb2025            

=------------------------------------------------------------------------------=
   JOB DONE.
=------------------------------------------------------------------------------=
