
     Program PWSCF v.7.3.1 starts on  2Apr2025 at  7:17:27 

     This program is part of the open-source Quantum ESPRESSO suite
     for quantum simulation of materials; please cite
         "P. Giannozzi et al., J. Phys.:Condens. Matter 21 395502 (2009);
         "P. Giannozzi et al., J. Phys.:Condens. Matter 29 465901 (2017);
         "P. Giannozzi et al., J. Chem. Phys. 152 154105 (2020);
          URL http://www.quantum-espresso.org", 
     in publications or presentations arising from this work. More details at
     http://www.quantum-espresso.org/quote

     Parallel version (MPI), running on     6 processors

     MPI processes distributed on     1 nodes
     2130 MiB available memory on the printing compute node when the environment starts

     Reading input from vc_relax.in

     Current dimensions of program PWSCF are:
     Max number of different atomic species (ntypx) = 10
     Max number of k-points (npk) =  40000
     Max angular momentum in pseudopotentials (lmaxx) =  4
     file Al.pbe-n-kjpaw_psl.1.0.0.UPF: wavefunction(s)  3S 3P renormalized
     file Ti.pbe-spn-kjpaw_psl.1.0.0.UPF: wavefunction(s)  3S 3P 3D renormalized
     file H.pbe-kjpaw_psl.1.0.0.UPF: wavefunction(s)  1S renormalized
     file K.pbe-spn-kjpaw_psl.1.0.0.UPF: wavefunction(s)  3S renormalized
     file Mg.pbe-spnl-kjpaw_psl.1.0.0.UPF: wavefunction(s)  2P renormalized
     file O.pbe-n-kjpaw_psl.1.0.0.UPF: wavefunction(s)  2S 2P renormalized
     file Si.pbe-n-kjpaw_psl.1.0.0.UPF: wavefunction(s)  3S 3P renormalized

     R & G space division:  proc/nbgrp/npool/nimage =       6
     Subspace diagonalization in iterative solution of the eigenvalue problem:
     a serial algorithm will be used


     Parallelization info
     --------------------
     sticks:   dense  smooth     PW     G-vecs:    dense   smooth      PW
     Min        1119     557    150               100894    35666    5065
     Max        1120     558    151               100896    35670    5069
     Sum        6719    3347    905               605369   214013   30407

     Using Slab Decomposition



     bravais-lattice index     =          -12
     lattice parameter (alat)  =      10.0639  a.u.
     unit-cell volume          =    3408.7535 (a.u.)^3
     number of atoms/cell      =           43
     number of atomic types    =            7
     number of electrons       =       248.00
     number of Kohn-Sham states=          149
     kinetic-energy cutoff     =      60.0000  Ry
     charge density cutoff     =     480.0000  Ry
     scf convergence threshold =      1.0E-06
     mixing beta               =       0.7000
     number of iterations used =            8  plain     mixing
     energy convergence thresh.=      1.0E-04
     force convergence thresh. =      1.0E-03
     press convergence thresh. =      5.0E-01
     Exchange-correlation= SLA  PW   PBX  PBC
                           (   1   4   3   4   0   0   0)
     nstep                     =           50


     celldm(1)=  10.063938  celldm(2)=   1.736001  celldm(3)=   1.956921
     celldm(4)=   0.000000  celldm(5)=  -0.175986  celldm(6)=   0.000000

     crystal axes: (cart. coord. in units of alat)
               a(1) = (   1.000000   0.000000   0.000000 )  
               a(2) = (   0.000000   1.736001   0.000000 )  
               a(3) = (  -0.344390   0.000000   1.926379 )  

     reciprocal axes: (cart. coord. in units 2 pi/alat)
               b(1) = (  1.000000 -0.000000  0.178776 )  
               b(2) = (  0.000000  0.576037 -0.000000 )  
               b(3) = (  0.000000  0.000000  0.519109 )  


     PseudoPot. # 1 for Al read from file:
     ./../../../pseudos/Al.pbe-n-kjpaw_psl.1.0.0.UPF
     MD5 check sum: 502b6b27b9c6270cab5dd1084b96fa6d
     Pseudo is Projector augmented-wave + core cor, Zval =  3.0
     Generated using &quot;atomic&quot; code by A. Dal Corso  v.6.3
     Shape of augmentation charge: PSQ
     Using radial grid of 1135 points,  6 beta functions with: 
                l(1) =   0
                l(2) =   0
                l(3) =   1
                l(4) =   1
                l(5) =   2
                l(6) =   2
     Q(r) pseudized with 0 coefficients 


     PseudoPot. # 2 for Ti read from file:
     ./../../../pseudos/Ti.pbe-spn-kjpaw_psl.1.0.0.UPF
     MD5 check sum: 01f69b0d8ba4438b2e03ac6ea4af1c0b
     Pseudo is Projector augmented-wave + core cor, Zval = 12.0
     Generated using &quot;atomic&quot; code by A. Dal Corso  v.6.2.2
     Shape of augmentation charge: PSQ
     Using radial grid of 1177 points,  6 beta functions with: 
                l(1) =   0
                l(2) =   0
                l(3) =   1
                l(4) =   1
                l(5) =   2
                l(6) =   2
     Q(r) pseudized with 0 coefficients 


     PseudoPot. # 3 for H  read from file:
     ./../../../pseudos/H.pbe-kjpaw_psl.1.0.0.UPF
     MD5 check sum: d81a744832360e4a8af0b0b5b123bc2a
     Pseudo is Projector augmented-wave, Zval =  1.0
     Generated using &quot;atomic&quot; code by A. Dal Corso  v.6.3MaX
     Shape of augmentation charge: PSQ
     Using radial grid of  929 points,  2 beta functions with: 
                l(1) =   0
                l(2) =   0
     Q(r) pseudized with 0 coefficients 


     PseudoPot. # 4 for K  read from file:
     ./../../../pseudos/K.pbe-spn-kjpaw_psl.1.0.0.UPF
     MD5 check sum: 34cc42130a09071ebe376fd42eb21491
     Pseudo is Projector augmented-wave + core cor, Zval =  9.0
     Generated using &quot;atomic&quot; code by A. Dal Corso  v.6.2.2
     Shape of augmentation charge: PSQ
     Using radial grid of 1165 points,  6 beta functions with: 
                l(1) =   0
                l(2) =   0
                l(3) =   1
                l(4) =   1
                l(5) =   2
                l(6) =   2
     Q(r) pseudized with 0 coefficients 


     PseudoPot. # 5 for Mg read from file:
     ./../../../pseudos/Mg.pbe-spnl-kjpaw_psl.1.0.0.UPF
     MD5 check sum: fda14e0d92a6a9a5ebed782e5a4b3067
     Pseudo is Projector augmented-wave + core cor, Zval = 10.0
     Generated using &quot;atomic&quot; code by A. Dal Corso  v.6.3
     Shape of augmentation charge: PSQ
     Using radial grid of 1129 points,  4 beta functions with: 
                l(1) =   0
                l(2) =   0
                l(3) =   1
                l(4) =   1
     Q(r) pseudized with 0 coefficients 


     PseudoPot. # 6 for O  read from file:
     ./../../../pseudos/O.pbe-n-kjpaw_psl.1.0.0.UPF
     MD5 check sum: e99d9cef9b487d1ca56f5b95ecd0fd7a
     Pseudo is Projector augmented-wave + core cor, Zval =  6.0
     Generated using &quot;atomic&quot; code by A. Dal Corso  v.6.3
     Shape of augmentation charge: PSQ
     Using radial grid of 1095 points,  4 beta functions with: 
                l(1) =   0
                l(2) =   0
                l(3) =   1
                l(4) =   1
     Q(r) pseudized with 0 coefficients 


     PseudoPot. # 7 for Si read from file:
     ./../../../pseudos/Si.pbe-n-kjpaw_psl.1.0.0.UPF
     MD5 check sum: c39c59da582df4a0d9f10159256ea34e
     Pseudo is Projector augmented-wave + core cor, Zval =  4.0
     Generated using &quot;atomic&quot; code by A. Dal Corso  v.6.3
     Shape of augmentation charge: PSQ
     Using radial grid of 1141 points,  6 beta functions with: 
                l(1) =   0
                l(2) =   0
                l(3) =   1
                l(4) =   1
                l(5) =   2
                l(6) =   2
     Q(r) pseudized with 0 coefficients 


     atomic species   valence    mass     pseudopotential
     Al                3.00    26.98154     Al( 1.00)
     Ti               12.00    47.86700     Ti( 1.00)
     H                 1.00     1.00794     H ( 1.00)
     K                 9.00    39.09830     K ( 1.00)
     Mg               10.00    24.30500     Mg( 1.00)
     O                 6.00    15.99940     O ( 1.00)
     Si                4.00    28.08550     Si( 1.00)

     Starting magnetic structure 
     atomic species   magnetization
     Al              0.000
     Ti              0.300
     H               0.000
     K               0.000
     Mg              0.000
     O               0.000
     Si              0.000

      2 Sym. Ops. (no inversion) found


                                    s                        frac. trans.

      isym =  1     identity                                     

 cryst.   s( 1) = (     1          0          0      )
                  (     0          1          0      )
                  (     0          0          1      )

 cart.    s( 1) = (  1.0000000  0.0000000  0.0000000 )
                  (  0.0000000  1.0000000  0.0000000 )
                  (  0.0000000  0.0000000  1.0000000 )


      isym =  2     180 deg rotation - cart. axis [0,1,0]        

 cryst.   s( 2) = (    -1          0          0      )
                  (     0          1          0      )
                  (     0          0         -1      )

 cart.    s( 2) = ( -1.0000000  0.0000000 -0.0000000 )
                  (  0.0000000  1.0000000  0.0000000 )
                  (  0.0000000  0.0000000 -1.0000000 )


     point group C_2  (2)   
     there are  2 classes
     the character table:

       E     C2   
A      1.00  1.00
B      1.00 -1.00

     the symmetry operations in each class and the name of the first element:

     E        1
          identity                                               
     C2       2
          180 deg rotation - cart. axis [0,1,0]                  

   Cartesian axes

     site n.     atom                  positions (alat units)
         1        K      tau(   1) = (   0.0000000   0.8633857   0.0000000  )
         2        K      tau(   2) = (   0.5000001   0.0131549   0.0000000  )
         3        Mg     tau(   3) = (  -0.1721948   1.7347799   0.9631892  )
         4        Mg     tau(   4) = (  -0.1721948   1.1557135   0.9631892  )
         5        Mg     tau(   5) = (   0.3278053   1.4348965   0.9631892  )
         6        Mg     tau(   6) = (   0.3278053   0.2972713   0.9631892  )
         7        Si     tau(   7) = (   0.0088712   0.2890249   0.4340788  )
         8        Si     tau(   8) = (   0.6467394   0.2890249   1.4922996  )
         9        Si     tau(   9) = (   0.6629300   1.4448361   1.4808067  )
        10        Si     tau(  10) = (  -0.0073194   1.4448361   0.4455715  )
        11        Si     tau(  11) = (   0.4956512   1.1609033   0.4446526  )
        12        Si     tau(  12) = (   0.1599594   1.1609033   1.4817258  )
        13        Al     tau(  13) = (   0.1377807   0.5776410   1.4913005  )
        14        Al     tau(  14) = (   0.5178299   0.5776410   0.4350779  )
        15        O      tau(  15) = (  -0.0074669   0.2971620   0.7456970  )
        16        O      tau(  16) = (   0.6630774   0.2971620   1.1806813  )
        17        O      tau(  17) = (   0.6620406   1.4429344   1.1757984  )
        18        O      tau(  18) = (  -0.0064300   1.4429344   0.7505800  )
        19        O      tau(  19) = (   0.5050147   1.1736506   0.7461841  )
        20        O      tau(  20) = (   0.1505958   1.1736506   1.1801942  )
        21        O      tau(  21) = (   0.1214868   0.5600203   1.1597425  )
        22        O      tau(  22) = (   0.5341238   0.5600203   0.7666357  )
        23        O      tau(  23) = (   0.2879887   0.3609046   0.3366838  )
        24        O      tau(  24) = (   0.3676219   0.3609046   1.5896945  )
        25        O      tau(  25) = (  -0.0464812   1.7320335   0.3382567  )
        26        O      tau(  26) = (   0.7020918   1.7320335   1.5881216  )
        27        O      tau(  27) = (   0.3943380   1.3394457   1.5941385  )
        28        O      tau(  28) = (   0.2612726   1.3394457   0.3322399  )
        29        O      tau(  29) = (   0.7591750   1.2822938   0.3229805  )
        30        O      tau(  30) = (  -0.1035645   1.2822938   1.6033979  )
        31        O      tau(  31) = (   0.4576325   0.8828982   0.3262014  )
        32        O      tau(  32) = (   0.1979780   0.8828982   1.6001769  )
        33        O      tau(  33) = (  -0.1435995   0.4656370   1.6230399  )
        34        O      tau(  34) = (   0.7992102   0.4656370   0.3033384  )
        35        O      tau(  35) = (  -0.0189248   0.8557766   0.7559132  )
        36        O      tau(  36) = (   0.6745354   0.8557766   1.1704652  )
        37        O      tau(  37) = (   0.4951839   0.0012396   0.7752371  )
        38        O      tau(  38) = (   0.1604267   0.0012396   1.1511414  )
        39        H      tau(  39) = (   0.1639775   0.8659265   0.7743947  )
        40        H      tau(  40) = (   0.4916331   0.8659265   1.1519836  )
        41        H      tau(  41) = (   0.4962690   0.0183533   0.5944688  )
        42        H      tau(  42) = (   0.1593416   0.0183533   1.3319097  )
        43        Ti     tau(  43) = (  -0.1721948   0.5996552   0.9631892  )

     --------------------------------------------
     DFT-D3 Dispersion Correction (3-body terms):
     --------------------------------------------
       Reference C6 values for interpolation: 

         atom   Coordination number   C6
         H          0.912             6.05
         H          0.000            15.18
         O          0.000            31.01
         O          0.993            25.63
         O          1.989            20.74
         Mg         0.000          1366.75
         Mg         0.963           902.54
         Mg         1.950           351.12
         Al         0.000          1081.08
         Al         0.965           875.51
         Al         1.931           513.50
         Al         2.915           307.19
         Si         0.000           635.71
         Si         0.951           540.53
         Si         1.944           466.25
         Si         2.941           443.01
         Si         3.868           299.55
         K          0.000          9967.00
         K          0.977           676.04
         Ti         0.000          2723.84
         Ti         1.830           604.00
         Ti         3.868           643.18

       Values used:

         atom   Coordination number  R0_AB[au]  C6      C8
         K         11.770            4.007    676.04 129074.98
         K         12.355            4.007    676.04 129074.98
         Mg        11.330            3.292    351.12  31436.69
         Mg        10.311            3.292    351.12  31436.69
         Mg        10.875            3.292    351.12  31436.69
         Mg        10.775            3.292    351.12  31436.69
         Si         6.560            3.583    299.55  21425.58
         Si         6.560            3.583    299.55  21425.58
         Si         6.296            3.583    299.55  21425.58
         Si         6.296            3.583    299.55  21425.58
         Si         6.175            3.583    299.55  21425.58
         Si         6.175            3.583    299.55  21425.58
         Al         7.137            3.789    307.19  29441.29
         Al         7.137            3.789    307.19  29441.29
         O          3.833            2.345     20.74    418.58
         O          3.833            2.345     20.74    418.58
         O          3.912            2.345     20.74    418.58
         O          3.912            2.345     20.74    418.58
         O          3.000            2.345     20.74    418.58
         O          3.000            2.345     20.74    418.58
         O          3.015            2.345     20.74    418.58
         O          3.015            2.345     20.74    418.58
         O          3.090            2.345     20.74    418.58
         O          3.090            2.345     20.74    418.58
         O          3.010            2.345     20.74    418.58
         O          3.010            2.345     20.74    418.58
         O          2.949            2.345     20.74    418.58
         O          2.949            2.345     20.74    418.58
         O          2.997            2.345     20.74    418.58
         O          2.997            2.345     20.74    418.58
         O          3.057            2.345     20.74    418.58
         O          3.057            2.345     20.74    418.58
         O          3.244            2.345     20.74    418.58
         O          3.244            2.345     20.74    418.58
         O          3.024            2.345     20.74    418.58
         O          3.024            2.345     20.74    418.58
         O          3.975            2.345     20.74    418.58
         O          3.975            2.345     20.74    418.58
         H          1.118            2.062      6.11     73.83
         H          1.118            2.062      6.11     73.83
         H          1.223            2.062      6.08     73.48
         H          1.223            2.062      6.08     73.48
         Ti         9.893            3.557    643.18  76289.64

         Molecular C6 ( Ry / a.u.^6 ) =    158927.38


   Crystallographic axes

     site n.     atom                  positions (cryst. coord.)
         1        K      tau(   1) = (  0.0000000  0.4973417  0.0000000  )
         2        K      tau(   2) = (  0.5000001  0.0075777  0.0000000  )
         3        Mg     tau(   3) = (  0.0000002  0.9992965  0.4999999  )
         4        Mg     tau(   4) = (  0.0000002  0.6657332  0.4999999  )
         5        Mg     tau(   5) = (  0.5000003  0.8265527  0.4999999  )
         6        Mg     tau(   6) = (  0.5000003  0.1712391  0.4999999  )
         7        Si     tau(   7) = (  0.0864740  0.1664889  0.2253341  )
         8        Si     tau(   8) = (  0.9135266  0.1664889  0.7746657  )
         9        Si     tau(   9) = (  0.9276626  0.8322783  0.7686996  )
        10        Si     tau(  10) = (  0.0723380  0.8322783  0.2313001  )
        11        Si     tau(  11) = (  0.5751444  0.6687227  0.2308230  )
        12        Si     tau(  12) = (  0.4248562  0.6687227  0.7691767  )
        13        Al     tau(  13) = (  0.4043892  0.3327423  0.7741470  )
        14        Al     tau(  14) = (  0.5956113  0.3327423  0.2258527  )
        15        O      tau(  15) = (  0.1258458  0.1711761  0.3870978  )
        16        O      tau(  16) = (  0.8741548  0.1711761  0.6129019  )
        17        O      tau(  17) = (  0.8722450  0.8311829  0.6103672  )
        18        O      tau(  18) = (  0.1277556  0.8311829  0.3896326  )
        19        O      tau(  19) = (  0.6384144  0.6760656  0.3873507  )
        20        O      tau(  20) = (  0.3615861  0.6760656  0.6126491  )
        21        O      tau(  21) = (  0.3288208  0.3225921  0.6020324  )
        22        O      tau(  22) = (  0.6711798  0.3225921  0.3979673  )
        23        O      tau(  23) = (  0.3481796  0.2078943  0.1747755  )
        24        O      tau(  24) = (  0.6518210  0.2078943  0.8252242  )
        25        O      tau(  25) = (  0.0139909  0.9977145  0.1755920  )
        26        O      tau(  26) = (  0.9860097  0.9977145  0.8244078  )
        27        O      tau(  27) = (  0.6793315  0.7715696  0.8275312  )
        28        O      tau(  28) = (  0.3206691  0.7715696  0.1724686  )
        29        O      tau(  29) = (  0.8169162  0.7386481  0.1676620  )
        30        O      tau(  30) = (  0.1830844  0.7386481  0.8323378  )
        31        O      tau(  31) = (  0.5159494  0.5085816  0.1693340  )
        32        O      tau(  32) = (  0.4840511  0.5085816  0.8306658  )
        33        O      tau(  33) = (  0.1465609  0.2682239  0.8425341  )
        34        O      tau(  34) = (  0.8534397  0.2682239  0.1574656  )
        35        O      tau(  35) = (  0.1162142  0.4929585  0.3924011  )
        36        O      tau(  36) = (  0.8837864  0.4929585  0.6075987  )
        37        O      tau(  37) = (  0.6337776  0.0007141  0.4024323  )
        38        O      tau(  38) = (  0.3662230  0.0007141  0.5975675  )
        39        H      tau(  39) = (  0.3024206  0.4988053  0.4019950  )
        40        H      tau(  40) = (  0.6975800  0.4988053  0.5980047  )
        41        H      tau(  41) = (  0.6025457  0.0105722  0.3085939  )
        42        H      tau(  42) = (  0.3974549  0.0105722  0.6914059  )
        43        Ti     tau(  43) = (  0.0000002  0.3454233  0.4999999  )

     number of k points=    20  Gaussian smearing, width (Ry)=  0.0010
                       cart. coord. in units 2pi/alat
        k(    1) = (   0.0000000   0.0000000   0.0000000), wk =   0.0185185
        k(    2) = (   0.0000000   0.0000000   0.1730362), wk =   0.0370370
        k(    3) = (   0.0000000   0.1920122   0.0000000), wk =   0.0370370
        k(    4) = (   0.0000000   0.1920122   0.1730362), wk =   0.0740741
        k(    5) = (   0.1666667   0.0000000   0.0297960), wk =   0.0370370
        k(    6) = (   0.1666667   0.0000000   0.2028322), wk =   0.0370370
        k(    7) = (   0.1666667   0.0000000  -0.1432402), wk =   0.0370370
        k(    8) = (   0.1666667   0.1920122   0.0297960), wk =   0.0740741
        k(    9) = (   0.1666667   0.1920122   0.2028322), wk =   0.0740741
        k(   10) = (   0.1666667   0.1920122  -0.1432402), wk =   0.0740741
        k(   11) = (   0.3333333   0.0000000   0.0595920), wk =   0.0370370
        k(   12) = (   0.3333333   0.0000000   0.2326282), wk =   0.0370370
        k(   13) = (   0.3333333   0.0000000  -0.1134443), wk =   0.0370370
        k(   14) = (   0.3333333   0.1920122   0.0595920), wk =   0.0740741
        k(   15) = (   0.3333333   0.1920122   0.2326282), wk =   0.0740741
        k(   16) = (   0.3333333   0.1920122  -0.1134443), wk =   0.0740741
        k(   17) = (  -0.5000000   0.0000000  -0.0893879), wk =   0.0185185
        k(   18) = (  -0.5000000   0.0000000   0.0836483), wk =   0.0370370
        k(   19) = (  -0.5000000   0.1920122  -0.0893879), wk =   0.0370370
        k(   20) = (  -0.5000000   0.1920122   0.0836483), wk =   0.0740741

                       cryst. coord.
        k(    1) = (   0.0000000   0.0000000   0.0000000), wk =   0.0185185
        k(    2) = (   0.0000000   0.0000000   0.3333333), wk =   0.0370370
        k(    3) = (   0.0000000   0.3333333   0.0000000), wk =   0.0370370
        k(    4) = (   0.0000000   0.3333333   0.3333333), wk =   0.0740741
        k(    5) = (   0.1666667   0.0000000   0.0000000), wk =   0.0370370
        k(    6) = (   0.1666667   0.0000000   0.3333333), wk =   0.0370370
        k(    7) = (   0.1666667   0.0000000  -0.3333333), wk =   0.0370370
        k(    8) = (   0.1666667   0.3333333   0.0000000), wk =   0.0740741
        k(    9) = (   0.1666667   0.3333333   0.3333333), wk =   0.0740741
        k(   10) = (   0.1666667   0.3333333  -0.3333333), wk =   0.0740741
        k(   11) = (   0.3333333   0.0000000   0.0000000), wk =   0.0370370
        k(   12) = (   0.3333333   0.0000000   0.3333333), wk =   0.0370370
        k(   13) = (   0.3333333   0.0000000  -0.3333333), wk =   0.0370370
        k(   14) = (   0.3333333   0.3333333   0.0000000), wk =   0.0740741
        k(   15) = (   0.3333333   0.3333333   0.3333333), wk =   0.0740741
        k(   16) = (   0.3333333   0.3333333  -0.3333333), wk =   0.0740741
        k(   17) = (  -0.5000000   0.0000000   0.0000000), wk =   0.0185185
        k(   18) = (  -0.5000000   0.0000000   0.3333333), wk =   0.0370370
        k(   19) = (  -0.5000000   0.3333333   0.0000000), wk =   0.0370370
        k(   20) = (  -0.5000000   0.3333333   0.3333333), wk =   0.0740741

     Dense  grid:   605369 G-vectors     FFT dimensions: (  72, 125, 144)

     Smooth grid:   214013 G-vectors     FFT dimensions: (  50,  90, 100)

     Dynamical RAM for                 wfc:      10.14 MB

     Dynamical RAM for     wfc (w. buffer):     415.56 MB

     Dynamical RAM for           str. fact:      10.78 MB

     Dynamical RAM for           local pot:       0.00 MB

     Dynamical RAM for          nlocal pot:      29.25 MB

     Dynamical RAM for                qrad:      24.61 MB

     Dynamical RAM for          rho,v,vnew:      19.12 MB

     Dynamical RAM for               rhoin:       6.37 MB

     Dynamical RAM for            rho*nmix:      49.27 MB

     Dynamical RAM for           G-vectors:       6.05 MB

     Dynamical RAM for          h,s,v(r/c):       4.07 MB

     Dynamical RAM for          <psi|beta>:       0.98 MB

     Dynamical RAM for                 psi:      20.27 MB

     Dynamical RAM for                hpsi:      20.27 MB

     Dynamical RAM for                spsi:      20.27 MB

     Dynamical RAM for      wfcinit/wfcrot:      24.94 MB

     Dynamical RAM for           addusdens:     324.84 MB

     Dynamical RAM for          addusforce:     395.85 MB

     Dynamical RAM for         addusstress:     311.76 MB

     Estimated static dynamical RAM per process >     533.94 MB

     Estimated max dynamical RAM per process >     979.06 MB

     Estimated total dynamical RAM >       5.74 GB

     Check: negative core charge=   -0.000003
     Generating pointlists ...
     new r_m :   0.1360 (alat units)  1.3684 (a.u.) for type    1
     new r_m :   0.1467 (alat units)  1.4762 (a.u.) for type    2
     new r_m :   0.0749 (alat units)  0.7538 (a.u.) for type    3
     new r_m :   0.2180 (alat units)  2.1937 (a.u.) for type    4
     new r_m :   0.1576 (alat units)  1.5861 (a.u.) for type    5
     new r_m :   0.0749 (alat units)  0.7538 (a.u.) for type    6
     new r_m :   0.1246 (alat units)  1.2535 (a.u.) for type    7

     Initial potential from superposition of free atoms

     starting charge     247.9492, renormalised to     248.0000
     Starting wfcs are  178 randomized atomic wfcs
     Checking if some PAW data can be deallocated... 
       PAW data deallocated on    5 nodes for type:  1
       PAW data deallocated on    5 nodes for type:  2
       PAW data deallocated on    5 nodes for type:  3
       PAW data deallocated on    5 nodes for type:  4
       PAW data deallocated on    5 nodes for type:  5
       PAW data deallocated on    1 nodes for type:  6
       PAW data deallocated on    4 nodes for type:  7

     total cpu time spent up to now is      341.7 secs

     Self-consistent Calculation

     iteration #  1     ecut=    60.00 Ry     beta= 0.70
     Davidson diagonalization with overlap

---- Real-time Memory Report at c_bands before calling an iterative solver
           590 MiB given to the printing process from OS
             0 MiB allocation reported by mallinfo(arena+hblkhd)
           630 MiB available memory on the node where the printing process lives
------------------
     ethr =  1.00E-02,  avg # of iterations =  5.0

     total cpu time spent up to now is     1327.1 secs

     total energy              =   -2336.24561307 Ry
     estimated scf accuracy    <      13.22529126 Ry

     total magnetization       =     0.00 Bohr mag/cell
     absolute magnetization    =     0.49 Bohr mag/cell

     iteration #  2     ecut=    60.00 Ry     beta= 0.70
     Davidson diagonalization with overlap

---- Real-time Memory Report at c_bands before calling an iterative solver
           896 MiB given to the printing process from OS
             0 MiB allocation reported by mallinfo(arena+hblkhd)
          2086 MiB available memory on the node where the printing process lives
------------------
     ethr =  5.33E-03,  avg # of iterations =  7.1

     total cpu time spent up to now is     2843.7 secs

     total energy              =   -2332.52163976 Ry
     estimated scf accuracy    <      50.01874489 Ry

     total magnetization       =     0.11 Bohr mag/cell
     absolute magnetization    =     0.62 Bohr mag/cell

     iteration #  3     ecut=    60.00 Ry     beta= 0.70
     Davidson diagonalization with overlap

---- Real-time Memory Report at c_bands before calling an iterative solver
           898 MiB given to the printing process from OS
             0 MiB allocation reported by mallinfo(arena+hblkhd)
          2098 MiB available memory on the node where the printing process lives
------------------
     ethr =  5.33E-03,  avg # of iterations =  8.8

     total cpu time spent up to now is     3805.5 secs

     total energy              =   -2343.06898197 Ry
     estimated scf accuracy    <       8.54824305 Ry

     total magnetization       =     0.00 Bohr mag/cell
     absolute magnetization    =     0.36 Bohr mag/cell

     iteration #  4     ecut=    60.00 Ry     beta= 0.70
     Davidson diagonalization with overlap

---- Real-time Memory Report at c_bands before calling an iterative solver
           901 MiB given to the printing process from OS
             0 MiB allocation reported by mallinfo(arena+hblkhd)
          2076 MiB available memory on the node where the printing process lives
------------------
     ethr =  3.45E-03,  avg # of iterations =  2.0

     total cpu time spent up to now is     4783.3 secs

     total energy              =   -2343.69965940 Ry
     estimated scf accuracy    <       2.06184429 Ry

     total magnetization       =     0.00 Bohr mag/cell
     absolute magnetization    =     0.18 Bohr mag/cell

     iteration #  5     ecut=    60.00 Ry     beta= 0.70
     Davidson diagonalization with overlap

---- Real-time Memory Report at c_bands before calling an iterative solver
           903 MiB given to the printing process from OS
             0 MiB allocation reported by mallinfo(arena+hblkhd)
          2054 MiB available memory on the node where the printing process lives
------------------
     c_bands:  1 eigenvalues not converged
     ethr =  8.31E-04,  avg # of iterations = 14.8

     total cpu time spent up to now is     6186.5 secs

     total energy              =   -2344.19303023 Ry
     estimated scf accuracy    <       0.39157763 Ry

     total magnetization       =     0.00 Bohr mag/cell
     absolute magnetization    =     0.15 Bohr mag/cell

     iteration #  6     ecut=    60.00 Ry     beta= 0.70
     Davidson diagonalization with overlap

---- Real-time Memory Report at c_bands before calling an iterative solver
           906 MiB given to the printing process from OS
             0 MiB allocation reported by mallinfo(arena+hblkhd)
          2040 MiB available memory on the node where the printing process lives
------------------
     c_bands:  1 eigenvalues not converged
     ethr =  1.58E-04,  avg # of iterations = 15.3

     total cpu time spent up to now is     7931.9 secs

     total energy              =   -2344.38319855 Ry
     estimated scf accuracy    <       0.08684612 Ry

     total magnetization       =    -0.00 Bohr mag/cell
     absolute magnetization    =     0.08 Bohr mag/cell

     iteration #  7     ecut=    60.00 Ry     beta= 0.70
     Davidson diagonalization with overlap

---- Real-time Memory Report at c_bands before calling an iterative solver
           908 MiB given to the printing process from OS
             0 MiB allocation reported by mallinfo(arena+hblkhd)
          2051 MiB available memory on the node where the printing process lives
------------------
     c_bands:  1 eigenvalues not converged
     c_bands:  1 eigenvalues not converged
     c_bands:  2 eigenvalues not converged
     c_bands:  1 eigenvalues not converged
     c_bands:  1 eigenvalues not converged
     ethr =  3.50E-05,  avg # of iterations =  9.6

     total cpu time spent up to now is     8943.2 secs

     total energy              =   -2344.38521986 Ry
     estimated scf accuracy    <       0.03231490 Ry

     total magnetization       =    -0.00 Bohr mag/cell
     absolute magnetization    =     0.05 Bohr mag/cell

     iteration #  8     ecut=    60.00 Ry     beta= 0.70
     Davidson diagonalization with overlap

---- Real-time Memory Report at c_bands before calling an iterative solver
           911 MiB given to the printing process from OS
             0 MiB allocation reported by mallinfo(arena+hblkhd)
          2023 MiB available memory on the node where the printing process lives
------------------
     c_bands:  2 eigenvalues not converged
     c_bands:  1 eigenvalues not converged
     c_bands:  1 eigenvalues not converged
     c_bands:  1 eigenvalues not converged
     c_bands:  1 eigenvalues not converged
     ethr =  1.30E-05,  avg # of iterations = 12.6

     total cpu time spent up to now is    10143.9 secs

     total energy              =   -2344.38972553 Ry
     estimated scf accuracy    <       0.01750836 Ry

     total magnetization       =     0.00 Bohr mag/cell
     absolute magnetization    =     0.03 Bohr mag/cell

     iteration #  9     ecut=    60.00 Ry     beta= 0.70
     Davidson diagonalization with overlap

---- Real-time Memory Report at c_bands before calling an iterative solver
           913 MiB given to the printing process from OS
             0 MiB allocation reported by mallinfo(arena+hblkhd)
          2071 MiB available memory on the node where the printing process lives
------------------
     c_bands:  1 eigenvalues not converged
     ethr =  7.06E-06,  avg # of iterations =  3.9

     total cpu time spent up to now is    11122.9 secs

     total energy              =   -2344.38927055 Ry
     estimated scf accuracy    <       0.01125719 Ry

     total magnetization       =    -0.00 Bohr mag/cell
     absolute magnetization    =     0.02 Bohr mag/cell

     iteration # 10     ecut=    60.00 Ry     beta= 0.70
     Davidson diagonalization with overlap

---- Real-time Memory Report at c_bands before calling an iterative solver
           915 MiB given to the printing process from OS
             0 MiB allocation reported by mallinfo(arena+hblkhd)
          2057 MiB available memory on the node where the printing process lives
------------------
     c_bands:  1 eigenvalues not converged
     ethr =  4.54E-06,  avg # of iterations =  8.6

     total cpu time spent up to now is    12318.3 secs

     total energy              =   -2344.39121956 Ry
     estimated scf accuracy    <       0.00551769 Ry

     total magnetization       =    -0.00 Bohr mag/cell
     absolute magnetization    =     0.02 Bohr mag/cell

     iteration # 11     ecut=    60.00 Ry     beta= 0.70
     Davidson diagonalization with overlap

---- Real-time Memory Report at c_bands before calling an iterative solver
           915 MiB given to the printing process from OS
             0 MiB allocation reported by mallinfo(arena+hblkhd)
          2057 MiB available memory on the node where the printing process lives
------------------
     c_bands:  2 eigenvalues not converged
     ethr =  2.22E-06,  avg # of iterations =  3.6

     total cpu time spent up to now is    13271.4 secs

     total energy              =   -2344.39141567 Ry
     estimated scf accuracy    <       0.00203873 Ry

     total magnetization       =     0.00 Bohr mag/cell
     absolute magnetization    =     0.01 Bohr mag/cell

     iteration # 12     ecut=    60.00 Ry     beta= 0.70
     Davidson diagonalization with overlap

---- Real-time Memory Report at c_bands before calling an iterative solver
           915 MiB given to the printing process from OS
             0 MiB allocation reported by mallinfo(arena+hblkhd)
          2060 MiB available memory on the node where the printing process lives
------------------
     c_bands:  1 eigenvalues not converged
     c_bands:  2 eigenvalues not converged
     c_bands:  1 eigenvalues not converged
     c_bands:  1 eigenvalues not converged
     ethr =  8.22E-07,  avg # of iterations =  7.0

     total cpu time spent up to now is    14307.7 secs

     total energy              =   -2344.39178672 Ry
     estimated scf accuracy    <       0.00087303 Ry

     total magnetization       =    -0.00 Bohr mag/cell
     absolute magnetization    =     0.01 Bohr mag/cell

     iteration # 13     ecut=    60.00 Ry     beta= 0.70
     Davidson diagonalization with overlap

---- Real-time Memory Report at c_bands before calling an iterative solver
           915 MiB given to the printing process from OS
             0 MiB allocation reported by mallinfo(arena+hblkhd)
          2050 MiB available memory on the node where the printing process lives
------------------
     ethr =  3.52E-07,  avg # of iterations =  4.3

     total cpu time spent up to now is    15271.0 secs

     total energy              =   -2344.39174853 Ry
     estimated scf accuracy    <       0.00041386 Ry

     total magnetization       =    -0.00 Bohr mag/cell
     absolute magnetization    =     0.01 Bohr mag/cell

     iteration # 14     ecut=    60.00 Ry     beta= 0.70
     Davidson diagonalization with overlap

---- Real-time Memory Report at c_bands before calling an iterative solver
           915 MiB given to the printing process from OS
             0 MiB allocation reported by mallinfo(arena+hblkhd)
          2050 MiB available memory on the node where the printing process lives
------------------
     ethr =  1.67E-07,  avg # of iterations =  4.6

     total cpu time spent up to now is    16560.1 secs

     total energy              =   -2344.39192638 Ry
     estimated scf accuracy    <       0.00002465 Ry

     total magnetization       =     0.00 Bohr mag/cell
     absolute magnetization    =     0.01 Bohr mag/cell

     iteration # 15     ecut=    60.00 Ry     beta= 0.70
     Davidson diagonalization with overlap

---- Real-time Memory Report at c_bands before calling an iterative solver
           915 MiB given to the printing process from OS
             0 MiB allocation reported by mallinfo(arena+hblkhd)
          2064 MiB available memory on the node where the printing process lives
------------------
     ethr =  9.94E-09,  avg # of iterations =  8.8

     total cpu time spent up to now is    18504.1 secs

     total energy              =   -2344.39195727 Ry
     estimated scf accuracy    <       0.00000621 Ry

     total magnetization       =    -0.00 Bohr mag/cell
     absolute magnetization    =     0.00 Bohr mag/cell

     iteration # 16     ecut=    60.00 Ry     beta= 0.70
     Davidson diagonalization with overlap

---- Real-time Memory Report at c_bands before calling an iterative solver
           915 MiB given to the printing process from OS
             0 MiB allocation reported by mallinfo(arena+hblkhd)
          2045 MiB available memory on the node where the printing process lives
------------------
     ethr =  2.50E-09,  avg # of iterations =  4.8

     total cpu time spent up to now is    19583.1 secs

     total energy              =   -2344.39195861 Ry
     estimated scf accuracy    <       0.00000120 Ry

     total magnetization       =     0.00 Bohr mag/cell
     absolute magnetization    =     0.00 Bohr mag/cell

     iteration # 17     ecut=    60.00 Ry     beta= 0.70
     Davidson diagonalization with overlap

---- Real-time Memory Report at c_bands before calling an iterative solver
           915 MiB given to the printing process from OS
             0 MiB allocation reported by mallinfo(arena+hblkhd)
          2058 MiB available memory on the node where the printing process lives
------------------
     ethr =  4.84E-10,  avg # of iterations =  6.2

     Magnetic moment per site  (integrated on atomic sphere of radius R)
     atom   1 (R=0.218)  charge=  7.5732  magn=  0.0000
     atom   2 (R=0.218)  charge=  7.5781  magn=  0.0000
     atom   3 (R=0.158)  charge=  8.1051  magn=  0.0000
     atom   4 (R=0.158)  charge=  8.1048  magn=  0.0000
     atom   5 (R=0.158)  charge=  8.1095  magn=  0.0000
     atom   6 (R=0.158)  charge=  8.1102  magn=  0.0000
     atom   7 (R=0.125)  charge=  0.5341  magn=  0.0000
     atom   8 (R=0.125)  charge=  0.5341  magn=  0.0000
     atom   9 (R=0.125)  charge=  0.5284  magn=  0.0000
     atom  10 (R=0.125)  charge=  0.5284  magn=  0.0000
     atom  11 (R=0.125)  charge=  0.5290  magn=  0.0000
     atom  12 (R=0.125)  charge=  0.5290  magn=  0.0000
     atom  13 (R=0.136)  charge=  0.3496  magn=  0.0000
     atom  14 (R=0.136)  charge=  0.3496  magn=  0.0000
     atom  15 (R=0.075)  charge=  1.9387  magn= -0.0000
     atom  16 (R=0.075)  charge=  1.9387  magn= -0.0000
     atom  17 (R=0.075)  charge=  1.9437  magn= -0.0000
     atom  18 (R=0.075)  charge=  1.9437  magn= -0.0000
     atom  19 (R=0.075)  charge=  1.9417  magn= -0.0000
     atom  20 (R=0.075)  charge=  1.9417  magn= -0.0000
     atom  21 (R=0.075)  charge=  1.9366  magn= -0.0000
     atom  22 (R=0.075)  charge=  1.9366  magn= -0.0000
     atom  23 (R=0.075)  charge=  1.9476  magn= -0.0000
     atom  24 (R=0.075)  charge=  1.9476  magn= -0.0000
     atom  25 (R=0.075)  charge=  1.9533  magn= -0.0000
     atom  26 (R=0.075)  charge=  1.9533  magn= -0.0000
     atom  27 (R=0.075)  charge=  1.9509  magn= -0.0000
     atom  28 (R=0.075)  charge=  1.9509  magn= -0.0000
     atom  29 (R=0.075)  charge=  1.9504  magn= -0.0000
     atom  30 (R=0.075)  charge=  1.9504  magn= -0.0000
     atom  31 (R=0.075)  charge=  1.9458  magn= -0.0000
     atom  32 (R=0.075)  charge=  1.9458  magn= -0.0000
     atom  33 (R=0.075)  charge=  1.9444  magn= -0.0000
     atom  34 (R=0.075)  charge=  1.9444  magn= -0.0000
     atom  35 (R=0.075)  charge=  1.9354  magn= -0.0000
     atom  36 (R=0.075)  charge=  1.9354  magn= -0.0000
     atom  37 (R=0.075)  charge=  1.9449  magn= -0.0000
     atom  38 (R=0.075)  charge=  1.9449  magn= -0.0000
     atom  39 (R=0.075)  charge=  0.3812  magn=  0.0000
     atom  40 (R=0.075)  charge=  0.3812  magn=  0.0000
     atom  41 (R=0.075)  charge=  0.3998  magn=  0.0000
     atom  42 (R=0.075)  charge=  0.3999  magn=  0.0000
     atom  43 (R=0.147)  charge=  8.3280  magn=  0.0001

     total cpu time spent up to now is    21134.7 secs

     End of self-consistent calculation

 ------ SPIN UP ------------


          k = 0.0000 0.0000 0.0000 ( 26779 PWs)   bands (ev):

   -68.3690 -68.2031 -68.0974 -67.9355 -52.3857 -35.1365 -35.1325 -35.0905
   -34.9684 -34.9638 -34.9294 -34.8738 -34.8368 -34.8361 -34.7117 -34.6754
   -34.6720 -28.6691 -28.6690 -28.6257 -23.7650 -23.5132 -15.4101 -15.3647
   -14.6498 -14.6034 -14.0257 -13.9079 -13.8908 -13.8169 -13.7732 -13.7492
   -13.6749 -13.4072 -13.2634 -13.2592 -13.2547 -13.1150 -13.0634 -13.0026
   -12.8936 -12.8731 -12.5487 -12.4653 -12.4387 -11.9750  -7.3029  -7.2505
    -7.2285  -7.0143  -6.9978  -6.9957  -4.6541  -4.6199  -3.0031  -2.9238
    -2.1959  -1.8174  -1.6626  -1.6567  -1.3946  -1.3232  -1.2055  -1.1879
    -1.0905  -1.0305  -0.7965  -0.6661  -0.5630  -0.3470  -0.0972  -0.0300
     0.0062   0.0856   0.1048   0.4036   0.5091   0.5264   0.5841   0.6436
     0.8583   0.9156   1.0122   1.0402   1.1019   1.1827   1.4916   1.5626
     1.6005   1.6014   1.6851   1.8370   1.9235   1.9543   2.0765   2.1205
     2.1547   2.1609   2.2171   2.2350   2.3468   2.3733   2.4166   2.5175
     2.5521   2.6039   2.7008   2.7819   2.8658   2.9143   2.9649   2.9696
     3.0207   3.0930   3.1151   3.1951   3.2607   3.3290   3.3366   3.4871
     3.5147   3.6146   3.7360   3.7976   7.1991   7.4048   7.6999   8.6793
     9.3758  10.2213  10.2297  10.8801  11.1018  11.4139  11.6713  11.7989
    11.8870  12.3219  12.4743  12.5388  12.6339  12.8374  12.8690  13.0272
    13.0597  13.1156  13.3190  13.3837  13.4536

     occupation numbers 
     1.0000   1.0000   1.0000   1.0000   1.0000   1.0000   1.0000   1.0000
     1.0000   1.0000   1.0000   1.0000   1.0000   1.0000   1.0000   1.0000
     1.0000   1.0000   1.0000   1.0000   1.0000   1.0000   1.0000   1.0000
     1.0000   1.0000   1.0000   1.0000   1.0000   1.0000   1.0000   1.0000
     1.0000   1.0000   1.0000   1.0000   1.0000   1.0000   1.0000   1.0000
     1.0000   1.0000   1.0000   1.0000   1.0000   1.0000   1.0000   1.0000
     1.0000   1.0000   1.0000   1.0000   1.0000   1.0000   1.0000   1.0000
     1.0000   1.0000   1.0000   1.0000   1.0000   1.0000   1.0000   1.0000
     1.0000   1.0000   1.0000   1.0000   1.0000   1.0000   1.0000   1.0000
     1.0000   1.0000   1.0000   1.0000   1.0000   1.0000   1.0000   1.0000
     1.0000   1.0000   1.0000   1.0000   1.0000   1.0000   1.0000   1.0000
     1.0000   1.0000   1.0000   1.0000   1.0000   1.0000   1.0000   1.0000
     1.0000   1.0000   1.0000   1.0000   1.0000   1.0000   1.0000   1.0000
     1.0000   1.0000   1.0000   1.0000   1.0000   1.0000   1.0000   1.0000
     1.0000   1.0000   1.0000   1.0000   1.0000   1.0000   1.0000   1.0000
     1.0000   1.0000   1.0000   1.0000   0.0000   0.0000   0.0000   0.0000
     0.0000   0.0000   0.0000   0.0000   0.0000   0.0000   0.0000   0.0000
     0.0000   0.0000   0.0000   0.0000   0.0000   0.0000   0.0000   0.0000
     0.0000   0.0000   0.0000   0.0000   0.0000

          k = 0.0000 0.0000 0.1730 ( 26756 PWs)   bands (ev):

   -68.3690 -68.2031 -68.0974 -67.9355 -52.3857 -35.1365 -35.1325 -35.0905
   -34.9684 -34.9638 -34.9293 -34.8738 -34.8367 -34.8361 -34.7117 -34.6754
   -34.6720 -28.6691 -28.6690 -28.6257 -23.7650 -23.5132 -15.4001 -15.3753
   -14.6390 -14.6147 -14.0221 -13.9086 -13.8899 -13.8308 -13.7639 -13.7475
   -13.6754 -13.4074 -13.2724 -13.2535 -13.2447 -13.1207 -13.0565 -13.0090
   -12.8933 -12.8732 -12.5466 -12.4682 -12.4378 -11.9758  -7.3029  -7.2505
    -7.2284  -7.0144  -6.9977  -6.9957  -4.6572  -4.6168  -2.9845  -2.9443
    -2.1747  -1.8048  -1.6873  -1.6463  -1.3977  -1.3187  -1.2089  -1.1687
    -1.0576  -1.0342  -0.8057  -0.7597  -0.5407  -0.3989  -0.1027  -0.0758
     0.0074   0.0948   0.1222   0.3810   0.4699   0.5642   0.6046   0.6516
     0.8885   0.9357   1.0359   1.0854   1.1178   1.2002   1.5444   1.5946
     1.6080   1.6551   1.7014   1.8125   1.8954   1.9261   2.0585   2.1184
     2.1353   2.1448   2.1653   2.2439   2.3440   2.3703   2.4627   2.4826
     2.5502   2.5820   2.6422   2.7493   2.8696   2.8926   2.9388   2.9493
     3.0283   3.0881   3.1246   3.2439   3.2941   3.3056   3.4006   3.4993
     3.5169   3.6008   3.7029   3.8033   7.2004   7.4060   7.6964   8.9800
     9.3641   9.7014  10.2446  10.9909  11.1656  11.3675  11.6059  11.7499
    12.1066  12.3384  12.4716  12.6951  12.7288  12.7842  12.8096  13.0027
    13.1337  13.2441  13.2798  13.2960  13.3782

     occupation numbers 
     1.0000   1.0000   1.0000   1.0000   1.0000   1.0000   1.0000   1.0000
     1.0000   1.0000   1.0000   1.0000   1.0000   1.0000   1.0000   1.0000
     1.0000   1.0000   1.0000   1.0000   1.0000   1.0000   1.0000   1.0000
     1.0000   1.0000   1.0000   1.0000   1.0000   1.0000   1.0000   1.0000
     1.0000   1.0000   1.0000   1.0000   1.0000   1.0000   1.0000   1.0000
     1.0000   1.0000   1.0000   1.0000   1.0000   1.0000   1.0000   1.0000
     1.0000   1.0000   1.0000   1.0000   1.0000   1.0000   1.0000   1.0000
     1.0000   1.0000   1.0000   1.0000   1.0000   1.0000   1.0000   1.0000
     1.0000   1.0000   1.0000   1.0000   1.0000   1.0000   1.0000   1.0000
     1.0000   1.0000   1.0000   1.0000   1.0000   1.0000   1.0000   1.0000
     1.0000   1.0000   1.0000   1.0000   1.0000   1.0000   1.0000   1.0000
     1.0000   1.0000   1.0000   1.0000   1.0000   1.0000   1.0000   1.0000
     1.0000   1.0000   1.0000   1.0000   1.0000   1.0000   1.0000   1.0000
     1.0000   1.0000   1.0000   1.0000   1.0000   1.0000   1.0000   1.0000
     1.0000   1.0000   1.0000   1.0000   1.0000   1.0000   1.0000   1.0000
     1.0000   1.0000   1.0000   1.0000   0.0000   0.0000   0.0000   0.0000
     0.0000   0.0000   0.0000   0.0000   0.0000   0.0000   0.0000   0.0000
     0.0000   0.0000   0.0000   0.0000   0.0000   0.0000   0.0000   0.0000
     0.0000   0.0000   0.0000   0.0000   0.0000

          k = 0.0000 0.1920 0.0000 ( 26787 PWs)   bands (ev):

   -68.3690 -68.2031 -68.0974 -67.9355 -52.3857 -35.1365 -35.1325 -35.0905
   -34.9684 -34.9638 -34.9294 -34.8738 -34.8368 -34.8361 -34.7117 -34.6754
   -34.6720 -28.6691 -28.6690 -28.6257 -23.7650 -23.5132 -15.4020 -15.3581
   -14.6900 -14.6344 -13.9672 -13.9080 -13.8898 -13.7945 -13.7410 -13.7086
   -13.6775 -13.4062 -13.3425 -13.3201 -13.2232 -13.1303 -13.0676 -12.9839
   -12.8939 -12.8738 -12.5389 -12.4634 -12.4395 -11.9742  -7.3028  -7.2504
    -7.2283  -7.0148  -6.9975  -6.9958  -4.6007  -4.5650  -3.1679  -3.0908
    -2.1763  -1.7405  -1.5522  -1.4848  -1.3737  -1.3227  -1.2327  -1.2105
    -1.1380  -1.1034  -0.7595  -0.6467  -0.6038  -0.3758  -0.1356  -0.0750
     0.0352   0.0428   0.2054   0.4002   0.4728   0.4975   0.5681   0.6183
     0.9124   0.9355   1.0334   1.0837   1.1930   1.3174   1.4827   1.5667
     1.5761   1.6564   1.6678   1.7997   1.8073   1.9102   2.0199   2.0726
     2.1362   2.1983   2.2286   2.2593   2.3457   2.4163   2.4499   2.5487
     2.5713   2.5938   2.7211   2.7577   2.8514   2.9170   2.9799   3.0255
     3.0805   3.0851   3.1225   3.1863   3.2715   3.3013   3.3487   3.4178
     3.4567   3.6155   3.6270   3.7102   7.2107   7.4078   7.6999   9.0537
     9.3102  10.0110  10.2634  10.4836  11.1784  11.3540  11.6424  11.9832
    12.1704  12.2984  12.5047  12.6098  12.6475  12.8043  12.8878  12.8931
    13.0152  13.1414  13.2072  13.2621  13.3561

     occupation numbers 
     1.0000   1.0000   1.0000   1.0000   1.0000   1.0000   1.0000   1.0000
     1.0000   1.0000   1.0000   1.0000   1.0000   1.0000   1.0000   1.0000
     1.0000   1.0000   1.0000   1.0000   1.0000   1.0000   1.0000   1.0000
     1.0000   1.0000   1.0000   1.0000   1.0000   1.0000   1.0000   1.0000
     1.0000   1.0000   1.0000   1.0000   1.0000   1.0000   1.0000   1.0000
     1.0000   1.0000   1.0000   1.0000   1.0000   1.0000   1.0000   1.0000
     1.0000   1.0000   1.0000   1.0000   1.0000   1.0000   1.0000   1.0000
     1.0000   1.0000   1.0000   1.0000   1.0000   1.0000   1.0000   1.0000
     1.0000   1.0000   1.0000   1.0000   1.0000   1.0000   1.0000   1.0000
     1.0000   1.0000   1.0000   1.0000   1.0000   1.0000   1.0000   1.0000
     1.0000   1.0000   1.0000   1.0000   1.0000   1.0000   1.0000   1.0000
     1.0000   1.0000   1.0000   1.0000   1.0000   1.0000   1.0000   1.0000
     1.0000   1.0000   1.0000   1.0000   1.0000   1.0000   1.0000   1.0000
     1.0000   1.0000   1.0000   1.0000   1.0000   1.0000   1.0000   1.0000
     1.0000   1.0000   1.0000   1.0000   1.0000   1.0000   1.0000   1.0000
     1.0000   1.0000   1.0000   1.0000   0.0000   0.0000   0.0000   0.0000
     0.0000   0.0000   0.0000   0.0000   0.0000   0.0000   0.0000   0.0000
     0.0000   0.0000   0.0000   0.0000   0.0000   0.0000   0.0000   0.0000
     0.0000   0.0000   0.0000   0.0000   0.0000

          k = 0.0000 0.1920 0.1730 ( 26783 PWs)   bands (ev):

   -68.3690 -68.2031 -68.0974 -67.9355 -52.3857 -35.1365 -35.1325 -35.0905
   -34.9684 -34.9638 -34.9293 -34.8738 -34.8368 -34.8361 -34.7117 -34.6754
   -34.6720 -28.6691 -28.6690 -28.6257 -23.7650 -23.5132 -15.3920 -15.3688
   -14.6793 -14.6460 -13.9648 -13.9074 -13.8896 -13.7924 -13.7548 -13.6980
   -13.6782 -13.4065 -13.3370 -13.3259 -13.2183 -13.1344 -13.0601 -12.9909
   -12.8943 -12.8736 -12.5364 -12.4663 -12.4387 -11.9749  -7.3028  -7.2505
    -7.2282  -7.0148  -6.9974  -6.9958  -4.6009  -4.5649  -3.1498  -3.1101
    -2.1589  -1.7382  -1.5346  -1.5007  -1.3765  -1.3117  -1.2180  -1.2107
    -1.1239  -1.1022  -0.7993  -0.7067  -0.5673  -0.4445  -0.1448  -0.1051
     0.0254   0.0461   0.2421   0.3840   0.4141   0.5225   0.6022   0.6395
     0.9297   1.0317   1.0569   1.1128   1.2255   1.2754   1.5189   1.5608
     1.5813   1.6394   1.7390   1.7988   1.8425   1.8986   1.9786   2.0460
     2.1280   2.1754   2.2259   2.2827   2.3187   2.3840   2.4464   2.4860
     2.5722   2.5970   2.6308   2.7909   2.8525   2.9132   2.9493   3.0087
     3.0749   3.0960   3.1071   3.2361   3.2857   3.3117   3.3917   3.4308
     3.4528   3.6143   3.6402   3.6851   7.2123   7.4093   7.6962   9.1855
     9.4195  10.0071  10.2070  10.2975  10.7629  11.3931  11.9082  12.0391
    12.2284  12.3849  12.5172  12.7127  12.7484  12.7717  12.8904  12.9771
    13.0021  13.1781  13.2176  13.2629  13.3215

     occupation numbers 
     1.0000   1.0000   1.0000   1.0000   1.0000   1.0000   1.0000   1.0000
     1.0000   1.0000   1.0000   1.0000   1.0000   1.0000   1.0000   1.0000
     1.0000   1.0000   1.0000   1.0000   1.0000   1.0000   1.0000   1.0000
     1.0000   1.0000   1.0000   1.0000   1.0000   1.0000   1.0000   1.0000
     1.0000   1.0000   1.0000   1.0000   1.0000   1.0000   1.0000   1.0000
     1.0000   1.0000   1.0000   1.0000   1.0000   1.0000   1.0000   1.0000
     1.0000   1.0000   1.0000   1.0000   1.0000   1.0000   1.0000   1.0000
     1.0000   1.0000   1.0000   1.0000   1.0000   1.0000   1.0000   1.0000
     1.0000   1.0000   1.0000   1.0000   1.0000   1.0000   1.0000   1.0000
     1.0000   1.0000   1.0000   1.0000   1.0000   1.0000   1.0000   1.0000
     1.0000   1.0000   1.0000   1.0000   1.0000   1.0000   1.0000   1.0000
     1.0000   1.0000   1.0000   1.0000   1.0000   1.0000   1.0000   1.0000
     1.0000   1.0000   1.0000   1.0000   1.0000   1.0000   1.0000   1.0000
     1.0000   1.0000   1.0000   1.0000   1.0000   1.0000   1.0000   1.0000
     1.0000   1.0000   1.0000   1.0000   1.0000   1.0000   1.0000   1.0000
     1.0000   1.0000   1.0000   1.0000   0.0000   0.0000   0.0000   0.0000
     0.0000   0.0000   0.0000   0.0000   0.0000   0.0000   0.0000   0.0000
     0.0000   0.0000   0.0000   0.0000   0.0000   0.0000   0.0000   0.0000
     0.0000   0.0000   0.0000   0.0000   0.0000

          k = 0.1667 0.0000 0.0298 ( 26772 PWs)   bands (ev):

   -68.3690 -68.2031 -68.0974 -67.9355 -52.3857 -35.1365 -35.1326 -35.0904
   -34.9685 -34.9637 -34.9293 -34.8738 -34.8368 -34.8360 -34.7118 -34.6753
   -34.6721 -28.6692 -28.6690 -28.6258 -23.7649 -23.5131 -15.3584 -15.3142
   -14.6384 -14.5978 -14.1014 -14.0468 -13.9422 -13.7541 -13.7138 -13.7035
   -13.6686 -13.4245 -13.2776 -13.2606 -13.2336 -13.1309 -13.0673 -13.0194
   -12.9347 -12.8929 -12.5423 -12.4638 -12.4159 -11.9951  -7.3036  -7.2503
    -7.2275  -7.0166  -6.9974  -6.9939  -4.5052  -4.4653  -2.9397  -2.8625
    -2.2027  -1.8795  -1.8531  -1.6525  -1.3699  -1.2720  -1.2122  -1.1717
    -1.1387  -0.9778  -0.7712  -0.6451  -0.5162  -0.3425  -0.1269  -0.0719
    -0.0007   0.0658   0.1204   0.2935   0.3855   0.4827   0.6222   0.7172
     0.8550   0.9638   1.0364   1.0913   1.1445   1.2150   1.4457   1.4940
     1.5557   1.6409   1.7275   1.8544   1.8733   1.9289   1.9980   2.0972
     2.1171   2.1568   2.1996   2.3300   2.3358   2.4074   2.4494   2.5369
     2.5676   2.6499   2.6768   2.7614   2.8282   2.8810   2.9209   2.9651
     2.9899   3.0497   3.0825   3.1274   3.2503   3.3028   3.3327   3.4220
     3.4369   3.5660   3.7030   3.8099   7.2045   7.4340   7.6622   8.9825
     9.3804  10.1118  10.4980  10.9788  11.2350  11.5167  11.7379  11.8947
    11.9981  12.3693  12.4233  12.5554  12.6429  12.7262  12.7964  13.0082
    13.1051  13.1589  13.2051  13.3054  13.4123

     occupation numbers 
     1.0000   1.0000   1.0000   1.0000   1.0000   1.0000   1.0000   1.0000
     1.0000   1.0000   1.0000   1.0000   1.0000   1.0000   1.0000   1.0000
     1.0000   1.0000   1.0000   1.0000   1.0000   1.0000   1.0000   1.0000
     1.0000   1.0000   1.0000   1.0000   1.0000   1.0000   1.0000   1.0000
     1.0000   1.0000   1.0000   1.0000   1.0000   1.0000   1.0000   1.0000
     1.0000   1.0000   1.0000   1.0000   1.0000   1.0000   1.0000   1.0000
     1.0000   1.0000   1.0000   1.0000   1.0000   1.0000   1.0000   1.0000
     1.0000   1.0000   1.0000   1.0000   1.0000   1.0000   1.0000   1.0000
     1.0000   1.0000   1.0000   1.0000   1.0000   1.0000   1.0000   1.0000
     1.0000   1.0000   1.0000   1.0000   1.0000   1.0000   1.0000   1.0000
     1.0000   1.0000   1.0000   1.0000   1.0000   1.0000   1.0000   1.0000
     1.0000   1.0000   1.0000   1.0000   1.0000   1.0000   1.0000   1.0000
     1.0000   1.0000   1.0000   1.0000   1.0000   1.0000   1.0000   1.0000
     1.0000   1.0000   1.0000   1.0000   1.0000   1.0000   1.0000   1.0000
     1.0000   1.0000   1.0000   1.0000   1.0000   1.0000   1.0000   1.0000
     1.0000   1.0000   1.0000   1.0000   0.0000   0.0000   0.0000   0.0000
     0.0000   0.0000   0.0000   0.0000   0.0000   0.0000   0.0000   0.0000
     0.0000   0.0000   0.0000   0.0000   0.0000   0.0000   0.0000   0.0000
     0.0000   0.0000   0.0000   0.0000   0.0000

          k = 0.1667 0.0000 0.2028 ( 26774 PWs)   bands (ev):

   -68.3690 -68.2031 -68.0974 -67.9355 -52.3857 -35.1365 -35.1326 -35.0904
   -34.9685 -34.9637 -34.9293 -34.8738 -34.8368 -34.8360 -34.7118 -34.6753
   -34.6721 -28.6692 -28.6690 -28.6258 -23.7649 -23.5131 -15.3459 -15.3275
   -14.6265 -14.6102 -14.0908 -14.0605 -13.9370 -13.7588 -13.7198 -13.6927
   -13.6704 -13.4245 -13.2843 -13.2489 -13.2322 -13.1370 -13.0630 -13.0225
   -12.9229 -12.9055 -12.5399 -12.4668 -12.4145 -11.9961  -7.3036  -7.2503
    -7.2274  -7.0166  -6.9974  -6.9939  -4.5119  -4.4586  -2.9258  -2.8784
    -2.1793  -1.8959  -1.8438  -1.6509  -1.3688  -1.2662  -1.2142  -1.1667
    -1.1136  -0.9480  -0.8110  -0.7228  -0.5038  -0.3832  -0.1688  -0.0606
     0.0032   0.0818   0.1211   0.2792   0.3684   0.4954   0.6285   0.7339
     0.8512   0.9882   1.0252   1.1378   1.2107   1.2427   1.4510   1.5397
     1.5959   1.7130   1.7198   1.7777   1.8773   1.9287   1.9984   2.0304
     2.1167   2.1362   2.1610   2.3248   2.3409   2.4514   2.4592   2.4651
     2.5624   2.6482   2.6688   2.7049   2.8268   2.8478   2.9334   2.9356
     2.9613   3.0197   3.0935   3.2279   3.2488   3.2884   3.3900   3.4192
     3.4800   3.5545   3.6704   3.8130   7.2046   7.4354   7.6599   9.3023
     9.3707   9.8156  10.2493  11.0751  11.3033  11.4275  11.7587  11.8106
    12.1409  12.3389  12.4086  12.6607  12.7171  12.8465  12.9432  13.0273
    13.1020  13.1744  13.2512  13.2892  13.3941

     occupation numbers 
     1.0000   1.0000   1.0000   1.0000   1.0000   1.0000   1.0000   1.0000
     1.0000   1.0000   1.0000   1.0000   1.0000   1.0000   1.0000   1.0000
     1.0000   1.0000   1.0000   1.0000   1.0000   1.0000   1.0000   1.0000
     1.0000   1.0000   1.0000   1.0000   1.0000   1.0000   1.0000   1.0000
     1.0000   1.0000   1.0000   1.0000   1.0000   1.0000   1.0000   1.0000
     1.0000   1.0000   1.0000   1.0000   1.0000   1.0000   1.0000   1.0000
     1.0000   1.0000   1.0000   1.0000   1.0000   1.0000   1.0000   1.0000
     1.0000   1.0000   1.0000   1.0000   1.0000   1.0000   1.0000   1.0000
     1.0000   1.0000   1.0000   1.0000   1.0000   1.0000   1.0000   1.0000
     1.0000   1.0000   1.0000   1.0000   1.0000   1.0000   1.0000   1.0000
     1.0000   1.0000   1.0000   1.0000   1.0000   1.0000   1.0000   1.0000
     1.0000   1.0000   1.0000   1.0000   1.0000   1.0000   1.0000   1.0000
     1.0000   1.0000   1.0000   1.0000   1.0000   1.0000   1.0000   1.0000
     1.0000   1.0000   1.0000   1.0000   1.0000   1.0000   1.0000   1.0000
     1.0000   1.0000   1.0000   1.0000   1.0000   1.0000   1.0000   1.0000
     1.0000   1.0000   1.0000   1.0000   0.0000   0.0000   0.0000   0.0000
     0.0000   0.0000   0.0000   0.0000   0.0000   0.0000   0.0000   0.0000
     0.0000   0.0000   0.0000   0.0000   0.0000   0.0000   0.0000   0.0000
     0.0000   0.0000   0.0000   0.0000   0.0000

          k = 0.1667 0.0000-0.1432 ( 26772 PWs)   bands (ev):

   -68.3690 -68.2031 -68.0974 -67.9355 -52.3857 -35.1365 -35.1326 -35.0904
   -34.9685 -34.9637 -34.9293 -34.8738 -34.8368 -34.8360 -34.7118 -34.6753
   -34.6721 -28.6692 -28.6690 -28.6258 -23.7649 -23.5131 -15.3511 -15.3220
   -14.6305 -14.6061 -14.0924 -14.0583 -13.9381 -13.7584 -13.7189 -13.6920
   -13.6724 -13.4246 -13.2776 -13.2529 -13.2360 -13.1363 -13.0577 -13.0294
   -12.9258 -12.9003 -12.5392 -12.4669 -12.4155 -11.9955  -7.3036  -7.2503
    -7.2274  -7.0166  -6.9974  -6.9939  -4.4971  -4.4737  -2.9201  -2.8836
    -2.1880  -1.8843  -1.8558  -1.6484  -1.3681  -1.2622  -1.2195  -1.1549
    -1.1232  -0.9834  -0.7869  -0.6986  -0.4940  -0.3854  -0.1411  -0.0907
     0.0138   0.0657   0.1196   0.2894   0.3928   0.4849   0.6494   0.7291
     0.8792   0.9516   0.9956   1.1686   1.1922   1.2017   1.4341   1.5104
     1.5748   1.6735   1.7128   1.8254   1.8816   1.9374   2.0025   2.0863
     2.1234   2.1493   2.1740   2.3068   2.3255   2.4275   2.4690   2.5436
     2.5865   2.5907   2.6557   2.7427   2.8171   2.8718   2.9062   2.9372
     2.9677   3.0234   3.0924   3.1871   3.2405   3.3088   3.3760   3.4247
     3.4736   3.5436   3.6960   3.8026   7.2054   7.4341   7.6632   9.1759
     9.3762   9.8742  10.3749  11.0900  11.3418  11.4775  11.7453  11.7965
    12.0596  12.4467  12.5013  12.5647  12.6322  12.7494  12.8303  12.8914
    13.0869  13.1610  13.2224  13.3172  13.4465

     occupation numbers 
     1.0000   1.0000   1.0000   1.0000   1.0000   1.0000   1.0000   1.0000
     1.0000   1.0000   1.0000   1.0000   1.0000   1.0000   1.0000   1.0000
     1.0000   1.0000   1.0000   1.0000   1.0000   1.0000   1.0000   1.0000
     1.0000   1.0000   1.0000   1.0000   1.0000   1.0000   1.0000   1.0000
     1.0000   1.0000   1.0000   1.0000   1.0000   1.0000   1.0000   1.0000
     1.0000   1.0000   1.0000   1.0000   1.0000   1.0000   1.0000   1.0000
     1.0000   1.0000   1.0000   1.0000   1.0000   1.0000   1.0000   1.0000
     1.0000   1.0000   1.0000   1.0000   1.0000   1.0000   1.0000   1.0000
     1.0000   1.0000   1.0000   1.0000   1.0000   1.0000   1.0000   1.0000
     1.0000   1.0000   1.0000   1.0000   1.0000   1.0000   1.0000   1.0000
     1.0000   1.0000   1.0000   1.0000   1.0000   1.0000   1.0000   1.0000
     1.0000   1.0000   1.0000   1.0000   1.0000   1.0000   1.0000   1.0000
     1.0000   1.0000   1.0000   1.0000   1.0000   1.0000   1.0000   1.0000
     1.0000   1.0000   1.0000   1.0000   1.0000   1.0000   1.0000   1.0000
     1.0000   1.0000   1.0000   1.0000   1.0000   1.0000   1.0000   1.0000
     1.0000   1.0000   1.0000   1.0000   0.0000   0.0000   0.0000   0.0000
     0.0000   0.0000   0.0000   0.0000   0.0000   0.0000   0.0000   0.0000
     0.0000   0.0000   0.0000   0.0000   0.0000   0.0000   0.0000   0.0000
     0.0000   0.0000   0.0000   0.0000   0.0000

          k = 0.1667 0.1920 0.0298 ( 26762 PWs)   bands (ev):

   -68.3690 -68.2031 -68.0974 -67.9355 -52.3857 -35.1365 -35.1326 -35.0904
   -34.9684 -34.9637 -34.9293 -34.8738 -34.8368 -34.8360 -34.7118 -34.6753
   -34.6721 -28.6692 -28.6690 -28.6258 -23.7649 -23.5131 -15.3508 -15.3081
   -14.6755 -14.6261 -14.0662 -14.0255 -13.9199 -13.7775 -13.6951 -13.6694
   -13.6492 -13.4262 -13.3299 -13.3038 -13.2349 -13.1401 -13.0660 -12.9998
   -12.9305 -12.8940 -12.5375 -12.4627 -12.4158 -11.9945  -7.3035  -7.2504
    -7.2274  -7.0171  -6.9970  -6.9940  -4.4563  -4.4148  -3.1133  -3.0400
    -2.1558  -1.7442  -1.6698  -1.6114  -1.3547  -1.2898  -1.2681  -1.2302
    -1.1447  -0.9878  -0.7380  -0.6081  -0.5275  -0.3924  -0.1705  -0.0924
    -0.0043   0.0355   0.1792   0.2700   0.3444   0.4927   0.6063   0.7601
     0.8915   0.9971   1.0322   1.1225   1.2059   1.2740   1.4277   1.4933
     1.5393   1.6118   1.7380   1.7698   1.8414   1.9148   1.9912   2.0731
     2.1434   2.1789   2.2115   2.2639   2.3862   2.4232   2.4720   2.5343
     2.5851   2.6403   2.6885   2.7562   2.8489   2.9004   2.9771   2.9953
     3.0186   3.0459   3.0870   3.1377   3.2083   3.2491   3.3206   3.3441
     3.4653   3.5758   3.6345   3.7326   7.2161   7.4355   7.6611   9.2770
     9.3669  10.1413  10.2477  10.6665  11.2987  11.4101  11.7737  12.0062
    12.2263  12.2948  12.4861  12.5751  12.7051  12.7572  12.8447  12.9659
    13.0297  13.1467  13.2057  13.2922  13.3516

     occupation numbers 
     1.0000   1.0000   1.0000   1.0000   1.0000   1.0000   1.0000   1.0000
     1.0000   1.0000   1.0000   1.0000   1.0000   1.0000   1.0000   1.0000
     1.0000   1.0000   1.0000   1.0000   1.0000   1.0000   1.0000   1.0000
     1.0000   1.0000   1.0000   1.0000   1.0000   1.0000   1.0000   1.0000
     1.0000   1.0000   1.0000   1.0000   1.0000   1.0000   1.0000   1.0000
     1.0000   1.0000   1.0000   1.0000   1.0000   1.0000   1.0000   1.0000
     1.0000   1.0000   1.0000   1.0000   1.0000   1.0000   1.0000   1.0000
     1.0000   1.0000   1.0000   1.0000   1.0000   1.0000   1.0000   1.0000
     1.0000   1.0000   1.0000   1.0000   1.0000   1.0000   1.0000   1.0000
     1.0000   1.0000   1.0000   1.0000   1.0000   1.0000   1.0000   1.0000
     1.0000   1.0000   1.0000   1.0000   1.0000   1.0000   1.0000   1.0000
     1.0000   1.0000   1.0000   1.0000   1.0000   1.0000   1.0000   1.0000
     1.0000   1.0000   1.0000   1.0000   1.0000   1.0000   1.0000   1.0000
     1.0000   1.0000   1.0000   1.0000   1.0000   1.0000   1.0000   1.0000
     1.0000   1.0000   1.0000   1.0000   1.0000   1.0000   1.0000   1.0000
     1.0000   1.0000   1.0000   1.0000   0.0000   0.0000   0.0000   0.0000
     0.0000   0.0000   0.0000   0.0000   0.0000   0.0000   0.0000   0.0000
     0.0000   0.0000   0.0000   0.0000   0.0000   0.0000   0.0000   0.0000
     0.0000   0.0000   0.0000   0.0000   0.0000

          k = 0.1667 0.1920 0.2028 ( 26761 PWs)   bands (ev):

   -68.3690 -68.2031 -68.0974 -67.9355 -52.3857 -35.1365 -35.1326 -35.0904
   -34.9684 -34.9637 -34.9293 -34.8738 -34.8368 -34.8360 -34.7118 -34.6753
   -34.6721 -28.6692 -28.6690 -28.6258 -23.7649 -23.5131 -15.3381 -15.3215
   -14.6626 -14.6399 -14.0593 -14.0339 -13.9161 -13.7754 -13.7014 -13.6749
   -13.6400 -13.4262 -13.3320 -13.3015 -13.2325 -13.1429 -13.0585 -13.0065
   -12.9208 -12.9047 -12.5350 -12.4655 -12.4145 -11.9955  -7.3035  -7.2503
    -7.2273  -7.0171  -6.9970  -6.9940  -4.4600  -4.4110  -3.0977  -3.0566
    -2.1387  -1.7391  -1.6786  -1.6103  -1.3457  -1.3008  -1.2582  -1.2211
    -1.1177  -0.9688  -0.8029  -0.6510  -0.5118  -0.4429  -0.2036  -0.0871
    -0.0075   0.0436   0.1901   0.2704   0.3199   0.5039   0.5971   0.7740
     0.9397   1.0215   1.0792   1.1404   1.2239   1.3128   1.4106   1.5111
     1.5732   1.6247   1.7475   1.7900   1.8424   1.8963   1.9850   2.0197
     2.1149   2.1582   2.2127   2.2774   2.3769   2.4116   2.4573   2.4818
     2.5740   2.6221   2.6527   2.7814   2.8472   2.8955   2.9280   2.9737
     3.0122   3.0410   3.0881   3.1795   3.2448   3.2683   3.3369   3.3533
     3.4949   3.5675   3.6343   3.7227   7.2164   7.4372   7.6585   9.2772
     9.6167  10.0884  10.2296  10.5068  10.8566  11.4233  11.9774  12.1527
    12.2316  12.3415  12.4844  12.7013  12.7690  12.8286  12.8954  13.0074
    13.0981  13.1353  13.2103  13.2723  13.3040

     occupation numbers 
     1.0000   1.0000   1.0000   1.0000   1.0000   1.0000   1.0000   1.0000
     1.0000   1.0000   1.0000   1.0000   1.0000   1.0000   1.0000   1.0000
     1.0000   1.0000   1.0000   1.0000   1.0000   1.0000   1.0000   1.0000
     1.0000   1.0000   1.0000   1.0000   1.0000   1.0000   1.0000   1.0000
     1.0000   1.0000   1.0000   1.0000   1.0000   1.0000   1.0000   1.0000
     1.0000   1.0000   1.0000   1.0000   1.0000   1.0000   1.0000   1.0000
     1.0000   1.0000   1.0000   1.0000   1.0000   1.0000   1.0000   1.0000
     1.0000   1.0000   1.0000   1.0000   1.0000   1.0000   1.0000   1.0000
     1.0000   1.0000   1.0000   1.0000   1.0000   1.0000   1.0000   1.0000
     1.0000   1.0000   1.0000   1.0000   1.0000   1.0000   1.0000   1.0000
     1.0000   1.0000   1.0000   1.0000   1.0000   1.0000   1.0000   1.0000
     1.0000   1.0000   1.0000   1.0000   1.0000   1.0000   1.0000   1.0000
     1.0000   1.0000   1.0000   1.0000   1.0000   1.0000   1.0000   1.0000
     1.0000   1.0000   1.0000   1.0000   1.0000   1.0000   1.0000   1.0000
     1.0000   1.0000   1.0000   1.0000   1.0000   1.0000   1.0000   1.0000
     1.0000   1.0000   1.0000   1.0000   0.0000   0.0000   0.0000   0.0000
     0.0000   0.0000   0.0000   0.0000   0.0000   0.0000   0.0000   0.0000
     0.0000   0.0000   0.0000   0.0000   0.0000   0.0000   0.0000   0.0000
     0.0000   0.0000   0.0000   0.0000   0.0000

          k = 0.1667 0.1920-0.1432 ( 26775 PWs)   bands (ev):

   -68.3690 -68.2031 -68.0974 -67.9355 -52.3857 -35.1365 -35.1326 -35.0904
   -34.9685 -34.9637 -34.9293 -34.8738 -34.8368 -34.8360 -34.7118 -34.6753
   -34.6721 -28.6692 -28.6690 -28.6258 -23.7649 -23.5131 -15.3436 -15.3158
   -14.6669 -14.6355 -14.0559 -14.0377 -13.9164 -13.7771 -13.6987 -13.6682
   -13.6480 -13.4265 -13.3205 -13.3139 -13.2303 -13.1441 -13.0572 -13.0100
   -12.9215 -12.9013 -12.5342 -12.4659 -12.4154 -11.9949  -7.3036  -7.2503
    -7.2273  -7.0171  -6.9970  -6.9940  -4.4450  -4.4263  -3.0939  -3.0604
    -2.1448  -1.7419  -1.6755  -1.6092  -1.3525  -1.2941  -1.2573  -1.2124
    -1.1297  -1.0001  -0.7674  -0.6382  -0.5096  -0.4413  -0.1874  -0.0898
    -0.0144   0.0423   0.1941   0.2569   0.3577   0.4963   0.6049   0.7573
     0.9609   0.9954   1.0370   1.1712   1.2177   1.2542   1.4092   1.5171
     1.5477   1.6199   1.7406   1.7750   1.8486   1.9320   1.9889   2.0500
     2.1180   2.1834   2.2107   2.2811   2.3540   2.4139   2.4624   2.5213
     2.5811   2.6134   2.6621   2.7639   2.8432   2.8893   2.9323   2.9838
     3.0130   3.0401   3.1123   3.1693   3.2169   3.2612   3.3381   3.3709
     3.4703   3.5625   3.6659   3.6950   7.2174   7.4358   7.6621   9.2333
     9.5829  10.0474  10.3787  10.4484  11.0223  11.4657  11.9235  12.0717
    12.2064  12.3622  12.5418  12.5993  12.6940  12.8527  12.8957  12.9463
    13.0663  13.0768  13.1918  13.2666  13.3283

     occupation numbers 
     1.0000   1.0000   1.0000   1.0000   1.0000   1.0000   1.0000   1.0000
     1.0000   1.0000   1.0000   1.0000   1.0000   1.0000   1.0000   1.0000
     1.0000   1.0000   1.0000   1.0000   1.0000   1.0000   1.0000   1.0000
     1.0000   1.0000   1.0000   1.0000   1.0000   1.0000   1.0000   1.0000
     1.0000   1.0000   1.0000   1.0000   1.0000   1.0000   1.0000   1.0000
     1.0000   1.0000   1.0000   1.0000   1.0000   1.0000   1.0000   1.0000
     1.0000   1.0000   1.0000   1.0000   1.0000   1.0000   1.0000   1.0000
     1.0000   1.0000   1.0000   1.0000   1.0000   1.0000   1.0000   1.0000
     1.0000   1.0000   1.0000   1.0000   1.0000   1.0000   1.0000   1.0000
     1.0000   1.0000   1.0000   1.0000   1.0000   1.0000   1.0000   1.0000
     1.0000   1.0000   1.0000   1.0000   1.0000   1.0000   1.0000   1.0000
     1.0000   1.0000   1.0000   1.0000   1.0000   1.0000   1.0000   1.0000
     1.0000   1.0000   1.0000   1.0000   1.0000   1.0000   1.0000   1.0000
     1.0000   1.0000   1.0000   1.0000   1.0000   1.0000   1.0000   1.0000
     1.0000   1.0000   1.0000   1.0000   1.0000   1.0000   1.0000   1.0000
     1.0000   1.0000   1.0000   1.0000   0.0000   0.0000   0.0000   0.0000
     0.0000   0.0000   0.0000   0.0000   0.0000   0.0000   0.0000   0.0000
     0.0000   0.0000   0.0000   0.0000   0.0000   0.0000   0.0000   0.0000
     0.0000   0.0000   0.0000   0.0000   0.0000

          k = 0.3333 0.0000 0.0596 ( 26753 PWs)   bands (ev):

   -68.3690 -68.2031 -68.0974 -67.9355 -52.3857 -35.1364 -35.1327 -35.0903
   -34.9686 -34.9636 -34.9292 -34.8738 -34.8369 -34.8359 -34.7120 -34.6752
   -34.6722 -28.6693 -28.6689 -28.6259 -23.7647 -23.5129 -15.2250 -15.1852
   -14.6451 -14.6161 -14.2737 -14.2373 -13.9122 -13.7240 -13.6960 -13.6149
   -13.5857 -13.4796 -13.3219 -13.2870 -13.2494 -13.1505 -13.0721 -13.0462
   -12.9847 -12.9234 -12.5406 -12.4603 -12.3652 -12.0432  -7.3052  -7.2499
    -7.2256  -7.0211  -6.9965  -6.9902  -4.1278  -4.0727  -2.9303  -2.8554
    -2.2686  -2.1097  -1.8290  -1.6036  -1.3840  -1.3468  -1.2518  -1.1947
    -1.0150  -0.8867  -0.7852  -0.5795  -0.4132  -0.2963  -0.2498  -0.1869
    -0.0064   0.0486   0.1358   0.2401   0.3181   0.4833   0.5587   0.6605
     0.7386   0.9718   1.0371   1.1188   1.2250   1.2813   1.3170   1.4087
     1.5842   1.6626   1.7420   1.8417   1.8653   1.8918   1.9810   2.0480
     2.0811   2.1910   2.2673   2.3474   2.3590   2.4505   2.5077   2.5312
     2.5376   2.6092   2.7020   2.7287   2.7711   2.8163   2.8361   2.9388
     2.9481   3.0159   3.0420   3.1210   3.1418   3.2089   3.2275   3.3002
     3.4569   3.4917   3.6396   3.8169   7.2175   7.4871   7.5862   9.3904
     9.6501  10.1520  10.8655  11.1732  11.5270  11.6762  11.8066  11.8933
    12.1963  12.2361  12.2815  12.5188  12.5927  12.8402  12.9116  12.9753
    13.0650  13.1430  13.1761  13.2956  13.3581

     occupation numbers 
     1.0000   1.0000   1.0000   1.0000   1.0000   1.0000   1.0000   1.0000
     1.0000   1.0000   1.0000   1.0000   1.0000   1.0000   1.0000   1.0000
     1.0000   1.0000   1.0000   1.0000   1.0000   1.0000   1.0000   1.0000
     1.0000   1.0000   1.0000   1.0000   1.0000   1.0000   1.0000   1.0000
     1.0000   1.0000   1.0000   1.0000   1.0000   1.0000   1.0000   1.0000
     1.0000   1.0000   1.0000   1.0000   1.0000   1.0000   1.0000   1.0000
     1.0000   1.0000   1.0000   1.0000   1.0000   1.0000   1.0000   1.0000
     1.0000   1.0000   1.0000   1.0000   1.0000   1.0000   1.0000   1.0000
     1.0000   1.0000   1.0000   1.0000   1.0000   1.0000   1.0000   1.0000
     1.0000   1.0000   1.0000   1.0000   1.0000   1.0000   1.0000   1.0000
     1.0000   1.0000   1.0000   1.0000   1.0000   1.0000   1.0000   1.0000
     1.0000   1.0000   1.0000   1.0000   1.0000   1.0000   1.0000   1.0000
     1.0000   1.0000   1.0000   1.0000   1.0000   1.0000   1.0000   1.0000
     1.0000   1.0000   1.0000   1.0000   1.0000   1.0000   1.0000   1.0000
     1.0000   1.0000   1.0000   1.0000   1.0000   1.0000   1.0000   1.0000
     1.0000   1.0000   1.0000   1.0000   0.0000   0.0000   0.0000   0.0000
     0.0000   0.0000   0.0000   0.0000   0.0000   0.0000   0.0000   0.0000
     0.0000   0.0000   0.0000   0.0000   0.0000   0.0000   0.0000   0.0000
     0.0000   0.0000   0.0000   0.0000   0.0000

          k = 0.3333 0.0000 0.2326 ( 26737 PWs)   bands (ev):

   -68.3690 -68.2031 -68.0974 -67.9355 -52.3857 -35.1364 -35.1327 -35.0903
   -34.9686 -34.9636 -34.9292 -34.8738 -34.8369 -34.8359 -34.7120 -34.6752
   -34.6722 -28.6693 -28.6689 -28.6259 -23.7647 -23.5129 -15.2107 -15.2001
   -14.6407 -14.6207 -14.2631 -14.2485 -13.9103 -13.7246 -13.6959 -13.6164
   -13.5853 -13.4799 -13.3181 -13.2889 -13.2486 -13.1536 -13.0669 -13.0480
   -12.9743 -12.9357 -12.5374 -12.4637 -12.3646 -12.0437  -7.3052  -7.2498
    -7.2256  -7.0211  -6.9965  -6.9902  -4.1308  -4.0698  -2.9117  -2.8750
    -2.2478  -2.1379  -1.8113  -1.6046  -1.3799  -1.3470  -1.2388  -1.1995
    -0.9822  -0.8662  -0.8257  -0.6375  -0.4245  -0.3157  -0.2672  -0.1447
    -0.0028   0.0500   0.1084   0.2267   0.3306   0.5140   0.5448   0.6720
     0.7364   0.9686   0.9974   1.1780   1.2257   1.3179   1.3615   1.4204
     1.5954   1.6586   1.7529   1.8163   1.8455   1.9287   1.9777   2.0241
     2.0858   2.1906   2.2386   2.3251   2.4050   2.4181   2.5019   2.5236
     2.5424   2.5896   2.6878   2.7293   2.7640   2.8073   2.8303   2.9048
     2.9118   3.0077   3.0460   3.1058   3.1694   3.2223   3.2619   3.3365
     3.4498   3.5315   3.6202   3.8128   7.2165   7.4878   7.5871   9.3855
     9.7765  10.3096  10.4203  11.2197  11.5164  11.6389  11.7866  12.0157
    12.1261  12.2146  12.3094  12.5654  12.7730  12.8495  12.8943  12.9781
    13.0157  13.1710  13.2052  13.3083  13.4065

     occupation numbers 
     1.0000   1.0000   1.0000   1.0000   1.0000   1.0000   1.0000   1.0000
     1.0000   1.0000   1.0000   1.0000   1.0000   1.0000   1.0000   1.0000
     1.0000   1.0000   1.0000   1.0000   1.0000   1.0000   1.0000   1.0000
     1.0000   1.0000   1.0000   1.0000   1.0000   1.0000   1.0000   1.0000
     1.0000   1.0000   1.0000   1.0000   1.0000   1.0000   1.0000   1.0000
     1.0000   1.0000   1.0000   1.0000   1.0000   1.0000   1.0000   1.0000
     1.0000   1.0000   1.0000   1.0000   1.0000   1.0000   1.0000   1.0000
     1.0000   1.0000   1.0000   1.0000   1.0000   1.0000   1.0000   1.0000
     1.0000   1.0000   1.0000   1.0000   1.0000   1.0000   1.0000   1.0000
     1.0000   1.0000   1.0000   1.0000   1.0000   1.0000   1.0000   1.0000
     1.0000   1.0000   1.0000   1.0000   1.0000   1.0000   1.0000   1.0000
     1.0000   1.0000   1.0000   1.0000   1.0000   1.0000   1.0000   1.0000
     1.0000   1.0000   1.0000   1.0000   1.0000   1.0000   1.0000   1.0000
     1.0000   1.0000   1.0000   1.0000   1.0000   1.0000   1.0000   1.0000
     1.0000   1.0000   1.0000   1.0000   1.0000   1.0000   1.0000   1.0000
     1.0000   1.0000   1.0000   1.0000   0.0000   0.0000   0.0000   0.0000
     0.0000   0.0000   0.0000   0.0000   0.0000   0.0000   0.0000   0.0000
     0.0000   0.0000   0.0000   0.0000   0.0000   0.0000   0.0000   0.0000
     0.0000   0.0000   0.0000   0.0000   0.0000

          k = 0.3333 0.0000-0.1134 ( 26755 PWs)   bands (ev):

   -68.3690 -68.2031 -68.0974 -67.9355 -52.3857 -35.1364 -35.1327 -35.0903
   -34.9686 -34.9636 -34.9292 -34.8738 -34.8369 -34.8359 -34.7120 -34.6752
   -34.6722 -28.6693 -28.6689 -28.6259 -23.7647 -23.5129 -15.2201 -15.1903
   -14.6400 -14.6214 -14.2666 -14.2448 -13.9111 -13.7262 -13.6960 -13.6030
   -13.5970 -13.4797 -13.3074 -13.3009 -13.2465 -13.1541 -13.0626 -13.0548
   -12.9770 -12.9303 -12.5366 -12.4641 -12.3663 -12.0425  -7.3053  -7.2498
    -7.2256  -7.0211  -6.9965  -6.9903  -4.1041  -4.0971  -2.9206  -2.8660
    -2.2568  -2.1237  -1.8268  -1.6047  -1.3814  -1.3276  -1.2669  -1.1760
    -0.9990  -0.9102  -0.7898  -0.6055  -0.3972  -0.3201  -0.2442  -0.1924
     0.0077   0.0334   0.1117   0.2412   0.3413   0.5076   0.5342   0.6673
     0.7819   0.9701   1.0129   1.1506   1.2024   1.2704   1.3315   1.3960
     1.5609   1.7103   1.7395   1.8248   1.8594   1.8891   1.9836   2.0651
     2.1095   2.2118   2.2576   2.3310   2.4008   2.4359   2.4966   2.5227
     2.5733   2.5944   2.7012   2.7372   2.7436   2.8070   2.8421   2.8884
     2.9084   2.9337   3.0493   3.1071   3.1811   3.2191   3.2693   3.3314
     3.4659   3.4853   3.6600   3.8025   7.2171   7.4867   7.5892   9.3856
     9.8139   9.9709  10.8139  11.2511  11.5730  11.7113  11.7822  11.9059
    12.2126  12.2695  12.2793  12.5243  12.5976  12.6165  12.8401  12.9322
    13.0656  13.1293  13.2192  13.2823  13.4583

     occupation numbers 
     1.0000   1.0000   1.0000   1.0000   1.0000   1.0000   1.0000   1.0000
     1.0000   1.0000   1.0000   1.0000   1.0000   1.0000   1.0000   1.0000
     1.0000   1.0000   1.0000   1.0000   1.0000   1.0000   1.0000   1.0000
     1.0000   1.0000   1.0000   1.0000   1.0000   1.0000   1.0000   1.0000
     1.0000   1.0000   1.0000   1.0000   1.0000   1.0000   1.0000   1.0000
     1.0000   1.0000   1.0000   1.0000   1.0000   1.0000   1.0000   1.0000
     1.0000   1.0000   1.0000   1.0000   1.0000   1.0000   1.0000   1.0000
     1.0000   1.0000   1.0000   1.0000   1.0000   1.0000   1.0000   1.0000
     1.0000   1.0000   1.0000   1.0000   1.0000   1.0000   1.0000   1.0000
     1.0000   1.0000   1.0000   1.0000   1.0000   1.0000   1.0000   1.0000
     1.0000   1.0000   1.0000   1.0000   1.0000   1.0000   1.0000   1.0000
     1.0000   1.0000   1.0000   1.0000   1.0000   1.0000   1.0000   1.0000
     1.0000   1.0000   1.0000   1.0000   1.0000   1.0000   1.0000   1.0000
     1.0000   1.0000   1.0000   1.0000   1.0000   1.0000   1.0000   1.0000
     1.0000   1.0000   1.0000   1.0000   1.0000   1.0000   1.0000   1.0000
     1.0000   1.0000   1.0000   1.0000   0.0000   0.0000   0.0000   0.0000
     0.0000   0.0000   0.0000   0.0000   0.0000   0.0000   0.0000   0.0000
     0.0000   0.0000   0.0000   0.0000   0.0000   0.0000   0.0000   0.0000
     0.0000   0.0000   0.0000   0.0000   0.0000

          k = 0.3333 0.1920 0.0596 ( 26747 PWs)   bands (ev):

   -68.3690 -68.2031 -68.0974 -67.9355 -52.3857 -35.1364 -35.1327 -35.0903
   -34.9686 -34.9636 -34.9292 -34.8738 -34.8369 -34.8359 -34.7120 -34.6751
   -34.6722 -28.6693 -28.6689 -28.6259 -23.7647 -23.5129 -15.2196 -15.1812
   -14.6653 -14.6314 -14.2643 -14.2261 -13.8889 -13.7375 -13.6981 -13.5986
   -13.5654 -13.4888 -13.3424 -13.3180 -13.2464 -13.1482 -13.0686 -13.0345
   -12.9818 -12.9246 -12.5406 -12.4608 -12.3651 -12.0430  -7.3053  -7.2499
    -7.2255  -7.0218  -6.9960  -6.9903  -4.0988  -4.0433  -3.0570  -2.9931
    -2.1776  -1.9735  -1.7771  -1.6024  -1.3615  -1.3248  -1.2522  -1.2140
    -1.0429  -0.9050  -0.7474  -0.5649  -0.4249  -0.3429  -0.2650  -0.2023
     0.0004   0.0271   0.0728   0.2486   0.3372   0.4527   0.5761   0.7538
[...]
     atom    4 type  5   force =    -0.00000140    0.00004811    0.00000144
     atom    5 type  5   force =    -0.00000214   -0.00017710    0.00000144
     atom    6 type  5   force =    -0.00000214   -0.00019991    0.00000144
     atom    7 type  7   force =     0.00154911    0.01052619   -0.00207777
     atom    8 type  7   force =    -0.00154795    0.01052620    0.00207728
     atom    9 type  7   force =     0.00077617    0.00142603   -0.01201047
     atom   10 type  7   force =    -0.00077531    0.00142602    0.01200964
     atom   11 type  7   force =    -0.00010220   -0.00946796    0.01672563
     atom   12 type  7   force =     0.00010280   -0.00946788   -0.01672645
     atom   13 type  1   force =    -0.00167017   -0.00321909   -0.00249241
     atom   14 type  1   force =     0.00167083   -0.00321909    0.00249191
     atom   15 type  6   force =     0.00007507   -0.00058301    0.00580267
     atom   16 type  6   force =    -0.00007477   -0.00058305   -0.00580265
     atom   17 type  6   force =    -0.00003581   -0.00000280   -0.00688868
     atom   18 type  6   force =     0.00003614   -0.00000279    0.00688866
     atom   19 type  6   force =    -0.00059614   -0.00128061    0.00776575
     atom   20 type  6   force =     0.00059643   -0.00128064   -0.00776581
     atom   21 type  6   force =     0.00140125    0.00098709   -0.00306313
     atom   22 type  6   force =    -0.00140102    0.00098707    0.00306300
     atom   23 type  6   force =     0.00479856   -0.00187326   -0.00537409
     atom   24 type  6   force =    -0.00479852   -0.00187318    0.00537389
     atom   25 type  6   force =    -0.00325373    0.00047406   -0.00676440
     atom   26 type  6   force =     0.00325412    0.00047406    0.00676412
     atom   27 type  6   force =    -0.00179755    0.00209609    0.00739671
     atom   28 type  6   force =     0.00179756    0.00209625   -0.00739690
     atom   29 type  6   force =     0.00045937   -0.00184124   -0.00796536
     atom   30 type  6   force =    -0.00045935   -0.00184106    0.00796516
     atom   31 type  6   force =    -0.00252772   -0.00300971   -0.00637199
     atom   32 type  6   force =     0.00252803   -0.00300973    0.00637177
     atom   33 type  6   force =     0.00129412    0.00368566    0.00718209
     atom   34 type  6   force =    -0.00129393    0.00368575   -0.00718234
     atom   35 type  6   force =    -0.01072651    0.00110988   -0.00563534
     atom   36 type  6   force =     0.01072633    0.00110995    0.00563508
     atom   37 type  6   force =    -0.00081960   -0.00136046    0.01116649
     atom   38 type  6   force =     0.00082010   -0.00136042   -0.01116631
     atom   39 type  3   force =     0.00000000    0.00000000    0.00000000
     atom   40 type  3   force =     0.00000000    0.00000000    0.00000000
     atom   41 type  3   force =     0.00000000    0.00000000    0.00000000
     atom   42 type  3   force =     0.00000000    0.00000000    0.00000000
     atom   43 type  2   force =     0.00000466   -0.00471450   -0.00000479
     The Hubbard contrib.    to forces
     atom    1 type  4   force =     0.00000000    0.00000000    0.00000000
     atom    2 type  4   force =     0.00000000    0.00000000    0.00000000
     atom    3 type  5   force =     0.00000000    0.00000000    0.00000000
     atom    4 type  5   force =     0.00000000    0.00000000    0.00000000
     atom    5 type  5   force =     0.00000000    0.00000000    0.00000000
     atom    6 type  5   force =     0.00000000    0.00000000    0.00000000
     atom    7 type  7   force =     0.00000000    0.00000000    0.00000000
     atom    8 type  7   force =     0.00000000    0.00000000    0.00000000
     atom    9 type  7   force =     0.00000000    0.00000000    0.00000000
     atom   10 type  7   force =     0.00000000    0.00000000    0.00000000
     atom   11 type  7   force =     0.00000000    0.00000000    0.00000000
     atom   12 type  7   force =     0.00000000    0.00000000    0.00000000
     atom   13 type  1   force =     0.00000000    0.00000000    0.00000000
     atom   14 type  1   force =     0.00000000    0.00000000    0.00000000
     atom   15 type  6   force =     0.00000000    0.00000000    0.00000000
     atom   16 type  6   force =     0.00000000    0.00000000    0.00000000
     atom   17 type  6   force =     0.00000000    0.00000000    0.00000000
     atom   18 type  6   force =     0.00000000    0.00000000    0.00000000
     atom   19 type  6   force =     0.00000000    0.00000000    0.00000000
     atom   20 type  6   force =     0.00000000    0.00000000    0.00000000
     atom   21 type  6   force =     0.00000000    0.00000000    0.00000000
     atom   22 type  6   force =     0.00000000    0.00000000    0.00000000
     atom   23 type  6   force =     0.00000000    0.00000000    0.00000000
     atom   24 type  6   force =     0.00000000    0.00000000    0.00000000
     atom   25 type  6   force =     0.00000000    0.00000000    0.00000000
     atom   26 type  6   force =     0.00000000    0.00000000    0.00000000
     atom   27 type  6   force =     0.00000000    0.00000000    0.00000000
     atom   28 type  6   force =     0.00000000    0.00000000    0.00000000
     atom   29 type  6   force =     0.00000000    0.00000000    0.00000000
     atom   30 type  6   force =     0.00000000    0.00000000    0.00000000
     atom   31 type  6   force =     0.00000000    0.00000000    0.00000000
     atom   32 type  6   force =     0.00000000    0.00000000    0.00000000
     atom   33 type  6   force =     0.00000000    0.00000000    0.00000000
     atom   34 type  6   force =     0.00000000    0.00000000    0.00000000
     atom   35 type  6   force =     0.00000000    0.00000000    0.00000000
     atom   36 type  6   force =     0.00000000    0.00000000    0.00000000
     atom   37 type  6   force =     0.00000000    0.00000000    0.00000000
     atom   38 type  6   force =     0.00000000    0.00000000    0.00000000
     atom   39 type  3   force =     0.00000000    0.00000000    0.00000000
     atom   40 type  3   force =     0.00000000    0.00000000    0.00000000
     atom   41 type  3   force =     0.00000000    0.00000000    0.00000000
     atom   42 type  3   force =     0.00000000    0.00000000    0.00000000
     atom   43 type  2   force =     0.00000000    0.00000000    0.00000000
     The SCF correction term to forces
     atom    1 type  4   force =     0.00000000   -0.00000613   -0.00000000
     atom    2 type  4   force =    -0.00000000    0.00000376   -0.00000000
     atom    3 type  5   force =    -0.00000000    0.00002940    0.00000000
     atom    4 type  5   force =    -0.00000000   -0.00002234    0.00000000
     atom    5 type  5   force =    -0.00000000    0.00000882    0.00000000
     atom    6 type  5   force =    -0.00000000    0.00001845    0.00000000
     atom    7 type  7   force =    -0.00000184    0.00000551    0.00001121
     atom    8 type  7   force =     0.00000184    0.00000551   -0.00001121
     atom    9 type  7   force =     0.00000035   -0.00000050   -0.00000420
     atom   10 type  7   force =    -0.00000035   -0.00000050    0.00000420
     atom   11 type  7   force =     0.00000059   -0.00000351    0.00000326
     atom   12 type  7   force =    -0.00000059   -0.00000351   -0.00000326
     atom   13 type  1   force =    -0.00000157    0.00000101   -0.00000374
     atom   14 type  1   force =     0.00000157    0.00000101    0.00000374
     atom   15 type  6   force =    -0.00001007    0.00001748    0.00002065
     atom   16 type  6   force =     0.00001007    0.00001748   -0.00002065
     atom   17 type  6   force =    -0.00000026    0.00000306    0.00001085
     atom   18 type  6   force =     0.00000026    0.00000306   -0.00001085
     atom   19 type  6   force =     0.00000210   -0.00000343   -0.00000836
     atom   20 type  6   force =    -0.00000210   -0.00000343    0.00000836
     atom   21 type  6   force =    -0.00001677   -0.00000074   -0.00001349
     atom   22 type  6   force =     0.00001677   -0.00000074    0.00001349
     atom   23 type  6   force =     0.00000012    0.00000516    0.00000448
     atom   24 type  6   force =    -0.00000012    0.00000516   -0.00000448
     atom   25 type  6   force =     0.00000073   -0.00000323    0.00000925
     atom   26 type  6   force =    -0.00000073   -0.00000323   -0.00000925
     atom   27 type  6   force =    -0.00000025   -0.00000154   -0.00001069
     atom   28 type  6   force =     0.00000025   -0.00000154    0.00001069
     atom   29 type  6   force =    -0.00000102   -0.00000149    0.00001106
     atom   30 type  6   force =     0.00000102   -0.00000149   -0.00001106
     atom   31 type  6   force =     0.00000135   -0.00000635    0.00000176
     atom   32 type  6   force =    -0.00000135   -0.00000635   -0.00000176
     atom   33 type  6   force =     0.00000138    0.00000595   -0.00000588
     atom   34 type  6   force =    -0.00000138    0.00000595    0.00000588
     atom   35 type  6   force =    -0.00001476   -0.00002129    0.00000793
     atom   36 type  6   force =     0.00001476   -0.00002129   -0.00000793
     atom   37 type  6   force =     0.00000119    0.00000552    0.00000002
     atom   38 type  6   force =    -0.00000119    0.00000552   -0.00000002
     atom   39 type  3   force =    -0.00000150   -0.00000199    0.00000054
     atom   40 type  3   force =     0.00000150   -0.00000199   -0.00000054
     atom   41 type  3   force =     0.00000015    0.00000044    0.00000088
     atom   42 type  3   force =    -0.00000015    0.00000044   -0.00000088
     atom   43 type  2   force =    -0.00000000   -0.00001515    0.00000000

     DFT-D3 dispersion contribution to forces:
     atom    1 type  4   force =     0.00000001    0.00065923   -0.00000000
     atom    2 type  4   force =     0.00000000   -0.00074163    0.00000000
     atom    3 type  5   force =    -0.00000000   -0.00015481    0.00000000
     atom    4 type  5   force =    -0.00000000   -0.00146597   -0.00000000
     atom    5 type  5   force =     0.00000000   -0.00021452    0.00000000
     atom    6 type  5   force =     0.00000000    0.00039661   -0.00000000
     atom    7 type  7   force =     0.00004774   -0.00032345   -0.00053158
     atom    8 type  7   force =    -0.00004773   -0.00032345    0.00053158
     atom    9 type  7   force =     0.00000270    0.00033735    0.00048377
     atom   10 type  7   force =    -0.00000269    0.00033735   -0.00048377
     atom   11 type  7   force =    -0.00032695   -0.00038888    0.00068336
     atom   12 type  7   force =     0.00032695   -0.00038888   -0.00068337
     atom   13 type  1   force =     0.00032706    0.00045912   -0.00184057
     atom   14 type  1   force =    -0.00032706    0.00045912    0.00184058
     atom   15 type  6   force =     0.00017433   -0.00027074    0.00032707
     atom   16 type  6   force =    -0.00017433   -0.00027074   -0.00032708
     atom   17 type  6   force =    -0.00005418    0.00015530   -0.00038853
     atom   18 type  6   force =     0.00005418    0.00015530    0.00038853
     atom   19 type  6   force =    -0.00011194    0.00007319    0.00058440
     atom   20 type  6   force =     0.00011194    0.00007319   -0.00058440
     atom   21 type  6   force =     0.00039578    0.00010885    0.00001067
     atom   22 type  6   force =    -0.00039578    0.00010885   -0.00001067
     atom   23 type  6   force =    -0.00020710    0.00096286    0.00020305
     atom   24 type  6   force =     0.00020710    0.00096286   -0.00020306
     atom   25 type  6   force =     0.00080415    0.00005912    0.00017282
     atom   26 type  6   force =    -0.00080416    0.00005913   -0.00017282
     atom   27 type  6   force =     0.00035821   -0.00050549   -0.00008247
     atom   28 type  6   force =    -0.00035821   -0.00050549    0.00008247
     atom   29 type  6   force =    -0.00026471    0.00052907    0.00011339
     atom   30 type  6   force =     0.00026471    0.00052907   -0.00011338
     atom   31 type  6   force =     0.00074806   -0.00047855    0.00052985
     atom   32 type  6   force =    -0.00074807   -0.00047855   -0.00052985
     atom   33 type  6   force =     0.00054146   -0.00056781   -0.00027727
     atom   34 type  6   force =    -0.00054146   -0.00056781    0.00027726
     atom   35 type  6   force =     0.00041832    0.00022591   -0.00031733
     atom   36 type  6   force =    -0.00041832    0.00022591    0.00031733
     atom   37 type  6   force =     0.00009893    0.00002999   -0.00058523
     atom   38 type  6   force =    -0.00009893    0.00003000    0.00058523
     atom   39 type  3   force =     0.00093144   -0.00022631    0.00011727
     atom   40 type  3   force =    -0.00093144   -0.00022632   -0.00011727
     atom   41 type  3   force =    -0.00002217   -0.00036639   -0.00029674
     atom   42 type  3   force =     0.00002217   -0.00036639    0.00029673
     atom   43 type  2   force =    -0.00000000    0.00189482   -0.00000000

     Total force =     0.003557     Total SCF correction =     0.000090

     DFT-D3 dispersion Force =     0.005586


     Computing stress (Cartesian axis) and pressure

          total   stress  (Ry/bohr**3)                   (kbar)     P=        0.13
   0.00000100   0.00000000  -0.00000155            0.15        0.00       -0.23
   0.00000000   0.00000315   0.00000000            0.00        0.46        0.00
  -0.00000155   0.00000000  -0.00000159           -0.23        0.00       -0.23

     kinetic stress (kbar)  18398.38      0.00     -2.71
                                0.00  18539.64      0.00
                               -2.71      0.00  18392.08

     local   stress (kbar) -29905.21      0.00   -709.23
                                0.00 -27781.62     -0.00
                             -709.23     -0.00   7197.01

     nonloc. stress (kbar)   3891.05      0.00     -4.46
                                0.00   3908.17      0.00
                               -4.46      0.00   3896.30

     hartree stress (kbar)  16500.98      0.00    259.79
                                0.00  15653.14      0.00
                              259.79      0.00  -1396.24

     exc-cor stress (kbar)  -2356.65      0.00      1.05
                                0.00  -2360.14      0.00
                                1.05      0.00  -2358.84

     corecor stress (kbar)  -1983.75     -0.00     -0.26
                               -0.00  -1984.29     -0.00
                               -0.26     -0.00  -1985.02

     ewald   stress (kbar)  -4530.32     -0.00    455.40
                               -0.00  -5959.80      0.00
                              455.40      0.00 -23733.96

     hubbard stress (kbar)      0.00      0.00      0.00
                                0.00      0.00      0.00
                                0.00      0.00      0.00

     DFT-D   stress (kbar)    -14.33      0.00      0.17
                                0.00    -14.63     -0.00
                                0.17     -0.00    -11.58

     XDM     stress (kbar)      0.00      0.00      0.00
                                0.00      0.00      0.00
                                0.00      0.00      0.00

     dft-nl  stress (kbar)      0.00      0.00      0.00
                                0.00      0.00      0.00
                                0.00      0.00      0.00

     TS-vdW  stress (kbar)      0.00      0.00      0.00
                                0.00      0.00      0.00
                                0.00      0.00      0.00

     MDB     stress (kbar)      0.00      0.00      0.00
                                0.00      0.00      0.00
                                0.00      0.00      0.00

     3D-RISM stress (kbar)      0.00      0.00      0.00
                                0.00      0.00      0.00
                                0.00      0.00      0.00


     Writing all to output data dir ./temp/phl-ti1-ti2-v4.save/ :
     XML data file, charge density, pseudopotentials, collected wavefunctions

     init_run     :    666.90s CPU    674.63s WALL (       2 calls)
     electrons    : 183849.83s CPU 184878.40s WALL (      14 calls)
     update_pot   :     26.44s CPU     27.10s WALL (      12 calls)
     forces       :   3597.78s CPU   3613.92s WALL (      14 calls)
     force_dftd3  :     33.35s CPU     33.45s WALL (      14 calls)
     stress       :   5659.80s CPU   5724.02s WALL (      14 calls)
     stres_dftd3  :     33.42s CPU     33.53s WALL (      14 calls)

     Called by init_run:
     wfcinit      :    646.29s CPU    652.24s WALL (       2 calls)
     wfcinit:atom :      1.12s CPU      1.13s WALL (      80 calls)
     wfcinit:wfcr :    638.74s CPU    644.62s WALL (      80 calls)
     potinit      :      4.33s CPU      4.51s WALL (       2 calls)
     hinit0       :      1.58s CPU      1.71s WALL (       2 calls)

     Called by electrons:
     c_bands      : 168684.49s CPU 169462.24s WALL (     142 calls)
     sum_band     :  13949.43s CPU  14118.64s WALL (     142 calls)
     v_of_rho     :     92.90s CPU     97.21s WALL (     144 calls)
     v_h          :      5.23s CPU      5.45s WALL (     144 calls)
     v_xc         :    104.88s CPU    109.74s WALL (     172 calls)
     newd         :   1000.86s CPU   1084.89s WALL (     144 calls)
     PAW_pot      :    203.82s CPU    204.08s WALL (     156 calls)
     mix_rho      :     20.64s CPU     21.37s WALL (     142 calls)
     energy_dftd3 :     26.10s CPU     26.12s WALL (      14 calls)

     Called by c_bands:
     init_us_2    :    524.64s CPU    528.71s WALL (   13040 calls)
     cegterg      : 168138.93s CPU 168909.51s WALL (    5727 calls)

     Called by sum_band:
     sum_band:wei :      0.05s CPU      0.05s WALL (     142 calls)
     sum_band:loo :  11545.62s CPU  11617.82s WALL (     142 calls)
     sum_band:buf :     67.94s CPU     68.51s WALL (    5680 calls)
     sum_band:ini :    235.42s CPU    236.80s WALL (    5680 calls)
     sum_band:cal :   8857.49s CPU   8870.57s WALL (    6160 calls)
     sum_band:bec :     10.36s CPU     10.41s WALL (    6160 calls)
     addusdens    :   2383.84s CPU   2479.74s WALL (     142 calls)
                                        0.00s GPU  (     142 calls)
     addusd:skk   :      7.29s CPU      9.68s WALL (     994 calls)
                                        0.00s GPU  (     994 calls)

     Called by *egterg:
     cdiaghg      :   2278.98s CPU   2282.09s WALL (   39262 calls)
     cegterg:over :  20334.33s CPU  20379.92s WALL (   34542 calls)
     cegterg:upda :  12883.85s CPU  12924.15s WALL (   34542 calls)
     cegterg:last :  35373.59s CPU  35439.70s WALL (   16546 calls)
     h_psi        :  65246.00s CPU  65726.68s WALL (   40349 calls)
     s_psi        :  26448.92s CPU  26495.39s WALL (   40349 calls)
     g_psi        :     40.58s CPU     40.72s WALL (   34542 calls)

     Called by h_psi:
     h_psi:calbec :  26245.80s CPU  26297.40s WALL (   40349 calls)
     vloc_psi     :  12371.17s CPU  12711.71s WALL (   40349 calls)
     add_vuspsi   :  26473.74s CPU  26520.07s WALL (   40349 calls)

     General routines
     calbec       :  39140.67s CPU  39211.77s WALL (   49309 calls)
     fft          :     83.03s CPU     88.69s WALL (    4168 calls)
     ffts         :      2.20s CPU      2.33s WALL (     572 calls)
     fftw         :   7549.24s CPU   7713.53s WALL ( 6284726 calls)
     interpolate  :      8.72s CPU      9.14s WALL (     288 calls)

     Parallel routines

     PAW routines
     PAW_pot      :    203.82s CPU    204.08s WALL (     156 calls)
     PAW_symme    :      0.11s CPU      0.12s WALL (     298 calls)

     PWSCF        :   2d 6h 3m CPU   2d 6h22m WALL


   This run was terminated on:  13:40:16   4Apr2025            

=------------------------------------------------------------------------------=
   JOB DONE.
=------------------------------------------------------------------------------=
