
     Program PWSCF v.7.3.1 starts on 14Jan2025 at 11:43:26 

     This program is part of the open-source Quantum ESPRESSO suite
     for quantum simulation of materials; please cite
         "P. Giannozzi et al., J. Phys.:Condens. Matter 21 395502 (2009);
         "P. Giannozzi et al., J. Phys.:Condens. Matter 29 465901 (2017);
         "P. Giannozzi et al., J. Chem. Phys. 152 154105 (2020);
          URL http://www.quantum-espresso.org", 
     in publications or presentations arising from this work. More details at
     http://www.quantum-espresso.org/quote

     Parallel version (MPI), running on     6 processors

     MPI processes distributed on     1 nodes
     497 MiB available memory on the printing compute node when the environment starts

     Reading input from relax.in
Warning: card  &CELL ignored
Warning: card    CELL_DOFREE     = 'IBRAV' ignored
Warning: card  / ignored

     Current dimensions of program PWSCF are:
     Max number of different atomic species (ntypx) = 10
     Max number of k-points (npk) =  40000
     Max angular momentum in pseudopotentials (lmaxx) =  4
     file Al.pbe-n-kjpaw_psl.1.0.0.UPF: wavefunction(s)  3S 3P renormalized
     file Fe.pbe-spn-kjpaw_psl.1.0.0.UPF: wavefunction(s)  3P 3D renormalized
     file H.pbe-kjpaw_psl.1.0.0.UPF: wavefunction(s)  1S renormalized
     file K.pbe-spn-kjpaw_psl.1.0.0.UPF: wavefunction(s)  3S renormalized
     file Mg.pbe-spnl-kjpaw_psl.1.0.0.UPF: wavefunction(s)  2P renormalized
     file O.pbe-n-kjpaw_psl.1.0.0.UPF: wavefunction(s)  2S 2P renormalized
     file Si.pbe-n-kjpaw_psl.1.0.0.UPF: wavefunction(s)  3S 3P renormalized

     R & G space division:  proc/nbgrp/npool/nimage =       6
     Subspace diagonalization in iterative solution of the eigenvalue problem:
     one sub-group per band group will be used
     custom distributed-memory algorithm (size of sub-group:  2*  2 procs)


     Parallelization info
     --------------------
     sticks:   dense  smooth     PW     G-vecs:    dense   smooth      PW
     Min        1105     554    150                97744    34578    4918
     Max        1106     555    151                97745    34580    4920
     Sum        6633    3329    905               586467   207475   29511

     Using Slab Decomposition



     bravais-lattice index     =          -12
     lattice parameter (alat)  =      10.0136  a.u.
     unit-cell volume          =    3303.4414 (a.u.)^3
     number of atoms/cell      =           44
     number of atomic types    =            7
     number of electrons       =       262.00
     number of Kohn-Sham states=          157
     kinetic-energy cutoff     =      60.0000  Ry
     charge density cutoff     =     480.0000  Ry
     scf convergence threshold =      1.0E-06
     mixing beta               =       0.7000
     number of iterations used =            8  plain     mixing
     energy convergence thresh.=      1.0E-04
     force convergence thresh. =      1.0E-03
     Exchange-correlation= SLA  PW   PBX  PBC
                           (   1   4   3   4   0   0   0)
     nstep                     =           50


     celldm(1)=  10.013640  celldm(2)=   1.735306  celldm(3)=   1.926511
     celldm(4)=   0.000000  celldm(5)=  -0.177565  celldm(6)=   0.000000

     crystal axes: (cart. coord. in units of alat)
               a(1) = (   1.000000   0.000000   0.000000 )  
               a(2) = (   0.000000   1.735306   0.000000 )  
               a(3) = (  -0.342081   0.000000   1.895896 )  

     reciprocal axes: (cart. coord. in units 2 pi/alat)
               b(1) = (  1.000000 -0.000000  0.180432 )  
               b(2) = (  0.000000  0.576267 -0.000000 )  
               b(3) = (  0.000000  0.000000  0.527455 )  


     PseudoPot. # 1 for Al read from file:
     ./../../../pseudos/Al.pbe-n-kjpaw_psl.1.0.0.UPF
     MD5 check sum: 502b6b27b9c6270cab5dd1084b96fa6d
     Pseudo is Projector augmented-wave + core cor, Zval =  3.0
     Generated using &quot;atomic&quot; code by A. Dal Corso  v.6.3
     Shape of augmentation charge: PSQ
     Using radial grid of 1135 points,  6 beta functions with: 
                l(1) =   0
                l(2) =   0
                l(3) =   1
                l(4) =   1
                l(5) =   2
                l(6) =   2
     Q(r) pseudized with 0 coefficients 


     PseudoPot. # 2 for Fe read from file:
     ./../../../pseudos/Fe.pbe-spn-kjpaw_psl.1.0.0.UPF
     MD5 check sum: fc81f059e5c5069939230b1155715ae8
     Pseudo is Projector augmented-wave + core cor, Zval = 16.0
     Generated using &quot;atomic&quot; code by A. Dal Corso  v.6.3
     Shape of augmentation charge: PSQ
     Using radial grid of 1191 points,  6 beta functions with: 
                l(1) =   0
                l(2) =   0
                l(3) =   1
                l(4) =   1
                l(5) =   2
                l(6) =   2
     Q(r) pseudized with 0 coefficients 


     PseudoPot. # 3 for H  read from file:
     ./../../../pseudos/H.pbe-kjpaw_psl.1.0.0.UPF
     MD5 check sum: d81a744832360e4a8af0b0b5b123bc2a
     Pseudo is Projector augmented-wave, Zval =  1.0
     Generated using &quot;atomic&quot; code by A. Dal Corso  v.6.3MaX
     Shape of augmentation charge: PSQ
     Using radial grid of  929 points,  2 beta functions with: 
                l(1) =   0
                l(2) =   0
     Q(r) pseudized with 0 coefficients 


     PseudoPot. # 4 for K  read from file:
     ./../../../pseudos/K.pbe-spn-kjpaw_psl.1.0.0.UPF
     MD5 check sum: 34cc42130a09071ebe376fd42eb21491
     Pseudo is Projector augmented-wave + core cor, Zval =  9.0
     Generated using &quot;atomic&quot; code by A. Dal Corso  v.6.2.2
     Shape of augmentation charge: PSQ
     Using radial grid of 1165 points,  6 beta functions with: 
                l(1) =   0
                l(2) =   0
                l(3) =   1
                l(4) =   1
                l(5) =   2
                l(6) =   2
     Q(r) pseudized with 0 coefficients 


     PseudoPot. # 5 for Mg read from file:
     ./../../../pseudos/Mg.pbe-spnl-kjpaw_psl.1.0.0.UPF
     MD5 check sum: fda14e0d92a6a9a5ebed782e5a4b3067
     Pseudo is Projector augmented-wave + core cor, Zval = 10.0
     Generated using &quot;atomic&quot; code by A. Dal Corso  v.6.3
     Shape of augmentation charge: PSQ
     Using radial grid of 1129 points,  4 beta functions with: 
                l(1) =   0
                l(2) =   0
                l(3) =   1
                l(4) =   1
     Q(r) pseudized with 0 coefficients 


     PseudoPot. # 6 for O  read from file:
     ./../../../pseudos/O.pbe-n-kjpaw_psl.1.0.0.UPF
     MD5 check sum: e99d9cef9b487d1ca56f5b95ecd0fd7a
     Pseudo is Projector augmented-wave + core cor, Zval =  6.0
     Generated using &quot;atomic&quot; code by A. Dal Corso  v.6.3
     Shape of augmentation charge: PSQ
     Using radial grid of 1095 points,  4 beta functions with: 
                l(1) =   0
                l(2) =   0
                l(3) =   1
                l(4) =   1
     Q(r) pseudized with 0 coefficients 


     PseudoPot. # 7 for Si read from file:
     ./../../../pseudos/Si.pbe-n-kjpaw_psl.1.0.0.UPF
     MD5 check sum: c39c59da582df4a0d9f10159256ea34e
     Pseudo is Projector augmented-wave + core cor, Zval =  4.0
     Generated using &quot;atomic&quot; code by A. Dal Corso  v.6.3
     Shape of augmentation charge: PSQ
     Using radial grid of 1141 points,  6 beta functions with: 
                l(1) =   0
                l(2) =   0
                l(3) =   1
                l(4) =   1
                l(5) =   2
                l(6) =   2
     Q(r) pseudized with 0 coefficients 


     atomic species   valence    mass     pseudopotential
     Al                3.00    26.98154     Al( 1.00)
     Fe               16.00    55.84500     Fe( 1.00)
     H                 1.00     1.00794     H ( 1.00)
     K                 9.00    39.09830     K ( 1.00)
     Mg               10.00    24.30500     Mg( 1.00)
     O                 6.00    15.99940     O ( 1.00)
     Si                4.00    28.08550     Si( 1.00)

     Starting magnetic structure 
     atomic species   magnetization
     Al              0.000
     Fe              0.300
     H               0.000
     K               0.000
     Mg              0.000
     O               0.000
     Si              0.000

      2 Sym. Ops. (no inversion) found


                                    s                        frac. trans.

      isym =  1     identity                                     

 cryst.   s( 1) = (     1          0          0      )
                  (     0          1          0      )
                  (     0          0          1      )

 cart.    s( 1) = (  1.0000000  0.0000000 -0.0000000 )
                  (  0.0000000  1.0000000  0.0000000 )
                  (  0.0000000  0.0000000  1.0000000 )


      isym =  2     180 deg rotation - cart. axis [0,1,0]        

 cryst.   s( 2) = (    -1          0          0      )
                  (     0          1          0      )
                  (     0          0         -1      )

 cart.    s( 2) = ( -1.0000000  0.0000000  0.0000000 )
                  (  0.0000000  1.0000000  0.0000000 )
                  (  0.0000000  0.0000000 -1.0000000 )


     point group C_2  (2)   
     there are  2 classes
     the character table:

       E     C2   
A      1.00  1.00
B      1.00 -1.00

     the symmetry operations in each class and the name of the first element:

     E        1
          identity                                               
     C2       2
          180 deg rotation - cart. axis [0,1,0]                  

   Cartesian axes

     site n.     atom                  positions (alat units)
         1        K      tau(   1) = (   0.0000000   0.8559224   0.0000000  )
         2        K      tau(   2) = (   0.5000000   0.0093568   0.0000000  )
         3        Mg     tau(   3) = (  -0.1710407   0.0067712   0.9479482  )
         4        Mg     tau(   4) = (  -0.1710407   0.5780843   0.9479482  )
         5        Mg     tau(   5) = (  -0.1710407   1.1543881   0.9479482  )
         6        Mg     tau(   6) = (   0.3289593   0.8562226   0.9479482  )
         7        Mg     tau(   7) = (   0.3289593   1.4480089   0.9479482  )
         8        Si     tau(   8) = (   0.0066674   0.2865251   0.4219393  )
         9        Si     tau(   9) = (   0.6512512   0.2865251   1.4739571  )
        10        Si     tau(  10) = (   0.6701371   1.4476688   1.4628623  )
        11        Si     tau(  11) = (  -0.0122184   1.4476688   0.4330341  )
        12        Si     tau(  12) = (   0.4872056   1.1568454   0.4292651  )
        13        Si     tau(  13) = (   0.1707131   1.1568454   1.4666313  )
        14        Al     tau(  14) = (   0.1506005   0.5746762   1.4713786  )
        15        Al     tau(  15) = (   0.5073182   0.5746762   0.4245178  )
        16        O      tau(  16) = (  -0.0043508   0.2833738   0.7297400  )
        17        O      tau(  17) = (   0.6622695   0.2833738   1.1661564  )
        18        O      tau(  18) = (   0.6658139   1.4451231   1.1576912  )
        19        O      tau(  19) = (  -0.0078952   1.4451231   0.7382052  )
        20        O      tau(  20) = (   0.4926234   1.1618863   0.7357690  )
        21        O      tau(  21) = (   0.1652953   1.1618863   1.1601274  )
        22        O      tau(  22) = (   0.1548298   0.5779784   1.1454267  )
        23        O      tau(  23) = (   0.5030889   0.5779784   0.7504697  )
        24        O      tau(  24) = (   0.2847398   0.3548857   0.3143567  )
        25        O      tau(  25) = (   0.3731789   0.3548857   1.5815397  )
        26        O      tau(  26) = (   0.9404978   1.7303189   0.3181314  )
        27        O      tau(  27) = (  -0.2825791   1.7303189   1.5777650  )
        28        O      tau(  28) = (   0.3988927   1.3439356   1.5754330  )
        29        O      tau(  29) = (   0.2590260   1.3439356   0.3204634  )
        30        O      tau(  30) = (   0.7582660   1.2710892   0.3185125  )
        31        O      tau(  31) = (  -0.1003473   1.2710892   1.5773839  )
        32        O      tau(  32) = (   0.4432368   0.8811364   0.3085875  )
        33        O      tau(  33) = (   0.2146819   0.8811364   1.5873090  )
        34        O      tau(  34) = (  -0.1423236   0.4782556   1.5925436  )
        35        O      tau(  35) = (   0.8002423   0.4782556   0.3033529  )
        36        O      tau(  36) = (  -0.0041068   0.8750247   0.7469263  )
        37        O      tau(  37) = (   0.6620255   0.8750247   1.1489701  )
        38        O      tau(  38) = (   0.4966158   1.7335917   0.7534577  )
        39        O      tau(  39) = (   0.1613029   1.7335917   1.1424387  )
        40        H      tau(  40) = (  -0.0032097   0.8603995   0.5673129  )
        41        H      tau(  41) = (   0.6611284   0.8603995   1.3285835  )
        42        H      tau(  42) = (   0.4926802   0.0219534   0.5746291  )
        43        H      tau(  43) = (   0.1652385   0.0219534   1.3212673  )
        44        Fe     tau(  44) = (   0.3289593   0.2986375   0.9479482  )

     --------------------------------------------
     DFT-D3 Dispersion Correction (3-body terms):
     --------------------------------------------
       Reference C6 values for interpolation: 

         atom   Coordination number   C6
         H          0.912             6.05
         H          0.000            15.18
         O          0.000            31.01
         O          0.993            25.63
         O          1.989            20.74
         Mg         0.000          1366.75
         Mg         0.963           902.54
         Mg         1.950           351.12
         Al         0.000          1081.08
         Al         0.965           875.51
         Al         1.931           513.50
         Al         2.915           307.19
         Si         0.000           635.71
         Si         0.951           540.53
         Si         1.944           466.25
         Si         2.941           443.01
         Si         3.868           299.55
         K          0.000          9967.00
         K          0.977           676.04
         Fe         0.000           982.67
         Fe         1.648           409.99
         Fe         9.138           219.01

       Values used:

         atom   Coordination number  R0_AB[au]  C6      C8
         K         13.611            4.007    676.04 129074.98
         K         13.809            4.007    676.04 129074.98
         Mg        11.225            3.292    351.12  31436.69
         Mg        11.607            3.292    351.12  31436.69
         Mg        11.796            3.292    351.12  31436.69
         Mg        11.818            3.292    351.12  31436.69
         Mg        11.434            3.292    351.12  31436.69
         Si         6.789            3.583    299.55  21425.58
         Si         6.789            3.583    299.55  21425.58
         Si         6.542            3.583    299.55  21425.58
         Si         6.542            3.583    299.55  21425.58
         Si         6.596            3.583    299.55  21425.58
         Si         6.596            3.583    299.55  21425.58
         Al         7.624            3.789    307.19  29441.29
         Al         7.624            3.789    307.19  29441.29
         O          3.678            2.345     20.74    418.58
         O          3.678            2.345     20.74    418.58
         O          3.926            2.345     20.74    418.58
         O          3.926            2.345     20.74    418.58
         O          3.912            2.345     20.74    418.58
         O          3.912            2.345     20.74    418.58
         O          3.835            2.345     20.74    418.58
         O          3.835            2.345     20.74    418.58
         O          3.181            2.345     20.74    418.58
         O          3.181            2.345     20.74    418.58
         O          3.153            2.345     20.74    418.58
         O          3.153            2.345     20.74    418.58
         O          3.056            2.345     20.74    418.58
         O          3.056            2.345     20.74    418.58
         O          3.059            2.345     20.74    418.58
         O          3.059            2.345     20.74    418.58
         O          3.190            2.345     20.74    418.58
         O          3.190            2.345     20.74    418.58
         O          3.262            2.345     20.74    418.58
         O          3.262            2.345     20.74    418.58
         O          4.001            2.345     20.74    418.58
         O          4.001            2.345     20.74    418.58
         O          3.778            2.345     20.74    418.58
         O          3.778            2.345     20.74    418.58
         H          1.322            2.062      6.07     73.32
         H          1.322            2.062      6.07     73.32
         H          1.267            2.062      6.07     73.40
         H          1.267            2.062      6.07     73.40
         Fe         8.112            3.252    219.01  20487.87

         Molecular C6 ( Ry / a.u.^6 ) =    165305.54


   Crystallographic axes

     site n.     atom                  positions (cryst. coord.)
         1        K      tau(   1) = (  0.0000000  0.4932400  0.0000000  )
         2        K      tau(   2) = (  0.5000000  0.0053920  0.0000000  )
         3        Mg     tau(   3) = (  0.0000000  0.0039020  0.5000000  )
         4        Mg     tau(   4) = (  0.0000000  0.3331310  0.5000000  )
         5        Mg     tau(   5) = (  0.0000000  0.6652360  0.5000000  )
         6        Mg     tau(   6) = (  0.5000000  0.4934130  0.5000000  )
         7        Mg     tau(   7) = (  0.5000000  0.8344400  0.5000000  )
         8        Si     tau(   8) = (  0.0827990  0.1651150  0.2225540  )
         9        Si     tau(   9) = (  0.9172010  0.1651150  0.7774460  )
        10        Si     tau(  10) = (  0.9340850  0.8342440  0.7715940  )
        11        Si     tau(  11) = (  0.0659150  0.8342440  0.2284060  )
        12        Si     tau(  12) = (  0.5646590  0.6666520  0.2264180  )
        13        Si     tau(  13) = (  0.4353410  0.6666520  0.7735820  )
        14        Al     tau(  14) = (  0.4160850  0.3311670  0.7760860  )
        15        Al     tau(  15) = (  0.5839150  0.3311670  0.2239140  )
        16        O      tau(  16) = (  0.1273180  0.1632990  0.3849050  )
        17        O      tau(  17) = (  0.8726820  0.1632990  0.6150950  )
        18        O      tau(  18) = (  0.8746990  0.8327770  0.6106300  )
        19        O      tau(  19) = (  0.1253010  0.8327770  0.3893700  )
        20        O      tau(  20) = (  0.6253800  0.6695570  0.3880850  )
        21        O      tau(  21) = (  0.3746200  0.6695570  0.6119150  )
        22        O      tau(  22) = (  0.3615020  0.3330700  0.6041610  )
        23        O      tau(  23) = (  0.6384980  0.3330700  0.3958390  )
        24        O      tau(  24) = (  0.3414600  0.2045090  0.1658090  )
        25        O      tau(  25) = (  0.6585400  0.2045090  0.8341910  )
        26        O      tau(  26) = (  0.9978990  0.9971260  0.1678000  )
        27        O      tau(  27) = (  0.0021010  0.9971260  0.8322000  )
        28        O      tau(  28) = (  0.6831520  0.7744660  0.8309700  )
        29        O      tau(  29) = (  0.3168480  0.7744660  0.1690300  )
        30        O      tau(  30) = (  0.8157360  0.7324870  0.1680010  )
        31        O      tau(  31) = (  0.1842640  0.7324870  0.8319990  )
        32        O      tau(  32) = (  0.4989160  0.5077700  0.1627660  )
        33        O      tau(  33) = (  0.5010840  0.5077700  0.8372340  )
        34        O      tau(  34) = (  0.1450230  0.2756030  0.8399950  )
        35        O      tau(  35) = (  0.8549770  0.2756030  0.1600050  )
        36        O      tau(  36) = (  0.1306630  0.5042480  0.3939700  )
        37        O      tau(  37) = (  0.8693370  0.5042480  0.6060300  )
        38        O      tau(  38) = (  0.6325640  0.9990120  0.3974150  )
        39        O      tau(  39) = (  0.3674360  0.9990120  0.6025850  )
        40        H      tau(  40) = (  0.0991520  0.4958200  0.2992320  )
        41        H      tau(  41) = (  0.9008480  0.4958200  0.7007680  )
        42        H      tau(  42) = (  0.5963620  0.0126510  0.3030910  )
        43        H      tau(  43) = (  0.4036380  0.0126510  0.6969090  )
        44        Fe     tau(  44) = (  0.5000000  0.1720950  0.5000000  )

     number of k points=    20  Gaussian smearing, width (Ry)=  0.0010
                       cart. coord. in units 2pi/alat
        k(    1) = (   0.0000000   0.0000000   0.0000000), wk =   0.0185185
        k(    2) = (   0.0000000   0.0000000   0.1758183), wk =   0.0370370
        k(    3) = (   0.0000000   0.1920891   0.0000000), wk =   0.0370370
        k(    4) = (   0.0000000   0.1920891   0.1758183), wk =   0.0740741
        k(    5) = (   0.1666667   0.0000000   0.0300721), wk =   0.0370370
        k(    6) = (   0.1666667   0.0000000   0.2058904), wk =   0.0370370
        k(    7) = (   0.1666667   0.0000000  -0.1457462), wk =   0.0370370
        k(    8) = (   0.1666667   0.1920891   0.0300721), wk =   0.0740741
        k(    9) = (   0.1666667   0.1920891   0.2058904), wk =   0.0740741
        k(   10) = (   0.1666667   0.1920891  -0.1457462), wk =   0.0740741
        k(   11) = (   0.3333333   0.0000000   0.0601442), wk =   0.0370370
        k(   12) = (   0.3333333   0.0000000   0.2359625), wk =   0.0370370
        k(   13) = (   0.3333333   0.0000000  -0.1156742), wk =   0.0370370
        k(   14) = (   0.3333333   0.1920891   0.0601442), wk =   0.0740741
        k(   15) = (   0.3333333   0.1920891   0.2359625), wk =   0.0740741
        k(   16) = (   0.3333333   0.1920891  -0.1156742), wk =   0.0740741
        k(   17) = (  -0.5000000   0.0000000  -0.0902162), wk =   0.0185185
        k(   18) = (  -0.5000000   0.0000000   0.0856021), wk =   0.0370370
        k(   19) = (  -0.5000000   0.1920891  -0.0902162), wk =   0.0370370
        k(   20) = (  -0.5000000   0.1920891   0.0856021), wk =   0.0740741

                       cryst. coord.
        k(    1) = (   0.0000000   0.0000000   0.0000000), wk =   0.0185185
        k(    2) = (   0.0000000   0.0000000   0.3333333), wk =   0.0370370
        k(    3) = (   0.0000000   0.3333333   0.0000000), wk =   0.0370370
        k(    4) = (   0.0000000   0.3333333   0.3333333), wk =   0.0740741
        k(    5) = (   0.1666667   0.0000000  -0.0000000), wk =   0.0370370
        k(    6) = (   0.1666667   0.0000000   0.3333333), wk =   0.0370370
        k(    7) = (   0.1666667   0.0000000  -0.3333333), wk =   0.0370370
        k(    8) = (   0.1666667   0.3333333  -0.0000000), wk =   0.0740741
        k(    9) = (   0.1666667   0.3333333   0.3333333), wk =   0.0740741
        k(   10) = (   0.1666667   0.3333333  -0.3333333), wk =   0.0740741
        k(   11) = (   0.3333333   0.0000000  -0.0000000), wk =   0.0370370
        k(   12) = (   0.3333333   0.0000000   0.3333333), wk =   0.0370370
        k(   13) = (   0.3333333   0.0000000  -0.3333333), wk =   0.0370370
        k(   14) = (   0.3333333   0.3333333  -0.0000000), wk =   0.0740741
        k(   15) = (   0.3333333   0.3333333   0.3333333), wk =   0.0740741
        k(   16) = (   0.3333333   0.3333333  -0.3333333), wk =   0.0740741
        k(   17) = (  -0.5000000   0.0000000   0.0000000), wk =   0.0185185
        k(   18) = (  -0.5000000   0.0000000   0.3333333), wk =   0.0370370
        k(   19) = (  -0.5000000   0.3333333   0.0000000), wk =   0.0370370
        k(   20) = (  -0.5000000   0.3333333   0.3333333), wk =   0.0740741

     Dense  grid:   586467 G-vectors     FFT dimensions: (  72, 125, 135)

     Smooth grid:   207475 G-vectors     FFT dimensions: (  50,  90,  96)

     Dynamical RAM for                 wfc:      10.35 MB

     Dynamical RAM for     wfc (w. buffer):     424.41 MB

     Dynamical RAM for           str. fact:      10.44 MB

     Dynamical RAM for           local pot:       0.00 MB

     Dynamical RAM for          nlocal pot:      28.88 MB

     Dynamical RAM for                qrad:      12.30 MB

     Dynamical RAM for          rho,v,vnew:      18.42 MB

     Dynamical RAM for               rhoin:       6.14 MB

     Dynamical RAM for            rho*nmix:      47.73 MB

     Dynamical RAM for           G-vectors:       5.86 MB

     Dynamical RAM for          h,s,v(r/c):       1.13 MB

     Dynamical RAM for          <psi|beta>:       1.05 MB

     Dynamical RAM for                 psi:      20.70 MB

     Dynamical RAM for                hpsi:      20.70 MB

     Dynamical RAM for                spsi:      20.70 MB

     Dynamical RAM for      wfcinit/wfcrot:      24.90 MB

     Dynamical RAM for           addusdens:     314.70 MB

     Dynamical RAM for          addusforce:     383.50 MB

     Estimated static dynamical RAM per process >     527.86 MB

     Estimated max dynamical RAM per process >     959.09 MB

     Estimated total dynamical RAM >       5.62 GB

     Check: negative core charge=   -0.000004
     Generating pointlists ...
     new r_m :   0.1345 (alat units)  1.3466 (a.u.) for type    1
     new r_m :   0.1583 (alat units)  1.5856 (a.u.) for type    2
     new r_m :   0.0743 (alat units)  0.7444 (a.u.) for type    3
     new r_m :   0.2122 (alat units)  2.1246 (a.u.) for type    4
     new r_m :   0.1572 (alat units)  1.5739 (a.u.) for type    5
     new r_m :   0.0743 (alat units)  0.7444 (a.u.) for type    6
     new r_m :   0.1255 (alat units)  1.2564 (a.u.) for type    7

     Initial potential from superposition of free atoms

     starting charge     261.9493, renormalised to     262.0000
     Starting wfcs are  183 randomized atomic wfcs
     Checking if some PAW data can be deallocated... 
       PAW data deallocated on    5 nodes for type:  1
       PAW data deallocated on    5 nodes for type:  2
       PAW data deallocated on    5 nodes for type:  3
       PAW data deallocated on    5 nodes for type:  4
       PAW data deallocated on    5 nodes for type:  5
       PAW data deallocated on    1 nodes for type:  6
       PAW data deallocated on    4 nodes for type:  7

     total cpu time spent up to now is       86.2 secs

     Self-consistent Calculation

     iteration #  1     ecut=    60.00 Ry     beta= 0.70
     Davidson diagonalization with overlap

---- Real-time Memory Report at c_bands before calling an iterative solver
           591 MiB given to the printing process from OS
             0 MiB allocation reported by mallinfo(arena+hblkhd)
           366 MiB available memory on the node where the printing process lives
------------------
     ethr =  1.00E-02,  avg # of iterations =  6.0

     total cpu time spent up to now is      363.0 secs

     total energy              =   -2623.68294087 Ry
     estimated scf accuracy    <      12.44675994 Ry

     total magnetization       =     4.00 Bohr mag/cell
     absolute magnetization    =     4.05 Bohr mag/cell

     iteration #  2     ecut=    60.00 Ry     beta= 0.70
     Davidson diagonalization with overlap

---- Real-time Memory Report at c_bands before calling an iterative solver
           862 MiB given to the printing process from OS
             0 MiB allocation reported by mallinfo(arena+hblkhd)
          1880 MiB available memory on the node where the printing process lives
------------------
     ethr =  4.75E-03,  avg # of iterations =  5.1

     total cpu time spent up to now is      733.6 secs

     total energy              =   -2629.11545733 Ry
     estimated scf accuracy    <      11.48209572 Ry

     total magnetization       =     3.96 Bohr mag/cell
     absolute magnetization    =     4.42 Bohr mag/cell

     iteration #  3     ecut=    60.00 Ry     beta= 0.70
     Davidson diagonalization with overlap

---- Real-time Memory Report at c_bands before calling an iterative solver
           864 MiB given to the printing process from OS
             0 MiB allocation reported by mallinfo(arena+hblkhd)
          1848 MiB available memory on the node where the printing process lives
------------------
     ethr =  4.38E-03,  avg # of iterations =  2.0

     total cpu time spent up to now is      939.4 secs

     total energy              =   -2630.07160130 Ry
     estimated scf accuracy    <       2.66200715 Ry

     total magnetization       =     5.01 Bohr mag/cell
     absolute magnetization    =     5.51 Bohr mag/cell

     iteration #  4     ecut=    60.00 Ry     beta= 0.70
     Davidson diagonalization with overlap

---- Real-time Memory Report at c_bands before calling an iterative solver
           866 MiB given to the printing process from OS
             0 MiB allocation reported by mallinfo(arena+hblkhd)
          1720 MiB available memory on the node where the printing process lives
------------------
     ethr =  1.02E-03,  avg # of iterations =  4.8

     negative rho (up, down):  0.000E+00 3.029E-05

     total cpu time spent up to now is     1234.4 secs

     total energy              =   -2631.04386848 Ry
     estimated scf accuracy    <       0.40225084 Ry

     total magnetization       =     4.00 Bohr mag/cell
     absolute magnetization    =     4.13 Bohr mag/cell

     iteration #  5     ecut=    60.00 Ry     beta= 0.70
     Davidson diagonalization with overlap

---- Real-time Memory Report at c_bands before calling an iterative solver
           866 MiB given to the printing process from OS
             0 MiB allocation reported by mallinfo(arena+hblkhd)
          1647 MiB available memory on the node where the printing process lives
------------------
     c_bands:  1 eigenvalues not converged
     c_bands:  1 eigenvalues not converged
     c_bands:  2 eigenvalues not converged
     c_bands:  2 eigenvalues not converged
     c_bands:  1 eigenvalues not converged
     c_bands:  2 eigenvalues not converged
     ethr =  1.54E-04,  avg # of iterations = 14.6

     negative rho (up, down):  0.000E+00 1.894E-04

     total cpu time spent up to now is     1597.3 secs

     total energy              =   -2631.21545704 Ry
     estimated scf accuracy    <       0.07587158 Ry

     total magnetization       =     4.00 Bohr mag/cell
     absolute magnetization    =     4.10 Bohr mag/cell

     iteration #  6     ecut=    60.00 Ry     beta= 0.70
     Davidson diagonalization with overlap

---- Real-time Memory Report at c_bands before calling an iterative solver
           866 MiB given to the printing process from OS
             0 MiB allocation reported by mallinfo(arena+hblkhd)
          1672 MiB available memory on the node where the printing process lives
------------------
     c_bands:  1 eigenvalues not converged
     c_bands:  1 eigenvalues not converged
     c_bands:  1 eigenvalues not converged
     c_bands:  2 eigenvalues not converged
     c_bands:  1 eigenvalues not converged
     c_bands:  2 eigenvalues not converged
     c_bands:  1 eigenvalues not converged
     c_bands:  2 eigenvalues not converged
     c_bands:  1 eigenvalues not converged
     c_bands:  2 eigenvalues not converged
     c_bands:  1 eigenvalues not converged
     c_bands:  3 eigenvalues not converged
     c_bands:  2 eigenvalues not converged
     ethr =  2.90E-05,  avg # of iterations = 16.3

     negative rho (up, down):  0.000E+00 1.702E-04

     total cpu time spent up to now is     1994.0 secs

     total energy              =   -2631.23422286 Ry
     estimated scf accuracy    <       0.05095909 Ry

     total magnetization       =     4.00 Bohr mag/cell
     absolute magnetization    =     4.10 Bohr mag/cell

     iteration #  7     ecut=    60.00 Ry     beta= 0.70
     Davidson diagonalization with overlap

---- Real-time Memory Report at c_bands before calling an iterative solver
           866 MiB given to the printing process from OS
             0 MiB allocation reported by mallinfo(arena+hblkhd)
          1655 MiB available memory on the node where the printing process lives
------------------
     c_bands:  1 eigenvalues not converged
     c_bands:  1 eigenvalues not converged
     c_bands:  1 eigenvalues not converged
     c_bands:  1 eigenvalues not converged
     c_bands:  1 eigenvalues not converged
     c_bands:  1 eigenvalues not converged
     ethr =  1.95E-05,  avg # of iterations =  5.7

     negative rho (up, down):  0.000E+00 1.385E-04

     total cpu time spent up to now is     2223.1 secs

     total energy              =   -2631.23167566 Ry
     estimated scf accuracy    <       0.02446162 Ry

     total magnetization       =     4.00 Bohr mag/cell
     absolute magnetization    =     4.09 Bohr mag/cell

     iteration #  8     ecut=    60.00 Ry     beta= 0.70
     Davidson diagonalization with overlap

---- Real-time Memory Report at c_bands before calling an iterative solver
           866 MiB given to the printing process from OS
             0 MiB allocation reported by mallinfo(arena+hblkhd)
          1676 MiB available memory on the node where the printing process lives
------------------
     c_bands:  1 eigenvalues not converged
     c_bands:  1 eigenvalues not converged
     c_bands:  1 eigenvalues not converged
     c_bands:  2 eigenvalues not converged
     c_bands:  1 eigenvalues not converged
     c_bands:  1 eigenvalues not converged
     c_bands:  1 eigenvalues not converged
     c_bands:  1 eigenvalues not converged
     c_bands:  2 eigenvalues not converged
     ethr =  9.34E-06,  avg # of iterations = 11.2

     negative rho (up, down):  0.000E+00 1.184E-04

     total cpu time spent up to now is     2497.7 secs

     total energy              =   -2631.23345580 Ry
     estimated scf accuracy    <       0.00636553 Ry

     total magnetization       =     4.00 Bohr mag/cell
     absolute magnetization    =     4.07 Bohr mag/cell

     iteration #  9     ecut=    60.00 Ry     beta= 0.70
     Davidson diagonalization with overlap

---- Real-time Memory Report at c_bands before calling an iterative solver
           866 MiB given to the printing process from OS
             0 MiB allocation reported by mallinfo(arena+hblkhd)
          1653 MiB available memory on the node where the printing process lives
------------------
     c_bands:  1 eigenvalues not converged
     c_bands:  2 eigenvalues not converged
     c_bands:  2 eigenvalues not converged
     c_bands:  1 eigenvalues not converged
     c_bands:  2 eigenvalues not converged
     c_bands:  1 eigenvalues not converged
     c_bands:  1 eigenvalues not converged
     c_bands:  1 eigenvalues not converged
     c_bands:  3 eigenvalues not converged
     c_bands:  1 eigenvalues not converged
     c_bands:  1 eigenvalues not converged
     c_bands:  1 eigenvalues not converged
     c_bands:  1 eigenvalues not converged
     c_bands:  2 eigenvalues not converged
     c_bands:  1 eigenvalues not converged
     ethr =  2.43E-06,  avg # of iterations = 14.0

     negative rho (up, down):  0.000E+00 1.058E-04

     total cpu time spent up to now is     2888.7 secs

     total energy              =   -2631.23647861 Ry
     estimated scf accuracy    <       0.00079285 Ry

     total magnetization       =     4.00 Bohr mag/cell
     absolute magnetization    =     4.06 Bohr mag/cell

     iteration # 10     ecut=    60.00 Ry     beta= 0.70
     Davidson diagonalization with overlap

---- Real-time Memory Report at c_bands before calling an iterative solver
           866 MiB given to the printing process from OS
             0 MiB allocation reported by mallinfo(arena+hblkhd)
          1656 MiB available memory on the node where the printing process lives
------------------
     c_bands:  2 eigenvalues not converged
     c_bands:  1 eigenvalues not converged
     c_bands:  1 eigenvalues not converged
     c_bands:  1 eigenvalues not converged
     ethr =  3.03E-07,  avg # of iterations =  9.2

     negative rho (up, down):  0.000E+00 1.047E-04

     total cpu time spent up to now is     3247.0 secs

     total energy              =   -2631.23702216 Ry
     estimated scf accuracy    <       0.00039308 Ry

     total magnetization       =     4.00 Bohr mag/cell
     absolute magnetization    =     4.05 Bohr mag/cell

     iteration # 11     ecut=    60.00 Ry     beta= 0.70
     Davidson diagonalization with overlap

---- Real-time Memory Report at c_bands before calling an iterative solver
           866 MiB given to the printing process from OS
             0 MiB allocation reported by mallinfo(arena+hblkhd)
          1652 MiB available memory on the node where the printing process lives
------------------
     c_bands:  2 eigenvalues not converged
     c_bands:  1 eigenvalues not converged
     c_bands:  1 eigenvalues not converged
     ethr =  1.50E-07,  avg # of iterations =  5.1

     negative rho (up, down):  0.000E+00 1.028E-04

     total cpu time spent up to now is     3495.8 secs

     total energy              =   -2631.23714491 Ry
     estimated scf accuracy    <       0.00010248 Ry

     total magnetization       =     4.00 Bohr mag/cell
     absolute magnetization    =     4.05 Bohr mag/cell

     iteration # 12     ecut=    60.00 Ry     beta= 0.70
     Davidson diagonalization with overlap

---- Real-time Memory Report at c_bands before calling an iterative solver
           866 MiB given to the printing process from OS
             0 MiB allocation reported by mallinfo(arena+hblkhd)
          1657 MiB available memory on the node where the printing process lives
------------------
     ethr =  3.91E-08,  avg # of iterations =  6.5

     negative rho (up, down):  0.000E+00 1.057E-04

     total cpu time spent up to now is     3897.1 secs

     total energy              =   -2631.23725428 Ry
     estimated scf accuracy    <       0.00025279 Ry

     total magnetization       =     4.00 Bohr mag/cell
     absolute magnetization    =     4.05 Bohr mag/cell

     iteration # 13     ecut=    60.00 Ry     beta= 0.70
     Davidson diagonalization with overlap

---- Real-time Memory Report at c_bands before calling an iterative solver
           866 MiB given to the printing process from OS
             0 MiB allocation reported by mallinfo(arena+hblkhd)
          1680 MiB available memory on the node where the printing process lives
------------------
     ethr =  3.91E-08,  avg # of iterations =  2.0

     negative rho (up, down):  0.000E+00 1.138E-04

     total cpu time spent up to now is     4098.6 secs

     total energy              =   -2631.23713637 Ry
     estimated scf accuracy    <       0.00015058 Ry

     total magnetization       =     4.00 Bohr mag/cell
     absolute magnetization    =     4.05 Bohr mag/cell

     iteration # 14     ecut=    60.00 Ry     beta= 0.70
     Davidson diagonalization with overlap

---- Real-time Memory Report at c_bands before calling an iterative solver
           866 MiB given to the printing process from OS
             0 MiB allocation reported by mallinfo(arena+hblkhd)
          1697 MiB available memory on the node where the printing process lives
------------------
     ethr =  3.91E-08,  avg # of iterations =  5.5

     negative rho (up, down):  0.000E+00 1.180E-04

     total cpu time spent up to now is     4472.3 secs

     total energy              =   -2631.23731077 Ry
     estimated scf accuracy    <       0.00011959 Ry

     total magnetization       =     4.00 Bohr mag/cell
     absolute magnetization    =     4.05 Bohr mag/cell

     iteration # 15     ecut=    60.00 Ry     beta= 0.70
     Davidson diagonalization with overlap

---- Real-time Memory Report at c_bands before calling an iterative solver
           866 MiB given to the printing process from OS
             0 MiB allocation reported by mallinfo(arena+hblkhd)
          1683 MiB available memory on the node where the printing process lives
------------------
     ethr =  3.91E-08,  avg # of iterations =  4.0

     negative rho (up, down):  0.000E+00 1.251E-04

     total cpu time spent up to now is     4701.1 secs

     total energy              =   -2631.23730925 Ry
     estimated scf accuracy    <       0.00001405 Ry

     total magnetization       =     4.00 Bohr mag/cell
     absolute magnetization    =     4.05 Bohr mag/cell

     iteration # 16     ecut=    60.00 Ry     beta= 0.70
     Davidson diagonalization with overlap

---- Real-time Memory Report at c_bands before calling an iterative solver
           866 MiB given to the printing process from OS
             0 MiB allocation reported by mallinfo(arena+hblkhd)
          1683 MiB available memory on the node where the printing process lives
------------------
     ethr =  5.36E-09,  avg # of iterations =  6.2

     negative rho (up, down):  0.000E+00 1.245E-04

     total cpu time spent up to now is     5109.0 secs

     total energy              =   -2631.23735421 Ry
     estimated scf accuracy    <       0.00003961 Ry

     total magnetization       =     4.00 Bohr mag/cell
     absolute magnetization    =     4.04 Bohr mag/cell

     iteration # 17     ecut=    60.00 Ry     beta= 0.70
     Davidson diagonalization with overlap

---- Real-time Memory Report at c_bands before calling an iterative solver
           866 MiB given to the printing process from OS
             0 MiB allocation reported by mallinfo(arena+hblkhd)
          1681 MiB available memory on the node where the printing process lives
------------------
     ethr =  5.36E-09,  avg # of iterations =  2.0

     negative rho (up, down):  0.000E+00 1.249E-04

     total cpu time spent up to now is     5318.2 secs

     total energy              =   -2631.23734756 Ry
     estimated scf accuracy    <       0.00001352 Ry

     total magnetization       =     4.00 Bohr mag/cell
     absolute magnetization    =     4.04 Bohr mag/cell

     iteration # 18     ecut=    60.00 Ry     beta= 0.70
     Davidson diagonalization with overlap

---- Real-time Memory Report at c_bands before calling an iterative solver
           866 MiB given to the printing process from OS
             0 MiB allocation reported by mallinfo(arena+hblkhd)
          1684 MiB available memory on the node where the printing process lives
------------------
     ethr =  5.16E-09,  avg # of iterations =  6.0

     negative rho (up, down):  0.000E+00 1.271E-04

     total cpu time spent up to now is     5697.7 secs

     total energy              =   -2631.23735434 Ry
     estimated scf accuracy    <       0.00003196 Ry

     total magnetization       =     4.00 Bohr mag/cell
     absolute magnetization    =     4.05 Bohr mag/cell

     iteration # 19     ecut=    60.00 Ry     beta= 0.70
     Davidson diagonalization with overlap

---- Real-time Memory Report at c_bands before calling an iterative solver
           866 MiB given to the printing process from OS
             0 MiB allocation reported by mallinfo(arena+hblkhd)
          1678 MiB available memory on the node where the printing process lives
------------------
     ethr =  5.16E-09,  avg # of iterations =  2.6

     negative rho (up, down):  0.000E+00 1.274E-04

     total cpu time spent up to now is     5906.5 secs

     total energy              =   -2631.23735341 Ry
     estimated scf accuracy    <       0.00001097 Ry

     total magnetization       =     4.00 Bohr mag/cell
     absolute magnetization    =     4.04 Bohr mag/cell

     iteration # 20     ecut=    60.00 Ry     beta= 0.70
     Davidson diagonalization with overlap

---- Real-time Memory Report at c_bands before calling an iterative solver
           866 MiB given to the printing process from OS
             0 MiB allocation reported by mallinfo(arena+hblkhd)
          1677 MiB available memory on the node where the printing process lives
------------------
     ethr =  4.19E-09,  avg # of iterations =  4.2

     negative rho (up, down):  0.000E+00 1.272E-04

     Magnetic moment per site  (integrated on atomic sphere of radius R)
     atom   1 (R=0.212)  charge=  7.4974  magn=  0.0001
     atom   2 (R=0.212)  charge=  7.5011  magn=  0.0001
     atom   3 (R=0.157)  charge=  8.1037  magn=  0.0002
     atom   4 (R=0.157)  charge=  8.1047  magn=  0.0002
     atom   5 (R=0.157)  charge=  8.1027  magn= -0.0000
     atom   6 (R=0.157)  charge=  8.1047  magn=  0.0006
     atom   7 (R=0.157)  charge=  8.1029  magn=  0.0004
     atom   8 (R=0.125)  charge=  0.5450  magn=  0.0010
     atom   9 (R=0.125)  charge=  0.5450  magn=  0.0010
     atom  10 (R=0.125)  charge=  0.5376  magn=  0.0000
     atom  11 (R=0.125)  charge=  0.5376  magn=  0.0000
     atom  12 (R=0.125)  charge=  0.5364  magn= -0.0000
     atom  13 (R=0.125)  charge=  0.5364  magn= -0.0000
     atom  14 (R=0.134)  charge=  0.3367  magn=  0.0012
     atom  15 (R=0.134)  charge=  0.3367  magn=  0.0012
     atom  16 (R=0.074)  charge=  1.8917  magn=  0.0175
     atom  17 (R=0.074)  charge=  1.8917  magn=  0.0175
     atom  18 (R=0.074)  charge=  1.8948  magn=  0.0003
     atom  19 (R=0.074)  charge=  1.8948  magn=  0.0003
     atom  20 (R=0.074)  charge=  1.8920  magn=  0.0006
     atom  21 (R=0.074)  charge=  1.8920  magn=  0.0006
     atom  22 (R=0.074)  charge=  1.8888  magn=  0.0246
     atom  23 (R=0.074)  charge=  1.8888  magn=  0.0246
     atom  24 (R=0.074)  charge=  1.8951  magn= -0.0000
     atom  25 (R=0.074)  charge=  1.8951  magn= -0.0000
     atom  26 (R=0.074)  charge=  1.9013  magn=  0.0007
     atom  27 (R=0.074)  charge=  1.9013  magn=  0.0007
     atom  28 (R=0.074)  charge=  1.8991  magn=  0.0002
     atom  29 (R=0.074)  charge=  1.8991  magn=  0.0002
     atom  30 (R=0.074)  charge=  1.8985  magn=  0.0001
     atom  31 (R=0.074)  charge=  1.8985  magn=  0.0001
     atom  32 (R=0.074)  charge=  1.8962  magn=  0.0007
     atom  33 (R=0.074)  charge=  1.8962  magn=  0.0007
     atom  34 (R=0.074)  charge=  1.8944  magn=  0.0014
     atom  35 (R=0.074)  charge=  1.8944  magn=  0.0014
     atom  36 (R=0.074)  charge=  1.8952  magn=  0.0004
     atom  37 (R=0.074)  charge=  1.8952  magn=  0.0004
     atom  38 (R=0.074)  charge=  1.8938  magn=  0.0197
     atom  39 (R=0.074)  charge=  1.8938  magn=  0.0197
     atom  40 (R=0.074)  charge=  0.4001  magn=  0.0000
     atom  41 (R=0.074)  charge=  0.4001  magn=  0.0000
     atom  42 (R=0.074)  charge=  0.3983  magn=  0.0008
     atom  43 (R=0.074)  charge=  0.3983  magn=  0.0008
     atom  44 (R=0.158)  charge= 13.3256  magn=  3.2891

     total cpu time spent up to now is     6200.7 secs

     End of self-consistent calculation

 ------ SPIN UP ------------


          k = 0.0000 0.0000 0.0000 ( 25927 PWs)   bands (ev):

   -80.7616 -67.5282 -67.5189 -67.3740 -67.0933 -66.9595 -47.7405 -46.7694
   -45.9685 -34.3025 -34.2812 -34.2786 -34.2720 -34.2657 -34.2576 -34.1351
   -34.1338 -34.1096 -33.8505 -33.8452 -33.8417 -33.7298 -33.7229 -33.6817
   -23.0098 -23.0059 -15.0656 -15.0120 -14.1096 -14.0623 -13.6110 -13.5878
   -13.3925 -13.2739 -13.2584 -13.0757 -12.9543 -12.8257 -12.8182 -12.7924
   -12.7334 -12.6096 -12.4551 -12.3821 -12.2333 -12.2072 -12.1939 -12.0334
   -11.2355 -11.0036  -6.5874  -6.5638  -6.5006  -6.4978  -6.4817  -6.4804
    -4.2655  -4.2067  -2.3899  -2.2850  -1.8176  -1.3625  -1.1429  -1.1274
    -1.0742  -0.9821  -0.6461  -0.6253  -0.4466  -0.3773  -0.3360  -0.1512
     0.0290   0.1207   0.2692   0.5254   0.6047   0.6387   0.7205   0.9088
     0.9348   1.1613   1.2302   1.2851   1.4058   1.5112   1.5435   1.6677
     1.7783   1.8673   1.9939   2.0725   2.1000   2.1083   2.2497   2.3226
     2.3418   2.3687   2.6368   2.6638   2.7004   2.7420   2.8514   2.8825
     2.8899   2.9240   3.0393   3.1058   3.1476   3.2057   3.2254   3.3296
     3.4054   3.4074   3.4739   3.5062   3.5539   3.6392   3.7769   3.7827
     3.7974   3.9390   3.9643   3.9944   4.0849   4.1334   4.4121   4.4649
     5.7146   5.7224   6.9135   7.4239   7.5901   9.1538  10.6685  11.2706
    11.6235  11.9881  12.1624  12.2549  12.6022  12.6556  13.0547  13.0846
    13.1639  13.3327  13.3582  13.5638  13.6678  13.6737  13.8177  13.8867
    13.8912  14.0980  14.2195  14.2513  14.4002

     occupation numbers 
     1.0000   1.0000   1.0000   1.0000   1.0000   1.0000   1.0000   1.0000
     1.0000   1.0000   1.0000   1.0000   1.0000   1.0000   1.0000   1.0000
     1.0000   1.0000   1.0000   1.0000   1.0000   1.0000   1.0000   1.0000
     1.0000   1.0000   1.0000   1.0000   1.0000   1.0000   1.0000   1.0000
     1.0000   1.0000   1.0000   1.0000   1.0000   1.0000   1.0000   1.0000
     1.0000   1.0000   1.0000   1.0000   1.0000   1.0000   1.0000   1.0000
     1.0000   1.0000   1.0000   1.0000   1.0000   1.0000   1.0000   1.0000
     1.0000   1.0000   1.0000   1.0000   1.0000   1.0000   1.0000   1.0000
     1.0000   1.0000   1.0000   1.0000   1.0000   1.0000   1.0000   1.0000
     1.0000   1.0000   1.0000   1.0000   1.0000   1.0000   1.0000   1.0000
     1.0000   1.0000   1.0000   1.0000   1.0000   1.0000   1.0000   1.0000
     1.0000   1.0000   1.0000   1.0000   1.0000   1.0000   1.0000   1.0000
     1.0000   1.0000   1.0000   1.0000   1.0000   1.0000   1.0000   1.0000
     1.0000   1.0000   1.0000   1.0000   1.0000   1.0000   1.0000   1.0000
     1.0000   1.0000   1.0000   1.0000   1.0000   1.0000   1.0000   1.0000
     1.0000   1.0000   1.0000   1.0000   1.0000   1.0000   1.0000   1.0000
     1.0000   1.0000   1.0000   1.0000   1.0000   0.0000   0.0000   0.0000
     0.0000   0.0000   0.0000   0.0000   0.0000   0.0000   0.0000   0.0000
     0.0000   0.0000   0.0000   0.0000   0.0000   0.0000   0.0000   0.0000
     0.0000   0.0000   0.0000   0.0000   0.0000

          k = 0.0000 0.0000 0.1758 ( 25971 PWs)   bands (ev):

   -80.7617 -67.5282 -67.5189 -67.3740 -67.0933 -66.9595 -47.7405 -46.7694
   -45.9685 -34.3025 -34.2812 -34.2786 -34.2720 -34.2658 -34.2576 -34.1351
   -34.1338 -34.1096 -33.8505 -33.8452 -33.8417 -33.7298 -33.7229 -33.6817
   -23.0098 -23.0059 -15.0527 -15.0258 -14.0982 -14.0743 -13.6116 -13.5872
   -13.3833 -13.2815 -13.2625 -13.0704 -12.9548 -12.8268 -12.8149 -12.7991
   -12.7265 -12.6137 -12.4482 -12.3888 -12.2349 -12.2020 -12.1899 -12.0400
   -11.2351 -11.0045  -6.5875  -6.5638  -6.5006  -6.4978  -6.4817  -6.4802
    -4.2610  -4.2116  -2.3659  -2.3134  -1.7890  -1.3449  -1.1510  -1.1130
    -1.0705  -1.0075  -0.6579  -0.5933  -0.4684  -0.3542  -0.3437  -0.2586
     0.0658   0.1351   0.2184   0.4624   0.5987   0.6106   0.7457   0.9317
     0.9748   1.2097   1.2274   1.2643   1.4284   1.4826   1.6051   1.6848
     1.8203   1.8987   2.0568   2.0918   2.0934   2.1598   2.2523   2.2860
     2.3650   2.3701   2.5753   2.6333   2.7090   2.7217   2.7657   2.7868
     2.8081   3.0459   3.0809   3.0878   3.1304   3.1447   3.2855   3.3479
     3.4038   3.4372   3.4621   3.4912   3.6032   3.6585   3.6802   3.7313
     3.8538   3.9311   3.9718   3.9955   4.0251   4.2151   4.4033   4.4593
     5.7163   5.7191   6.9139   7.4258   7.5881   9.4645  10.1926  11.3725
    11.6537  11.8172  12.1801  12.2229  12.7254  12.9177  13.0040  13.1186
    13.2450  13.2960  13.3887  13.4818  13.5543  13.7161  13.8225  13.8442
    13.9504  14.0598  14.1629  14.2959  14.3235

     occupation numbers 
     1.0000   1.0000   1.0000   1.0000   1.0000   1.0000   1.0000   1.0000
     1.0000   1.0000   1.0000   1.0000   1.0000   1.0000   1.0000   1.0000
     1.0000   1.0000   1.0000   1.0000   1.0000   1.0000   1.0000   1.0000
     1.0000   1.0000   1.0000   1.0000   1.0000   1.0000   1.0000   1.0000
     1.0000   1.0000   1.0000   1.0000   1.0000   1.0000   1.0000   1.0000
     1.0000   1.0000   1.0000   1.0000   1.0000   1.0000   1.0000   1.0000
     1.0000   1.0000   1.0000   1.0000   1.0000   1.0000   1.0000   1.0000
     1.0000   1.0000   1.0000   1.0000   1.0000   1.0000   1.0000   1.0000
     1.0000   1.0000   1.0000   1.0000   1.0000   1.0000   1.0000   1.0000
     1.0000   1.0000   1.0000   1.0000   1.0000   1.0000   1.0000   1.0000
     1.0000   1.0000   1.0000   1.0000   1.0000   1.0000   1.0000   1.0000
     1.0000   1.0000   1.0000   1.0000   1.0000   1.0000   1.0000   1.0000
     1.0000   1.0000   1.0000   1.0000   1.0000   1.0000   1.0000   1.0000
     1.0000   1.0000   1.0000   1.0000   1.0000   1.0000   1.0000   1.0000
     1.0000   1.0000   1.0000   1.0000   1.0000   1.0000   1.0000   1.0000
     1.0000   1.0000   1.0000   1.0000   1.0000   1.0000   1.0000   1.0000
     1.0000   1.0000   1.0000   1.0000   1.0000   0.0000   0.0000   0.0000
     0.0000   0.0000   0.0000   0.0000   0.0000   0.0000   0.0000   0.0000
     0.0000   0.0000   0.0000   0.0000   0.0000   0.0000   0.0000   0.0000
     0.0000   0.0000   0.0000   0.0000   0.0000

          k = 0.0000 0.1921 0.0000 ( 25933 PWs)   bands (ev):

   -80.7616 -67.5282 -67.5189 -67.3740 -67.0933 -66.9595 -47.7405 -46.7694
   -45.9685 -34.3025 -34.2812 -34.2785 -34.2720 -34.2658 -34.2576 -34.1350
   -34.1338 -34.1096 -33.8505 -33.8452 -33.8417 -33.7298 -33.7229 -33.6817
   -23.0097 -23.0059 -15.0607 -15.0072 -14.1441 -14.0931 -13.6111 -13.5879
   -13.3310 -13.2358 -13.1499 -13.0829 -12.9587 -12.9037 -12.8873 -12.8062
   -12.7455 -12.6057 -12.4455 -12.3772 -12.2331 -12.2053 -12.1892 -12.0301
   -11.2340 -11.0031  -6.5831  -6.5684  -6.4994  -6.4936  -6.4843  -6.4833
    -4.2258  -4.1663  -2.5373  -2.4255  -1.7742  -1.3962  -1.0698  -1.0647
    -0.9712  -0.9043  -0.7190  -0.6957  -0.4619  -0.3090  -0.2812  -0.1145
    -0.0570   0.1688   0.2617   0.5022   0.5631   0.6031   0.7278   0.9050
     0.9507   1.0750   1.1682   1.2747   1.4038   1.5568   1.5675   1.7270
     1.8018   1.8953   2.0006   2.1021   2.1556   2.2040   2.2295   2.3376
     2.4070   2.4818   2.5386   2.5896   2.7013   2.7194   2.8274   2.8384
     2.9204   2.9370   3.0437   3.0637   3.1835   3.1920   3.2491   3.3589
     3.4169   3.4203   3.4609   3.5014   3.5911   3.5917   3.7317   3.7479
     3.8468   3.9182   3.9398   4.0088   4.0609   4.1474   4.2136   4.4481
     5.7172   5.7244   6.9145   7.4332   7.5525   9.5554  10.4974  10.9023
    11.5031  11.8607  12.3063  12.6139  12.6266  12.8301  12.9500  13.1127
    13.2162  13.3193  13.3829  13.5143  13.5256  13.6887  13.7316  13.8287
    13.8306  13.8792  14.3127  14.3917  14.4902

     occupation numbers 
     1.0000   1.0000   1.0000   1.0000   1.0000   1.0000   1.0000   1.0000
     1.0000   1.0000   1.0000   1.0000   1.0000   1.0000   1.0000   1.0000
     1.0000   1.0000   1.0000   1.0000   1.0000   1.0000   1.0000   1.0000
     1.0000   1.0000   1.0000   1.0000   1.0000   1.0000   1.0000   1.0000
     1.0000   1.0000   1.0000   1.0000   1.0000   1.0000   1.0000   1.0000
     1.0000   1.0000   1.0000   1.0000   1.0000   1.0000   1.0000   1.0000
     1.0000   1.0000   1.0000   1.0000   1.0000   1.0000   1.0000   1.0000
     1.0000   1.0000   1.0000   1.0000   1.0000   1.0000   1.0000   1.0000
     1.0000   1.0000   1.0000   1.0000   1.0000   1.0000   1.0000   1.0000
     1.0000   1.0000   1.0000   1.0000   1.0000   1.0000   1.0000   1.0000
     1.0000   1.0000   1.0000   1.0000   1.0000   1.0000   1.0000   1.0000
     1.0000   1.0000   1.0000   1.0000   1.0000   1.0000   1.0000   1.0000
     1.0000   1.0000   1.0000   1.0000   1.0000   1.0000   1.0000   1.0000
     1.0000   1.0000   1.0000   1.0000   1.0000   1.0000   1.0000   1.0000
     1.0000   1.0000   1.0000   1.0000   1.0000   1.0000   1.0000   1.0000
     1.0000   1.0000   1.0000   1.0000   1.0000   1.0000   1.0000   1.0000
     1.0000   1.0000   1.0000   1.0000   1.0000   0.0000   0.0000   0.0000
     0.0000   0.0000   0.0000   0.0000   0.0000   0.0000   0.0000   0.0000
     0.0000   0.0000   0.0000   0.0000   0.0000   0.0000   0.0000   0.0000
     0.0000   0.0000   0.0000   0.0000   0.0000

          k = 0.0000 0.1921 0.1758 ( 25924 PWs)   bands (ev):

   -80.7616 -67.5282 -67.5189 -67.3740 -67.0933 -66.9595 -47.7405 -46.7694
   -45.9685 -34.3025 -34.2812 -34.2785 -34.2720 -34.2657 -34.2576 -34.1350
   -34.1338 -34.1096 -33.8505 -33.8452 -33.8417 -33.7298 -33.7229 -33.6817
   -23.0097 -23.0059 -15.0477 -15.0209 -14.1319 -14.1062 -13.6118 -13.5872
   -13.3270 -13.2269 -13.1695 -13.0712 -12.9616 -12.9175 -12.8707 -12.8094
   -12.7422 -12.6100 -12.4390 -12.3839 -12.2346 -12.2016 -12.1834 -12.0367
   -11.2336 -11.0039  -6.5832  -6.5684  -6.4994  -6.4935  -6.4841  -6.4833
    -4.2189  -4.1736  -2.5111  -2.4546  -1.7502  -1.3824  -1.0676  -1.0621
    -0.9593  -0.9228  -0.7211  -0.6810  -0.4841  -0.3412  -0.2643  -0.1942
    -0.0084   0.1730   0.1915   0.4805   0.5588   0.5666   0.7681   0.8937
     1.0027   1.0781   1.1226   1.3254   1.4858   1.5452   1.6558   1.7020
     1.8586   1.8948   2.0340   2.0808   2.1378   2.2223   2.2978   2.3280
     2.3886   2.4429   2.5061   2.6115   2.6886   2.7103   2.7628   2.8010
     2.8476   2.9736   3.0365   3.1134   3.1383   3.2035   3.2499   3.3625
     3.3953   3.4463   3.4610   3.5176   3.5449   3.6244   3.6773   3.7179
     3.8935   3.9228   3.9421   3.9913   4.0314   4.1976   4.2424   4.4430
     5.7131   5.7260   6.9151   7.4357   7.5469   9.8256  10.4804  10.6853
    11.1992  11.8551  12.2993  12.6418  12.7450  12.9361  13.1213  13.1663
    13.2401  13.3363  13.4526  13.4788  13.6075  13.6281  13.6781  13.7779
    13.8435  13.9890  14.2546  14.3165  14.4371

     occupation numbers 
     1.0000   1.0000   1.0000   1.0000   1.0000   1.0000   1.0000   1.0000
     1.0000   1.0000   1.0000   1.0000   1.0000   1.0000   1.0000   1.0000
     1.0000   1.0000   1.0000   1.0000   1.0000   1.0000   1.0000   1.0000
     1.0000   1.0000   1.0000   1.0000   1.0000   1.0000   1.0000   1.0000
     1.0000   1.0000   1.0000   1.0000   1.0000   1.0000   1.0000   1.0000
     1.0000   1.0000   1.0000   1.0000   1.0000   1.0000   1.0000   1.0000
     1.0000   1.0000   1.0000   1.0000   1.0000   1.0000   1.0000   1.0000
     1.0000   1.0000   1.0000   1.0000   1.0000   1.0000   1.0000   1.0000
     1.0000   1.0000   1.0000   1.0000   1.0000   1.0000   1.0000   1.0000
     1.0000   1.0000   1.0000   1.0000   1.0000   1.0000   1.0000   1.0000
     1.0000   1.0000   1.0000   1.0000   1.0000   1.0000   1.0000   1.0000
     1.0000   1.0000   1.0000   1.0000   1.0000   1.0000   1.0000   1.0000
     1.0000   1.0000   1.0000   1.0000   1.0000   1.0000   1.0000   1.0000
     1.0000   1.0000   1.0000   1.0000   1.0000   1.0000   1.0000   1.0000
     1.0000   1.0000   1.0000   1.0000   1.0000   1.0000   1.0000   1.0000
     1.0000   1.0000   1.0000   1.0000   1.0000   1.0000   1.0000   1.0000
     1.0000   1.0000   1.0000   1.0000   1.0000   0.0000   0.0000   0.0000
     0.0000   0.0000   0.0000   0.0000   0.0000   0.0000   0.0000   0.0000
     0.0000   0.0000   0.0000   0.0000   0.0000   0.0000   0.0000   0.0000
     0.0000   0.0000   0.0000   0.0000   0.0000

          k = 0.1667 0.0000 0.0301 ( 25941 PWs)   bands (ev):

   -80.7616 -67.5282 -67.5189 -67.3740 -67.0933 -66.9595 -47.7405 -46.7694
   -45.9685 -34.3019 -34.2838 -34.2766 -34.2719 -34.2657 -34.2577 -34.1350
   -34.1338 -34.1097 -33.8504 -33.8453 -33.8417 -33.7296 -33.7230 -33.6818
   -23.0096 -23.0057 -15.0068 -14.9544 -14.1302 -14.0868 -13.7220 -13.6903
   -13.3369 -13.2328 -13.1772 -13.0590 -12.9611 -12.8563 -12.8019 -12.7931
   -12.7239 -12.6166 -12.4708 -12.3934 -12.3011 -12.2527 -12.1676 -12.0245
   -11.2316 -11.0072  -6.5880  -6.5671  -6.4989  -6.4958  -6.4809  -6.4789
    -4.1077  -4.0461  -2.3568  -2.2545  -1.8087  -1.4265  -1.4134  -1.2954
    -0.8835  -0.7815  -0.6956  -0.6288  -0.4381  -0.3591  -0.2872  -0.1465
     0.0555   0.1307   0.2548   0.4896   0.5499   0.6497   0.6850   0.7989
     1.0802   1.1869   1.2057   1.2668   1.3508   1.4378   1.5562   1.6358
     1.7125   1.9330   1.9635   2.0288   2.0800   2.1441   2.2938   2.3450
     2.3889   2.4484   2.5654   2.6713   2.7057   2.7206   2.8228   2.8720
     2.8753   2.9837   3.0631   3.0826   3.1530   3.1852   3.2517   3.2897
     3.3339   3.3691   3.4643   3.5078   3.6300   3.6421   3.7101   3.7940
     3.8391   3.8643   3.9152   3.9577   4.0723   4.0996   4.3301   4.3953
     5.6855   5.7173   6.9201   7.4259   7.5905   9.4774  10.8439  11.3479
    11.7494  12.0265  12.1783  12.4232  12.5817  12.7933  12.9633  13.0699
    13.1585  13.3110  13.3320  13.5821  13.6175  13.6806  13.7439  13.8383
    13.8877  14.1601  14.1898  14.2708  14.3904

     occupation numbers 
     1.0000   1.0000   1.0000   1.0000   1.0000   1.0000   1.0000   1.0000
     1.0000   1.0000   1.0000   1.0000   1.0000   1.0000   1.0000   1.0000
     1.0000   1.0000   1.0000   1.0000   1.0000   1.0000   1.0000   1.0000
     1.0000   1.0000   1.0000   1.0000   1.0000   1.0000   1.0000   1.0000
     1.0000   1.0000   1.0000   1.0000   1.0000   1.0000   1.0000   1.0000
     1.0000   1.0000   1.0000   1.0000   1.0000   1.0000   1.0000   1.0000
     1.0000   1.0000   1.0000   1.0000   1.0000   1.0000   1.0000   1.0000
     1.0000   1.0000   1.0000   1.0000   1.0000   1.0000   1.0000   1.0000
     1.0000   1.0000   1.0000   1.0000   1.0000   1.0000   1.0000   1.0000
     1.0000   1.0000   1.0000   1.0000   1.0000   1.0000   1.0000   1.0000
     1.0000   1.0000   1.0000   1.0000   1.0000   1.0000   1.0000   1.0000
     1.0000   1.0000   1.0000   1.0000   1.0000   1.0000   1.0000   1.0000
     1.0000   1.0000   1.0000   1.0000   1.0000   1.0000   1.0000   1.0000
     1.0000   1.0000   1.0000   1.0000   1.0000   1.0000   1.0000   1.0000
     1.0000   1.0000   1.0000   1.0000   1.0000   1.0000   1.0000   1.0000
     1.0000   1.0000   1.0000   1.0000   1.0000   1.0000   1.0000   1.0000
     1.0000   1.0000   1.0000   1.0000   1.0000   0.0000   0.0000   0.0000
     0.0000   0.0000   0.0000   0.0000   0.0000   0.0000   0.0000   0.0000
     0.0000   0.0000   0.0000   0.0000   0.0000   0.0000   0.0000   0.0000
     0.0000   0.0000   0.0000   0.0000   0.0000

          k = 0.1667 0.0000 0.2059 ( 25961 PWs)   bands (ev):

   -80.7616 -67.5282 -67.5189 -67.3740 -67.0933 -66.9595 -47.7405 -46.7694
   -45.9685 -34.3019 -34.2838 -34.2766 -34.2719 -34.2658 -34.2577 -34.1350
   -34.1338 -34.1097 -33.8504 -33.8453 -33.8417 -33.7296 -33.7230 -33.6818
   -23.0096 -23.0057 -14.9906 -14.9716 -14.1201 -14.0974 -13.7177 -13.6947
   -13.3295 -13.2304 -13.1910 -13.0520 -12.9610 -12.8528 -12.8128 -12.7902
   -12.7173 -12.6210 -12.4651 -12.4001 -12.2927 -12.2621 -12.1555 -12.0336
   -11.2311 -11.0082  -6.5881  -6.5671  -6.4989  -6.4958  -6.4808  -6.4789
    -4.1086  -4.0454  -2.3345  -2.2816  -1.7774  -1.4570  -1.3894  -1.2810
    -0.8778  -0.7923  -0.7076  -0.6043  -0.4362  -0.3320  -0.3032  -0.2677
     0.0987   0.1718   0.1973   0.4110   0.5311   0.6533   0.6561   0.8553
     1.1443   1.1596   1.2339   1.2444   1.3567   1.4882   1.5594   1.6654
     1.7622   1.9252   1.9971   2.0285   2.1536   2.2241   2.2523   2.3258
     2.4197   2.4267   2.5381   2.6174   2.6575   2.7193   2.7499   2.7886
     2.8859   3.0291   3.0312   3.1197   3.1415   3.2025   3.2284   3.2972
     3.3188   3.3747   3.4835   3.5374   3.5729   3.6684   3.7191   3.7433
     3.8618   3.8819   3.8983   3.9583   4.0219   4.1827   4.3305   4.3939
     5.6821   5.7170   6.9205   7.4258   7.5890   9.8418  10.3063  11.4370
    11.7696  11.8813  12.2281  12.3552  12.5408  12.8722  13.0990  13.2164
    13.2447  13.3753  13.4012  13.4102  13.6102  13.7034  13.7441  13.8467
    13.9100  13.9513  14.1067  14.3654  14.3846

     occupation numbers 
     1.0000   1.0000   1.0000   1.0000   1.0000   1.0000   1.0000   1.0000
     1.0000   1.0000   1.0000   1.0000   1.0000   1.0000   1.0000   1.0000
     1.0000   1.0000   1.0000   1.0000   1.0000   1.0000   1.0000   1.0000
     1.0000   1.0000   1.0000   1.0000   1.0000   1.0000   1.0000   1.0000
     1.0000   1.0000   1.0000   1.0000   1.0000   1.0000   1.0000   1.0000
     1.0000   1.0000   1.0000   1.0000   1.0000   1.0000   1.0000   1.0000
     1.0000   1.0000   1.0000   1.0000   1.0000   1.0000   1.0000   1.0000
     1.0000   1.0000   1.0000   1.0000   1.0000   1.0000   1.0000   1.0000
     1.0000   1.0000   1.0000   1.0000   1.0000   1.0000   1.0000   1.0000
     1.0000   1.0000   1.0000   1.0000   1.0000   1.0000   1.0000   1.0000
     1.0000   1.0000   1.0000   1.0000   1.0000   1.0000   1.0000   1.0000
     1.0000   1.0000   1.0000   1.0000   1.0000   1.0000   1.0000   1.0000
     1.0000   1.0000   1.0000   1.0000   1.0000   1.0000   1.0000   1.0000
     1.0000   1.0000   1.0000   1.0000   1.0000   1.0000   1.0000   1.0000
     1.0000   1.0000   1.0000   1.0000   1.0000   1.0000   1.0000   1.0000
     1.0000   1.0000   1.0000   1.0000   1.0000   1.0000   1.0000   1.0000
     1.0000   1.0000   1.0000   1.0000   1.0000   0.0000   0.0000   0.0000
     0.0000   0.0000   0.0000   0.0000   0.0000   0.0000   0.0000   0.0000
     0.0000   0.0000   0.0000   0.0000   0.0000   0.0000   0.0000   0.0000
     0.0000   0.0000   0.0000   0.0000   0.0000

          k = 0.1667 0.0000-0.1457 ( 25956 PWs)   bands (ev):

   -80.7616 -67.5282 -67.5189 -67.3740 -67.0933 -66.9595 -47.7405 -46.7694
   -45.9685 -34.3019 -34.2838 -34.2766 -34.2719 -34.2657 -34.2577 -34.1350
   -34.1338 -34.1097 -33.8504 -33.8453 -33.8417 -33.7296 -33.7230 -33.6818
   -23.0096 -23.0057 -14.9977 -14.9642 -14.1217 -14.0959 -13.7167 -13.6957
   -13.3327 -13.2209 -13.1973 -13.0541 -12.9603 -12.8522 -12.8146 -12.7854
   -12.7210 -12.6209 -12.4611 -12.4035 -12.2861 -12.2681 -12.1585 -12.0308
   -11.2309 -11.0081  -6.5882  -6.5672  -6.4989  -6.4958  -6.4807  -6.4789
    -4.0921  -4.0622  -2.3350  -2.2791  -1.7900  -1.4507  -1.3938  -1.2832
    -0.8684  -0.8056  -0.6953  -0.5910  -0.4562  -0.3502  -0.2944  -0.2380
     0.0597   0.1528   0.2198   0.4477   0.5675   0.6404   0.7145   0.8393
     1.0872   1.1729   1.2078   1.2479   1.3645   1.5207   1.5653   1.6004
     1.7622   1.9181   1.9865   2.0390   2.0868   2.1606   2.2697   2.3701
     2.3859   2.4281   2.5583   2.6121   2.7057   2.7138   2.7488   2.8529
     2.9171   2.9631   3.0591   3.0982   3.1498   3.2214   3.2659   3.2778
     3.3489   3.4190   3.4906   3.5113   3.5873   3.6405   3.6908   3.7641
     3.8370   3.8751   3.8931   3.9426   4.0458   4.1458   4.3367   4.3933
     5.6853   5.7181   6.9205   7.4254   7.5890   9.6633  10.5361  11.4755
    11.8126  11.8753  12.2614  12.3200  12.5810  12.9572  12.9869  13.0925
    13.1990  13.3046  13.4142  13.4434  13.5733  13.6487  13.7039  13.8587
    13.9183  14.0752  14.2148  14.3277  14.3676

     occupation numbers 
     1.0000   1.0000   1.0000   1.0000   1.0000   1.0000   1.0000   1.0000
     1.0000   1.0000   1.0000   1.0000   1.0000   1.0000   1.0000   1.0000
     1.0000   1.0000   1.0000   1.0000   1.0000   1.0000   1.0000   1.0000
     1.0000   1.0000   1.0000   1.0000   1.0000   1.0000   1.0000   1.0000
     1.0000   1.0000   1.0000   1.0000   1.0000   1.0000   1.0000   1.0000
     1.0000   1.0000   1.0000   1.0000   1.0000   1.0000   1.0000   1.0000
     1.0000   1.0000   1.0000   1.0000   1.0000   1.0000   1.0000   1.0000
     1.0000   1.0000   1.0000   1.0000   1.0000   1.0000   1.0000   1.0000
     1.0000   1.0000   1.0000   1.0000   1.0000   1.0000   1.0000   1.0000
     1.0000   1.0000   1.0000   1.0000   1.0000   1.0000   1.0000   1.0000
     1.0000   1.0000   1.0000   1.0000   1.0000   1.0000   1.0000   1.0000
     1.0000   1.0000   1.0000   1.0000   1.0000   1.0000   1.0000   1.0000
     1.0000   1.0000   1.0000   1.0000   1.0000   1.0000   1.0000   1.0000
     1.0000   1.0000   1.0000   1.0000   1.0000   1.0000   1.0000   1.0000
     1.0000   1.0000   1.0000   1.0000   1.0000   1.0000   1.0000   1.0000
     1.0000   1.0000   1.0000   1.0000   1.0000   1.0000   1.0000   1.0000
     1.0000   1.0000   1.0000   1.0000   1.0000   0.0000   0.0000   0.0000
     0.0000   0.0000   0.0000   0.0000   0.0000   0.0000   0.0000   0.0000
     0.0000   0.0000   0.0000   0.0000   0.0000   0.0000   0.0000   0.0000
     0.0000   0.0000   0.0000   0.0000   0.0000

          k = 0.1667 0.1921 0.0301 ( 25937 PWs)   bands (ev):

   -80.7616 -67.5282 -67.5189 -67.3740 -67.0933 -66.9595 -47.7405 -46.7694
   -45.9685 -34.3019 -34.2838 -34.2766 -34.2720 -34.2657 -34.2577 -34.1350
   -34.1338 -34.1097 -33.8504 -33.8453 -33.8417 -33.7296 -33.7230 -33.6818
   -23.0095 -23.0058 -15.0021 -14.9498 -14.1602 -14.1132 -13.7098 -13.6814
   -13.3030 -13.2045 -13.1004 -13.0465 -12.9629 -12.8946 -12.8847 -12.8054
   -12.7457 -12.6125 -12.4641 -12.3833 -12.2962 -12.2541 -12.1650 -12.0227
   -11.2304 -11.0069  -6.5852  -6.5705  -6.4985  -6.4920  -6.4844  -6.4794
    -4.0712  -4.0088  -2.5173  -2.4100  -1.7468  -1.3749  -1.2792  -1.2532
    -0.8765  -0.7890  -0.7601  -0.6209  -0.4484  -0.2847  -0.2466  -0.0962
     0.0094   0.1457   0.2266   0.4635   0.5268   0.6213   0.6941   0.7705
     1.0549   1.0985   1.1936   1.3022   1.3422   1.4573   1.5659   1.6712
     1.7207   1.9039   1.9363   2.0695   2.1342   2.2362   2.2773   2.3592
     2.4284   2.4958   2.5561   2.6184   2.6794   2.7756   2.8478   2.8684
     2.9229   2.9780   3.0156   3.0839   3.1455   3.1734   3.2532   3.3291
     3.3707   3.4188   3.4577   3.4954   3.5602   3.6148   3.7036   3.7598
     3.8195   3.8347   3.8909   3.9527   4.0562   4.0989   4.2449   4.3939
     5.6803   5.7260   6.9208   7.4376   7.5544   9.8305  10.6793  11.0554
    11.6046  11.9175  12.2848  12.6182  12.7049  12.8137  13.0428  13.0698
    13.2160  13.3254  13.3543  13.4884  13.5059  13.6335  13.7381  13.8019
    13.9502  14.0132  14.2540  14.4176  14.5686

     occupation numbers 
     1.0000   1.0000   1.0000   1.0000   1.0000   1.0000   1.0000   1.0000
     1.0000   1.0000   1.0000   1.0000   1.0000   1.0000   1.0000   1.0000
     1.0000   1.0000   1.0000   1.0000   1.0000   1.0000   1.0000   1.0000
     1.0000   1.0000   1.0000   1.0000   1.0000   1.0000   1.0000   1.0000
     1.0000   1.0000   1.0000   1.0000   1.0000   1.0000   1.0000   1.0000
     1.0000   1.0000   1.0000   1.0000   1.0000   1.0000   1.0000   1.0000
     1.0000   1.0000   1.0000   1.0000   1.0000   1.0000   1.0000   1.0000
     1.0000   1.0000   1.0000   1.0000   1.0000   1.0000   1.0000   1.0000
     1.0000   1.0000   1.0000   1.0000   1.0000   1.0000   1.0000   1.0000
     1.0000   1.0000   1.0000   1.0000   1.0000   1.0000   1.0000   1.0000
     1.0000   1.0000   1.0000   1.0000   1.0000   1.0000   1.0000   1.0000
     1.0000   1.0000   1.0000   1.0000   1.0000   1.0000   1.0000   1.0000
     1.0000   1.0000   1.0000   1.0000   1.0000   1.0000   1.0000   1.0000
     1.0000   1.0000   1.0000   1.0000   1.0000   1.0000   1.0000   1.0000
     1.0000   1.0000   1.0000   1.0000   1.0000   1.0000   1.0000   1.0000
     1.0000   1.0000   1.0000   1.0000   1.0000   1.0000   1.0000   1.0000
     1.0000   1.0000   1.0000   1.0000   1.0000   0.0000   0.0000   0.0000
     0.0000   0.0000   0.0000   0.0000   0.0000   0.0000   0.0000   0.0000
     0.0000   0.0000   0.0000   0.0000   0.0000   0.0000   0.0000   0.0000
     0.0000   0.0000   0.0000   0.0000   0.0000

          k = 0.1667 0.1921 0.2059 ( 25944 PWs)   bands (ev):

   -80.7616 -67.5282 -67.5189 -67.3740 -67.0933 -66.9595 -47.7405 -46.7694
   -45.9685 -34.3019 -34.2838 -34.2766 -34.2720 -34.2657 -34.2577 -34.1350
   -34.1338 -34.1097 -33.8504 -33.8453 -33.8417 -33.7296 -33.7230 -33.6818
   -23.0095 -23.0058 -14.9859 -14.9669 -14.1476 -14.1267 -13.7076 -13.6837
   -13.2992 -13.1958 -13.1218 -13.0325 -12.9634 -12.9083 -12.8734 -12.8047
   -12.7427 -12.6173 -12.4593 -12.3895 -12.2906 -12.2602 -12.1532 -12.0316
   -11.2299 -11.0078  -6.5853  -6.5705  -6.4984  -6.4919  -6.4843  -6.4794
    -4.0692  -4.0111  -2.4891  -2.4414  -1.7234  -1.3590  -1.3003  -1.2356
    -0.8731  -0.8061  -0.7470  -0.6051  -0.4485  -0.3479  -0.2286  -0.1567
     0.0533   0.1483   0.1832   0.4219   0.5039   0.6133   0.6785   0.8118
     1.0452   1.0971   1.2064   1.3380   1.3855   1.4963   1.5867   1.6922
     1.7996   1.8659   1.9310   2.0719   2.1900   2.2473   2.3052   2.3702
     2.4010   2.4840   2.5276   2.6283   2.6638   2.7078   2.7876   2.8266
     2.9092   2.9666   3.0586   3.0942   3.1329   3.1857   3.2401   3.2961
     3.3806   3.4195   3.4464   3.5203   3.5594   3.6040   3.6897   3.7237
     3.8208   3.8481   3.8988   3.9882   4.0127   4.1810   4.2324   4.3998
     5.6763   5.7258   6.9213   7.4385   7.5509  10.1392  10.5895  10.8811
    11.2879  11.9024  12.2773  12.6139  12.7716  12.8618  13.1171  13.2642
    13.3043  13.3548  13.4366  13.4701  13.5575  13.6651  13.7138  13.7687
    13.8675  14.0074  14.1705  14.3150  14.5261

     occupation numbers 
     1.0000   1.0000   1.0000   1.0000   1.0000   1.0000   1.0000   1.0000
     1.0000   1.0000   1.0000   1.0000   1.0000   1.0000   1.0000   1.0000
     1.0000   1.0000   1.0000   1.0000   1.0000   1.0000   1.0000   1.0000
     1.0000   1.0000   1.0000   1.0000   1.0000   1.0000   1.0000   1.0000
     1.0000   1.0000   1.0000   1.0000   1.0000   1.0000   1.0000   1.0000
     1.0000   1.0000   1.0000   1.0000   1.0000   1.0000   1.0000   1.0000
     1.0000   1.0000   1.0000   1.0000   1.0000   1.0000   1.0000   1.0000
     1.0000   1.0000   1.0000   1.0000   1.0000   1.0000   1.0000   1.0000
     1.0000   1.0000   1.0000   1.0000   1.0000   1.0000   1.0000   1.0000
     1.0000   1.0000   1.0000   1.0000   1.0000   1.0000   1.0000   1.0000
     1.0000   1.0000   1.0000   1.0000   1.0000   1.0000   1.0000   1.0000
     1.0000   1.0000   1.0000   1.0000   1.0000   1.0000   1.0000   1.0000
     1.0000   1.0000   1.0000   1.0000   1.0000   1.0000   1.0000   1.0000
     1.0000   1.0000   1.0000   1.0000   1.0000   1.0000   1.0000   1.0000
     1.0000   1.0000   1.0000   1.0000   1.0000   1.0000   1.0000   1.0000
     1.0000   1.0000   1.0000   1.0000   1.0000   1.0000   1.0000   1.0000
     1.0000   1.0000   1.0000   1.0000   1.0000   0.0000   0.0000   0.0000
     0.0000   0.0000   0.0000   0.0000   0.0000   0.0000   0.0000   0.0000
     0.0000   0.0000   0.0000   0.0000   0.0000   0.0000   0.0000   0.0000
     0.0000   0.0000   0.0000   0.0000   0.0000

          k = 0.1667 0.1921-0.1457 ( 25923 PWs)   bands (ev):

   -80.7616 -67.5282 -67.5189 -67.3740 -67.0933 -66.9595 -47.7405 -46.7694
   -45.9685 -34.3019 -34.2838 -34.2766 -34.2719 -34.2657 -34.2577 -34.1350
   -34.1338 -34.1097 -33.8504 -33.8453 -33.8417 -33.7296 -33.7230 -33.6818
   -23.0095 -23.0058 -14.9929 -14.9596 -14.1509 -14.1233 -13.7050 -13.6864
   -13.3006 -13.1967 -13.1159 -13.0388 -12.9625 -12.9056 -12.8740 -12.8075
   -12.7423 -12.6166 -12.4548 -12.3927 -12.2847 -12.2663 -12.1560 -12.0290
   -11.2297 -11.0077  -6.5853  -6.5706  -6.4985  -6.4919  -6.4842  -6.4794
    -4.0538  -4.0268  -2.4946  -2.4350  -1.7323  -1.3647  -1.3012  -1.2320
    -0.8574  -0.8179  -0.7317  -0.6143  -0.4687  -0.3068  -0.2525  -0.1411
     0.0193   0.1443   0.1881   0.4597   0.5328   0.6059   0.7275   0.8024
     1.0469   1.0646   1.1865   1.3127   1.3980   1.4893   1.5973   1.6849
     1.7611   1.8794   1.9067   2.0964   2.1404   2.2412   2.2919   2.3166
     2.4331   2.4834   2.5455   2.6222   2.6700   2.7280   2.8116   2.8346
     2.9226   3.0008   3.0664   3.0987   3.1348   3.1799   3.2313   3.3206
     3.3813   3.4287   3.4762   3.5177   3.5656   3.6142   3.6665   3.7432
     3.8129   3.8389   3.8669   3.9478   4.0487   4.1379   4.2467   4.3914
     5.6800   5.7272   6.9212   7.4368   7.5493  10.0068  10.7686  10.8306
    11.3853  11.9630  12.3110  12.6203  12.6981  12.8721  13.0656  13.1723
    13.2463  13.3291  13.4136  13.4692  13.5565  13.6547  13.7024  13.8648
    13.9172  13.9453  14.1246  14.3679  14.4737

     occupation numbers 
     1.0000   1.0000   1.0000   1.0000   1.0000   1.0000   1.0000   1.0000
     1.0000   1.0000   1.0000   1.0000   1.0000   1.0000   1.0000   1.0000
     1.0000   1.0000   1.0000   1.0000   1.0000   1.0000   1.0000   1.0000
     1.0000   1.0000   1.0000   1.0000   1.0000   1.0000   1.0000   1.0000
     1.0000   1.0000   1.0000   1.0000   1.0000   1.0000   1.0000   1.0000
     1.0000   1.0000   1.0000   1.0000   1.0000   1.0000   1.0000   1.0000
     1.0000   1.0000   1.0000   1.0000   1.0000   1.0000   1.0000   1.0000
     1.0000   1.0000   1.0000   1.0000   1.0000   1.0000   1.0000   1.0000
     1.0000   1.0000   1.0000   1.0000   1.0000   1.0000   1.0000   1.0000
     1.0000   1.0000   1.0000   1.0000   1.0000   1.0000   1.0000   1.0000
     1.0000   1.0000   1.0000   1.0000   1.0000   1.0000   1.0000   1.0000
     1.0000   1.0000   1.0000   1.0000   1.0000   1.0000   1.0000   1.0000
     1.0000   1.0000   1.0000   1.0000   1.0000   1.0000   1.0000   1.0000
     1.0000   1.0000   1.0000   1.0000   1.0000   1.0000   1.0000   1.0000
     1.0000   1.0000   1.0000   1.0000   1.0000   1.0000   1.0000   1.0000
     1.0000   1.0000   1.0000   1.0000   1.0000   1.0000   1.0000   1.0000
     1.0000   1.0000   1.0000   1.0000   1.0000   0.0000   0.0000   0.0000
     0.0000   0.0000   0.0000   0.0000   0.0000   0.0000   0.0000   0.0000
     0.0000   0.0000   0.0000   0.0000   0.0000   0.0000   0.0000   0.0000
     0.0000   0.0000   0.0000   0.0000   0.0000

          k = 0.3333 0.0000 0.0601 ( 25907 PWs)   bands (ev):

   -80.7616 -67.5282 -67.5190 -67.3740 -67.0933 -66.9595 -47.7405 -46.7693
   -45.9685 -34.3004 -34.2870 -34.2743 -34.2720 -34.2658 -34.2579 -34.1348
   -34.1340 -34.1097 -33.8501 -33.8455 -33.8416 -33.7293 -33.7232 -33.6821
   -23.0093 -23.0055 -14.8446 -14.7960 -14.2618 -14.2244 -13.8326 -13.7967
   -13.2597 -13.1349 -13.0584 -13.0330 -12.9554 -12.9082 -12.8259 -12.7919
   -12.7238 -12.6265 -12.5173 -12.4484 -12.3845 -12.3125 -12.1376 -12.0259
   -11.2253 -11.0149  -6.5903  -6.5732  -6.4956  -6.4910  -6.4827  -6.4726
    -3.6954  -3.6241  -2.4993  -2.3875  -1.7865  -1.6405  -1.4281  -1.2487
    -0.8906  -0.7082  -0.7033  -0.6507  -0.3685  -0.2839  -0.2122  -0.0956
    -0.0358   0.1839   0.2831   0.4128   0.5357   0.6237   0.6912   0.7402
     0.9924   1.1253   1.1356   1.2090   1.4136   1.4681   1.5669   1.5887
     1.6686   1.6832   1.8333   1.9878   2.0921   2.2477   2.3092   2.4026
     2.4366   2.5333   2.6287   2.7019   2.7045   2.7493   2.8294   2.8923
     2.9279   2.9899   3.0215   3.0564   3.1351   3.1782   3.2219   3.2402
     3.2656   3.3381   3.4950   3.5495   3.5731   3.6426   3.6509   3.6760
     3.7491   3.8012   3.8994   3.9491   3.9543   4.1031   4.2371   4.3231
     5.6183   5.7110   6.9300   7.4348   7.5912  10.2529  11.2579  11.4860
    11.9645  12.0812  12.2261  12.3132  12.7531  12.7612  12.7958  13.0612
    13.1898  13.2346  13.4336  13.5339  13.5756  13.6479  13.7664  13.9443
    13.9647  14.2155  14.2676  14.3601  14.4432

     occupation numbers 
     1.0000   1.0000   1.0000   1.0000   1.0000   1.0000   1.0000   1.0000
     1.0000   1.0000   1.0000   1.0000   1.0000   1.0000   1.0000   1.0000
     1.0000   1.0000   1.0000   1.0000   1.0000   1.0000   1.0000   1.0000
     1.0000   1.0000   1.0000   1.0000   1.0000   1.0000   1.0000   1.0000
     1.0000   1.0000   1.0000   1.0000   1.0000   1.0000   1.0000   1.0000
     1.0000   1.0000   1.0000   1.0000   1.0000   1.0000   1.0000   1.0000
     1.0000   1.0000   1.0000   1.0000   1.0000   1.0000   1.0000   1.0000
     1.0000   1.0000   1.0000   1.0000   1.0000   1.0000   1.0000   1.0000
     1.0000   1.0000   1.0000   1.0000   1.0000   1.0000   1.0000   1.0000
     1.0000   1.0000   1.0000   1.0000   1.0000   1.0000   1.0000   1.0000
     1.0000   1.0000   1.0000   1.0000   1.0000   1.0000   1.0000   1.0000
     1.0000   1.0000   1.0000   1.0000   1.0000   1.0000   1.0000   1.0000
     1.0000   1.0000   1.0000   1.0000   1.0000   1.0000   1.0000   1.0000
     1.0000   1.0000   1.0000   1.0000   1.0000   1.0000   1.0000   1.0000
     1.0000   1.0000   1.0000   1.0000   1.0000   1.0000   1.0000   1.0000
     1.0000   1.0000   1.0000   1.0000   1.0000   1.0000   1.0000   1.0000
     1.0000   1.0000   1.0000   1.0000   1.0000   0.0000   0.0000   0.0000
     0.0000   0.0000   0.0000   0.0000   0.0000   0.0000   0.0000   0.0000
[...]
     atom   18 type  6   force =    -0.00010144    0.00012518   -0.00694760
     atom   19 type  6   force =     0.00010144    0.00012518    0.00694760
     atom   20 type  6   force =     0.00015326   -0.00021103    0.00672276
     atom   21 type  6   force =    -0.00015326   -0.00021103   -0.00672276
     atom   22 type  6   force =    -0.00059739    0.00114922   -0.00263588
     atom   23 type  6   force =     0.00059739    0.00114922    0.00263588
     atom   24 type  6   force =     0.00473126   -0.00202810   -0.00561717
     atom   25 type  6   force =    -0.00473127   -0.00202809    0.00561714
     atom   26 type  6   force =    -0.00355522    0.00074984   -0.00719156
     atom   27 type  6   force =     0.00355522    0.00074985    0.00719154
     atom   28 type  6   force =    -0.00172723    0.00254354    0.00729285
     atom   29 type  6   force =     0.00172723    0.00254354   -0.00729285
     atom   30 type  6   force =     0.00103881   -0.00237612   -0.00745089
     atom   31 type  6   force =    -0.00103881   -0.00237612    0.00745089
     atom   32 type  6   force =    -0.00264272   -0.00343072   -0.00657869
     atom   33 type  6   force =     0.00264270   -0.00343072    0.00657870
     atom   34 type  6   force =     0.00099340    0.00425384    0.00660211
     atom   35 type  6   force =    -0.00099340    0.00425384   -0.00660211
     atom   36 type  6   force =     0.00000704    0.00054682    0.01130193
     atom   37 type  6   force =    -0.00000703    0.00054682   -0.01130193
     atom   38 type  6   force =     0.00127607   -0.00313982    0.01045351
     atom   39 type  6   force =    -0.00127606   -0.00313981   -0.01045349
     atom   40 type  3   force =     0.00000000    0.00000000    0.00000000
     atom   41 type  3   force =     0.00000000    0.00000000    0.00000000
     atom   42 type  3   force =     0.00000000    0.00000000    0.00000000
     atom   43 type  3   force =     0.00000000    0.00000000    0.00000000
     atom   44 type  2   force =    -0.00000000    0.00408913   -0.00000000
     The Hubbard contrib.    to forces
     atom    1 type  4   force =     0.00000000    0.00000000    0.00000000
     atom    2 type  4   force =     0.00000000    0.00000000    0.00000000
     atom    3 type  5   force =     0.00000000    0.00000000    0.00000000
     atom    4 type  5   force =     0.00000000    0.00000000    0.00000000
     atom    5 type  5   force =     0.00000000    0.00000000    0.00000000
     atom    6 type  5   force =     0.00000000    0.00000000    0.00000000
     atom    7 type  5   force =     0.00000000    0.00000000    0.00000000
     atom    8 type  7   force =     0.00000000    0.00000000    0.00000000
     atom    9 type  7   force =     0.00000000    0.00000000    0.00000000
     atom   10 type  7   force =     0.00000000    0.00000000    0.00000000
     atom   11 type  7   force =     0.00000000    0.00000000    0.00000000
     atom   12 type  7   force =     0.00000000    0.00000000    0.00000000
     atom   13 type  7   force =     0.00000000    0.00000000    0.00000000
     atom   14 type  1   force =     0.00000000    0.00000000    0.00000000
     atom   15 type  1   force =     0.00000000    0.00000000    0.00000000
     atom   16 type  6   force =     0.00000000    0.00000000    0.00000000
     atom   17 type  6   force =     0.00000000    0.00000000    0.00000000
     atom   18 type  6   force =     0.00000000    0.00000000    0.00000000
     atom   19 type  6   force =     0.00000000    0.00000000    0.00000000
     atom   20 type  6   force =     0.00000000    0.00000000    0.00000000
     atom   21 type  6   force =     0.00000000    0.00000000    0.00000000
     atom   22 type  6   force =     0.00000000    0.00000000    0.00000000
     atom   23 type  6   force =     0.00000000    0.00000000    0.00000000
     atom   24 type  6   force =     0.00000000    0.00000000    0.00000000
     atom   25 type  6   force =     0.00000000    0.00000000    0.00000000
     atom   26 type  6   force =     0.00000000    0.00000000    0.00000000
     atom   27 type  6   force =     0.00000000    0.00000000    0.00000000
     atom   28 type  6   force =     0.00000000    0.00000000    0.00000000
     atom   29 type  6   force =     0.00000000    0.00000000    0.00000000
     atom   30 type  6   force =     0.00000000    0.00000000    0.00000000
     atom   31 type  6   force =     0.00000000    0.00000000    0.00000000
     atom   32 type  6   force =     0.00000000    0.00000000    0.00000000
     atom   33 type  6   force =     0.00000000    0.00000000    0.00000000
     atom   34 type  6   force =     0.00000000    0.00000000    0.00000000
     atom   35 type  6   force =     0.00000000    0.00000000    0.00000000
     atom   36 type  6   force =     0.00000000    0.00000000    0.00000000
     atom   37 type  6   force =     0.00000000    0.00000000    0.00000000
     atom   38 type  6   force =     0.00000000    0.00000000    0.00000000
     atom   39 type  6   force =     0.00000000    0.00000000    0.00000000
     atom   40 type  3   force =     0.00000000    0.00000000    0.00000000
     atom   41 type  3   force =     0.00000000    0.00000000    0.00000000
     atom   42 type  3   force =     0.00000000    0.00000000    0.00000000
     atom   43 type  3   force =     0.00000000    0.00000000    0.00000000
     atom   44 type  2   force =     0.00000000    0.00000000    0.00000000
     The SCF correction term to forces
     atom    1 type  4   force =    -0.00000000   -0.00000346    0.00000000
     atom    2 type  4   force =     0.00000000    0.00000077    0.00000000
     atom    3 type  5   force =    -0.00000000    0.00007055   -0.00000000
     atom    4 type  5   force =     0.00000000   -0.00003825   -0.00000000
     atom    5 type  5   force =    -0.00000000   -0.00005535   -0.00000000
     atom    6 type  5   force =    -0.00000000   -0.00006639   -0.00000000
     atom    7 type  5   force =     0.00000000    0.00003761   -0.00000000
     atom    8 type  7   force =     0.00000218   -0.00000807   -0.00000465
     atom    9 type  7   force =    -0.00000218   -0.00000807    0.00000465
     atom   10 type  7   force =    -0.00000247    0.00001446    0.00001583
     atom   11 type  7   force =     0.00000247    0.00001446   -0.00001583
     atom   12 type  7   force =    -0.00000138    0.00000111   -0.00001805
     atom   13 type  7   force =     0.00000138    0.00000111    0.00001805
     atom   14 type  1   force =     0.00000091   -0.00000509    0.00000391
     atom   15 type  1   force =    -0.00000091   -0.00000509   -0.00000391
     atom   16 type  6   force =     0.00001138   -0.00002181    0.00001026
     atom   17 type  6   force =    -0.00001138   -0.00002181   -0.00001026
     atom   18 type  6   force =    -0.00000048    0.00003915    0.00001985
     atom   19 type  6   force =     0.00000048    0.00003915   -0.00001985
     atom   20 type  6   force =     0.00000812    0.00000376   -0.00001987
     atom   21 type  6   force =    -0.00000812    0.00000376    0.00001987
     atom   22 type  6   force =     0.00001532   -0.00002387   -0.00002384
     atom   23 type  6   force =    -0.00001532   -0.00002387    0.00002384
     atom   24 type  6   force =    -0.00000183   -0.00001722    0.00000225
     atom   25 type  6   force =     0.00000183   -0.00001722   -0.00000225
     atom   26 type  6   force =     0.00001442    0.00002013    0.00000481
     atom   27 type  6   force =    -0.00001442    0.00002013   -0.00000481
     atom   28 type  6   force =    -0.00000549    0.00002319    0.00002574
     atom   29 type  6   force =     0.00000549    0.00002319   -0.00002574
     atom   30 type  6   force =     0.00000428    0.00002555   -0.00000964
     atom   31 type  6   force =    -0.00000428    0.00002555    0.00000964
     atom   32 type  6   force =     0.00001035   -0.00001598   -0.00003303
     atom   33 type  6   force =    -0.00001035   -0.00001598    0.00003303
     atom   34 type  6   force =     0.00000597   -0.00002118    0.00000543
     atom   35 type  6   force =    -0.00000597   -0.00002118   -0.00000543
     atom   36 type  6   force =     0.00000121   -0.00002423   -0.00001709
     atom   37 type  6   force =    -0.00000121   -0.00002423    0.00001709
     atom   38 type  6   force =    -0.00001056    0.00002893   -0.00000733
     atom   39 type  6   force =     0.00001056    0.00002893    0.00000733
     atom   40 type  3   force =     0.00000005   -0.00000284   -0.00000551
     atom   41 type  3   force =    -0.00000005   -0.00000284    0.00000551
     atom   42 type  3   force =    -0.00000048    0.00000258   -0.00000181
     atom   43 type  3   force =     0.00000048    0.00000258    0.00000181
     atom   44 type  2   force =    -0.00000000   -0.00000021   -0.00000000

     DFT-D3 dispersion contribution to forces:
     atom    1 type  4   force =    -0.00000000    0.00058184    0.00000000
     atom    2 type  4   force =     0.00000000   -0.00049458    0.00000000
     atom    3 type  5   force =     0.00000000    0.00036717   -0.00000000
     atom    4 type  5   force =     0.00000000    0.00066647   -0.00000000
     atom    5 type  5   force =    -0.00000000   -0.00111309   -0.00000000
     atom    6 type  5   force =     0.00000000   -0.00050132    0.00000000
     atom    7 type  5   force =    -0.00000000    0.00108429    0.00000000
     atom    8 type  7   force =     0.00017239   -0.00007880   -0.00021096
     atom    9 type  7   force =    -0.00017239   -0.00007880    0.00021096
     atom   10 type  7   force =     0.00008540   -0.00002905    0.00035420
     atom   11 type  7   force =    -0.00008540   -0.00002905   -0.00035420
     atom   12 type  7   force =    -0.00003236    0.00016511   -0.00031145
     atom   13 type  7   force =     0.00003236    0.00016511    0.00031145
     atom   14 type  1   force =     0.00016899    0.00001229   -0.00115752
     atom   15 type  1   force =    -0.00016899    0.00001229    0.00115752
     atom   16 type  6   force =     0.00013895    0.00002241    0.00050501
     atom   17 type  6   force =    -0.00013895    0.00002241   -0.00050501
     atom   18 type  6   force =     0.00001108   -0.00002124   -0.00032686
     atom   19 type  6   force =    -0.00001108   -0.00002124    0.00032686
     atom   20 type  6   force =    -0.00001473   -0.00005446    0.00037838
     atom   21 type  6   force =     0.00001473   -0.00005446   -0.00037838
     atom   22 type  6   force =     0.00000882   -0.00007590    0.00006217
     atom   23 type  6   force =    -0.00000882   -0.00007590   -0.00006217
     atom   24 type  6   force =    -0.00022036    0.00106962    0.00011945
     atom   25 type  6   force =     0.00022036    0.00106962   -0.00011945
     atom   26 type  6   force =     0.00080067    0.00004821    0.00015845
     atom   27 type  6   force =    -0.00080067    0.00004821   -0.00015845
     atom   28 type  6   force =     0.00041738   -0.00061983   -0.00015604
     atom   29 type  6   force =    -0.00041738   -0.00061983    0.00015604
     atom   30 type  6   force =    -0.00029687    0.00045750    0.00019462
     atom   31 type  6   force =     0.00029687    0.00045750   -0.00019462
     atom   32 type  6   force =     0.00087077   -0.00041375    0.00036033
     atom   33 type  6   force =    -0.00087077   -0.00041375   -0.00036033
     atom   34 type  6   force =     0.00061242   -0.00046880   -0.00033204
     atom   35 type  6   force =    -0.00061242   -0.00046880    0.00033204
     atom   36 type  6   force =    -0.00003606   -0.00002700   -0.00052309
     atom   37 type  6   force =     0.00003606   -0.00002700    0.00052309
     atom   38 type  6   force =    -0.00004246    0.00014942   -0.00046688
     atom   39 type  6   force =     0.00004246    0.00014942    0.00046688
     atom   40 type  3   force =     0.00000289    0.00011299   -0.00030110
     atom   41 type  3   force =    -0.00000289    0.00011299    0.00030110
     atom   42 type  3   force =     0.00014393   -0.00050322   -0.00010943
     atom   43 type  3   force =    -0.00014393   -0.00050322    0.00010943
     atom   44 type  2   force =    -0.00000000   -0.00008178   -0.00000000

     Total force =     0.004114     Total SCF correction =     0.000200

     DFT-D3 dispersion Force =     0.004388
     Energy error            =      3.0E-05 Ry
     Gradient error          =      9.4E-04 Ry/Bohr

     bfgs converged in  15 scf cycles and  14 bfgs steps
     (criteria: energy <  1.0E-04 Ry, force <  1.0E-03 Ry/Bohr)

     End of BFGS Geometry Optimization

     Final energy             =   -2631.2461079230 Ry

     File ./temp/phl-fe1-fe6.bfgs deleted, as requested
Begin final coordinates

ATOMIC_POSITIONS (crystal)
K                0.0000000000        0.4954789771        0.0000000000
K                0.5000000000        0.0025164583        0.0000000000
Mg              -0.0000000000        0.0044252207        0.5000000000
Mg              -0.0000000000        0.3332686547        0.5000000000
Mg              -0.0000000000        0.6653499944        0.5000000000
Mg               0.5000000000        0.4950152948        0.5000000000
Mg               0.5000000000        0.8328205326        0.5000000000
Si               0.0795138646        0.1647367024        0.2207585047
Si               0.9204861214        0.1647367024        0.7792415253
Si               0.9353744564        0.8341529033        0.7718945371
Si               0.0646255436        0.8341529033        0.2281054629
Si               0.5631447189        0.6662650480        0.2259270003
Si               0.4368552811        0.6662650480        0.7740729847
Al               0.4169375100        0.3310275597        0.7772350582
Al               0.5830624900        0.3310275597        0.2227649418
O                0.1132950599        0.1639346456        0.3827198853
O                0.8867049101        0.1639346456        0.6172801437
O                0.8745413726        0.8332534223        0.6107775385
O                0.1254586274        0.8332534223        0.3892224615
O                0.6249154818        0.6683792085        0.3877552479
O                0.3750845182        0.6683792085        0.6122447521
O                0.3595664246        0.3370003678        0.6045636795
O                0.6404335754        0.3370003678        0.3954363205
O                0.3425014518        0.2014883223        0.1660932165
O                0.6574985482        0.2014883223        0.8339067535
O                0.9944210407        0.9965672035        0.1657236354
O                0.0055789593        0.9965672035        0.8342763496
O                0.6837593063        0.7750375801        0.8318114478
O                0.3162406937        0.7750375801        0.1681885522
O                0.8153014382        0.7312046846        0.1674344471
O                0.1846985618        0.7312046846        0.8325655529
O                0.4940834460        0.5077855742        0.1606183144
O                0.5059165240        0.5077855742        0.8393817006
O                0.1460746886        0.2766314363        0.8441161699
O                0.8539253264        0.2766314363        0.1558838301
O                0.1304699190        0.5043808774        0.3935815466
O                0.8695300960        0.5043808774        0.6064184534
O                0.6335740983        0.9945834464        0.3960372125
O                0.3664259017        0.9945834464        0.6039627575
H                0.0985660786        0.4955115740        0.2978418248
H                0.9014339514        0.4955115740        0.7021581752
H                0.5869329525        0.0172603921        0.3023371483
H                0.4130670475        0.0172603921        0.6976628517
Fe               0.5000000000        0.1727180230        0.5000000000
End final coordinates



     Writing all to output data dir ./temp/phl-fe1-fe6.save/ :
     XML data file, charge density, pseudopotentials, collected wavefunctions

     init_run     :     81.82s CPU     85.33s WALL (       1 calls)
     electrons    :  39741.54s CPU  40319.80s WALL (      15 calls)
     update_pot   :     35.20s CPU     35.43s WALL (      14 calls)
     forces       :    739.04s CPU    752.35s WALL (      15 calls)
     force_dftd3  :     50.01s CPU     50.94s WALL (      15 calls)

     Called by init_run:
     wfcinit      :     75.32s CPU     77.44s WALL (       1 calls)
     wfcinit:atom :      0.38s CPU      0.63s WALL (      40 calls)
     wfcinit:wfcr :     71.89s CPU     73.24s WALL (      40 calls)
     potinit      :      2.85s CPU      2.92s WALL (       1 calls)
     hinit0       :      0.89s CPU      1.07s WALL (       1 calls)

     Called by electrons:
     c_bands      :  34580.44s CPU  34978.84s WALL (     136 calls)
     sum_band     :   4500.27s CPU   4610.50s WALL (     136 calls)
     v_of_rho     :     69.17s CPU     71.31s WALL (     140 calls)
     v_h          :      3.37s CPU      3.50s WALL (     140 calls)
     v_xc         :     72.52s CPU     74.93s WALL (     155 calls)
     newd         :    343.77s CPU    414.38s WALL (     140 calls)
     PAW_pot      :    284.55s CPU    284.93s WALL (     154 calls)
     mix_rho      :     12.78s CPU     13.23s WALL (     136 calls)
     energy_dftd3 :     39.79s CPU     40.74s WALL (      15 calls)

     Called by c_bands:
     init_us_2    :    417.01s CPU    417.47s WALL (   12080 calls)
     cegterg      :  34091.84s CPU  34481.73s WALL (    5440 calls)

     Called by sum_band:
     sum_band:wei :      0.06s CPU      0.18s WALL (     136 calls)
     sum_band:loo :   3687.90s CPU   3720.34s WALL (     136 calls)
     sum_band:buf :     51.61s CPU     51.69s WALL (    5440 calls)
     sum_band:ini :    188.71s CPU    188.82s WALL (    5440 calls)
     sum_band:cal :   1313.24s CPU   1315.43s WALL (    6000 calls)
     sum_band:bec :      5.73s CPU      5.80s WALL (    6000 calls)
     addusdens    :    803.59s CPU    879.00s WALL (     136 calls)
                                        0.00s GPU  (     136 calls)
     addusd:skk   :      3.73s CPU      5.38s WALL (     952 calls)
                                        0.00s GPU  (     952 calls)

     Called by *egterg:
     cdiaghg      :   2125.94s CPU   2154.52s WALL (   38765 calls)
     cegterg:over :   3517.44s CPU   3520.66s WALL (   34325 calls)
     cegterg:upda :   2804.12s CPU   2818.27s WALL (   34325 calls)
     cegterg:last :   5023.20s CPU   5026.36s WALL (   14393 calls)
     cdiaghg:chol :     75.33s CPU     75.52s WALL (   38765 calls)
     cdiaghg:inve :     51.74s CPU     51.89s WALL (   38765 calls)
     cdiaghg:para :    558.60s CPU    570.45s WALL (   77530 calls)
     h_psi        :  16064.90s CPU  16316.56s WALL (   39805 calls)
     s_psi        :   3593.68s CPU   3597.33s WALL (   39805 calls)
     g_psi        :     66.46s CPU     66.59s WALL (   34325 calls)

     Called by h_psi:
     h_psi:calbec :   3769.98s CPU   3778.94s WALL (   39805 calls)
     vloc_psi     :   8589.83s CPU   8785.60s WALL (   39805 calls)
     add_vuspsi   :   3612.19s CPU   3617.47s WALL (   39805 calls)

     General routines
     calbec       :   5610.05s CPU   5622.09s WALL (   48205 calls)
     fft          :     47.63s CPU     50.81s WALL (    3731 calls)
     ffts         :      1.24s CPU      1.29s WALL (     552 calls)
     fftw         :   5888.71s CPU   6004.17s WALL ( 6041064 calls)
     interpolate  :      5.62s CPU      5.79s WALL (     280 calls)

     Parallel routines

     PAW routines
     PAW_pot      :    284.55s CPU    284.93s WALL (     154 calls)
     PAW_symme    :      0.15s CPU      0.22s WALL (     290 calls)

     PWSCF        :     11h20m CPU     11h30m WALL


   This run was terminated on:  23:13:58  14Jan2025            

=------------------------------------------------------------------------------=
   JOB DONE.
=------------------------------------------------------------------------------=
