
     Program PWSCF v.7.3.1 starts on  4Mar2025 at  9: 8: 3 

     This program is part of the open-source Quantum ESPRESSO suite
     for quantum simulation of materials; please cite
         "P. Giannozzi et al., J. Phys.:Condens. Matter 21 395502 (2009);
         "P. Giannozzi et al., J. Phys.:Condens. Matter 29 465901 (2017);
         "P. Giannozzi et al., J. Chem. Phys. 152 154105 (2020);
          URL http://www.quantum-espresso.org", 
     in publications or presentations arising from this work. More details at
     http://www.quantum-espresso.org/quote

     Parallel version (MPI), running on     6 processors

     MPI processes distributed on     1 nodes
     5673 MiB available memory on the printing compute node when the environment starts

     Reading input from vc_relax.in

     Current dimensions of program PWSCF are:
     Max number of different atomic species (ntypx) = 10
     Max number of k-points (npk) =  40000
     Max angular momentum in pseudopotentials (lmaxx) =  4
     file Al.pbe-n-kjpaw_psl.1.0.0.UPF: wavefunction(s)  3S 3P renormalized
     file Ti.pbe-spn-kjpaw_psl.1.0.0.UPF: wavefunction(s)  3S 3P 3D renormalized
     file H.pbe-kjpaw_psl.1.0.0.UPF: wavefunction(s)  1S renormalized
     file K.pbe-spn-kjpaw_psl.1.0.0.UPF: wavefunction(s)  3S renormalized
     file Mg.pbe-spnl-kjpaw_psl.1.0.0.UPF: wavefunction(s)  2P renormalized
     file O.pbe-n-kjpaw_psl.1.0.0.UPF: wavefunction(s)  2S 2P renormalized
     file Si.pbe-n-kjpaw_psl.1.0.0.UPF: wavefunction(s)  3S 3P renormalized

     R & G space division:  proc/nbgrp/npool/nimage =       6
     Subspace diagonalization in iterative solution of the eigenvalue problem:
     one sub-group per band group will be used
     custom distributed-memory algorithm (size of sub-group:  2*  2 procs)


     Parallelization info
     --------------------
     sticks:   dense  smooth     PW     G-vecs:    dense   smooth      PW
     Min        1105     554    150                97744    34578    4918
     Max        1106     555    151                97745    34580    4920
     Sum        6633    3329    905               586467   207475   29511

     Using Slab Decomposition



     bravais-lattice index     =          -12
     lattice parameter (alat)  =      10.0136  a.u.
     unit-cell volume          =    3303.4414 (a.u.)^3
     number of atoms/cell      =           44
     number of atomic types    =            7
     number of electrons       =       258.00
     number of Kohn-Sham states=          155
     kinetic-energy cutoff     =      60.0000  Ry
     charge density cutoff     =     480.0000  Ry
     scf convergence threshold =      1.0E-06
     mixing beta               =       0.7000
     number of iterations used =            8  plain     mixing
     energy convergence thresh.=      1.0E-04
     force convergence thresh. =      1.0E-03
     press convergence thresh. =      5.0E-01
     Exchange-correlation= SLA  PW   PBX  PBC
                           (   1   4   3   4   0   0   0)
     nstep                     =           50


     celldm(1)=  10.013640  celldm(2)=   1.735306  celldm(3)=   1.926511
     celldm(4)=   0.000000  celldm(5)=  -0.177565  celldm(6)=   0.000000

     crystal axes: (cart. coord. in units of alat)
               a(1) = (   1.000000   0.000000   0.000000 )  
               a(2) = (   0.000000   1.735306   0.000000 )  
               a(3) = (  -0.342081   0.000000   1.895896 )  

     reciprocal axes: (cart. coord. in units 2 pi/alat)
               b(1) = (  1.000000 -0.000000  0.180432 )  
               b(2) = (  0.000000  0.576267 -0.000000 )  
               b(3) = (  0.000000  0.000000  0.527455 )  


     PseudoPot. # 1 for Al read from file:
     ./../../../pseudos/Al.pbe-n-kjpaw_psl.1.0.0.UPF
     MD5 check sum: 502b6b27b9c6270cab5dd1084b96fa6d
     Pseudo is Projector augmented-wave + core cor, Zval =  3.0
     Generated using &quot;atomic&quot; code by A. Dal Corso  v.6.3
     Shape of augmentation charge: PSQ
     Using radial grid of 1135 points,  6 beta functions with: 
                l(1) =   0
                l(2) =   0
                l(3) =   1
                l(4) =   1
                l(5) =   2
                l(6) =   2
     Q(r) pseudized with 0 coefficients 


     PseudoPot. # 2 for Ti read from file:
     ./../../../pseudos/Ti.pbe-spn-kjpaw_psl.1.0.0.UPF
     MD5 check sum: 01f69b0d8ba4438b2e03ac6ea4af1c0b
     Pseudo is Projector augmented-wave + core cor, Zval = 12.0
     Generated using &quot;atomic&quot; code by A. Dal Corso  v.6.2.2
     Shape of augmentation charge: PSQ
     Using radial grid of 1177 points,  6 beta functions with: 
                l(1) =   0
                l(2) =   0
                l(3) =   1
                l(4) =   1
                l(5) =   2
                l(6) =   2
     Q(r) pseudized with 0 coefficients 


     PseudoPot. # 3 for H  read from file:
     ./../../../pseudos/H.pbe-kjpaw_psl.1.0.0.UPF
     MD5 check sum: d81a744832360e4a8af0b0b5b123bc2a
     Pseudo is Projector augmented-wave, Zval =  1.0
     Generated using &quot;atomic&quot; code by A. Dal Corso  v.6.3MaX
     Shape of augmentation charge: PSQ
     Using radial grid of  929 points,  2 beta functions with: 
                l(1) =   0
                l(2) =   0
     Q(r) pseudized with 0 coefficients 


     PseudoPot. # 4 for K  read from file:
     ./../../../pseudos/K.pbe-spn-kjpaw_psl.1.0.0.UPF
     MD5 check sum: 34cc42130a09071ebe376fd42eb21491
     Pseudo is Projector augmented-wave + core cor, Zval =  9.0
     Generated using &quot;atomic&quot; code by A. Dal Corso  v.6.2.2
     Shape of augmentation charge: PSQ
     Using radial grid of 1165 points,  6 beta functions with: 
                l(1) =   0
                l(2) =   0
                l(3) =   1
                l(4) =   1
                l(5) =   2
                l(6) =   2
     Q(r) pseudized with 0 coefficients 


     PseudoPot. # 5 for Mg read from file:
     ./../../../pseudos/Mg.pbe-spnl-kjpaw_psl.1.0.0.UPF
     MD5 check sum: fda14e0d92a6a9a5ebed782e5a4b3067
     Pseudo is Projector augmented-wave + core cor, Zval = 10.0
     Generated using &quot;atomic&quot; code by A. Dal Corso  v.6.3
     Shape of augmentation charge: PSQ
     Using radial grid of 1129 points,  4 beta functions with: 
                l(1) =   0
                l(2) =   0
                l(3) =   1
                l(4) =   1
     Q(r) pseudized with 0 coefficients 


     PseudoPot. # 6 for O  read from file:
     ./../../../pseudos/O.pbe-n-kjpaw_psl.1.0.0.UPF
     MD5 check sum: e99d9cef9b487d1ca56f5b95ecd0fd7a
     Pseudo is Projector augmented-wave + core cor, Zval =  6.0
     Generated using &quot;atomic&quot; code by A. Dal Corso  v.6.3
     Shape of augmentation charge: PSQ
     Using radial grid of 1095 points,  4 beta functions with: 
                l(1) =   0
                l(2) =   0
                l(3) =   1
                l(4) =   1
     Q(r) pseudized with 0 coefficients 


     PseudoPot. # 7 for Si read from file:
     ./../../../pseudos/Si.pbe-n-kjpaw_psl.1.0.0.UPF
     MD5 check sum: c39c59da582df4a0d9f10159256ea34e
     Pseudo is Projector augmented-wave + core cor, Zval =  4.0
     Generated using &quot;atomic&quot; code by A. Dal Corso  v.6.3
     Shape of augmentation charge: PSQ
     Using radial grid of 1141 points,  6 beta functions with: 
                l(1) =   0
                l(2) =   0
                l(3) =   1
                l(4) =   1
                l(5) =   2
                l(6) =   2
     Q(r) pseudized with 0 coefficients 


     atomic species   valence    mass     pseudopotential
     Al                3.00    26.98154     Al( 1.00)
     Ti               12.00    47.86700     Ti( 1.00)
     H                 1.00     1.00794     H ( 1.00)
     K                 9.00    39.09830     K ( 1.00)
     Mg               10.00    24.30500     Mg( 1.00)
     O                 6.00    15.99940     O ( 1.00)
     Si                4.00    28.08550     Si( 1.00)

     Starting magnetic structure 
     atomic species   magnetization
     Al              0.000
     Ti              0.300
     H               0.000
     K               0.000
     Mg              0.000
     O               0.000
     Si              0.000

      2 Sym. Ops. (no inversion) found


                                    s                        frac. trans.

      isym =  1     identity                                     

 cryst.   s( 1) = (     1          0          0      )
                  (     0          1          0      )
                  (     0          0          1      )

 cart.    s( 1) = (  1.0000000  0.0000000 -0.0000000 )
                  (  0.0000000  1.0000000  0.0000000 )
                  (  0.0000000  0.0000000  1.0000000 )


      isym =  2     180 deg rotation - cart. axis [0,1,0]        

 cryst.   s( 2) = (    -1          0          0      )
                  (     0          1          0      )
                  (     0          0         -1      )

 cart.    s( 2) = ( -1.0000000  0.0000000  0.0000000 )
                  (  0.0000000  1.0000000  0.0000000 )
                  (  0.0000000  0.0000000 -1.0000000 )


     point group C_2  (2)   
     there are  2 classes
     the character table:

       E     C2   
A      1.00  1.00
B      1.00 -1.00

     the symmetry operations in each class and the name of the first element:

     E        1
          identity                                               
     C2       2
          180 deg rotation - cart. axis [0,1,0]                  

   Cartesian axes

     site n.     atom                  positions (alat units)
         1        K      tau(   1) = (   0.0000000   0.8562206   0.0000000  )
         2        K      tau(   2) = (   0.5000000   0.0071494   0.0000000  )
         3        Mg     tau(   3) = (  -0.1710407   0.5813841   0.9479482  )
         4        Mg     tau(   4) = (  -0.1710407   1.1498222   0.9479482  )
         5        Mg     tau(   5) = (   0.3289593   0.8557333   0.9479482  )
         6        Mg     tau(   6) = (   0.3289593   1.4442876   0.9479482  )
         7        Mg     tau(   7) = (   0.3289593   0.3038208   0.9479482  )
         8        Si     tau(   8) = (   0.0091056   0.2889637   0.4172263  )
         9        Si     tau(   9) = (   0.6488131   0.2889637   1.4786702  )
        10        Si     tau(  10) = (   0.6688743   1.4461482   1.4659239  )
        11        Si     tau(  11) = (  -0.0109556   1.4461482   0.4299726  )
        12        Si     tau(  12) = (   0.4872869   1.1567181   0.4265946  )
        13        Si     tau(  13) = (   0.1706318   1.1567181   1.4693018  )
        14        Al     tau(  14) = (   0.1490760   0.5745942   1.4737544  )
        15        Al     tau(  15) = (   0.5088427   0.5745942   0.4221420  )
        16        O      tau(  16) = (   0.0007251   0.2966679   0.7254026  )
        17        O      tau(  17) = (   0.6571935   0.2966679   1.1704939  )
        18        O      tau(  18) = (   0.6607964   1.4335504   1.1605483  )
        19        O      tau(  19) = (  -0.0028777   1.4335504   0.7353481  )
        20        O      tau(  20) = (   0.4934424   1.1614964   0.7337143  )
        21        O      tau(  21) = (   0.1644763   1.1614964   1.1621822  )
        22        O      tau(  22) = (   0.1538082   0.5783883   1.1468942  )
        23        O      tau(  23) = (   0.5041105   0.5783883   0.7490022  )
        24        O      tau(  24) = (   0.2878514   0.3528805   0.3069153  )
        25        O      tau(  25) = (   0.3700673   0.3528805   1.5889810  )
        26        O      tau(  26) = (   0.9400207   1.7309002   0.3195008  )
        27        O      tau(  27) = (  -0.2821020   1.7309002   1.5763955  )
        28        O      tau(  28) = (   0.3972165   1.3452047   1.5811073  )
        29        O      tau(  29) = (   0.2607022   1.3452047   0.3147892  )
        30        O      tau(  30) = (   0.7586125   1.2707715   0.3145384  )
        31        O      tau(  31) = (  -0.1006938   1.2707715   1.5813581  )
        32        O      tau(  32) = (   0.4407526   0.8812407   0.3047100  )
        33        O      tau(  33) = (   0.2171660   0.8812407   1.5911864  )
        34        O      tau(  34) = (  -0.1447524   0.4802295   1.5996611  )
        35        O      tau(  35) = (   0.8026711   0.4802295   0.2962353  )
        36        O      tau(  36) = (  -0.0029216   0.8739744   0.7469131  )
        37        O      tau(  37) = (   0.6608404   0.8739744   1.1489833  )
        38        O      tau(  38) = (   0.4880389   1.7349890   0.7478557  )
        39        O      tau(  39) = (   0.1698798   1.7349890   1.1480407  )
        40        H      tau(  40) = (  -0.0024162   0.8589926   0.5653354  )
        41        H      tau(  41) = (   0.6603350   0.8589926   1.3305610  )
        42        H      tau(  42) = (   0.4867329   0.0208586   0.5656505  )
        43        H      tau(  43) = (   0.1711858   0.0208586   1.3302458  )
        44        Ti     tau(  44) = (  -0.1710407   0.0051712   0.9479482  )

     --------------------------------------------
     DFT-D3 Dispersion Correction (3-body terms):
     --------------------------------------------
       Reference C6 values for interpolation: 

         atom   Coordination number   C6
         H          0.912             6.05
         H          0.000            15.18
         O          0.000            31.01
         O          0.993            25.63
         O          1.989            20.74
         Mg         0.000          1366.75
         Mg         0.963           902.54
         Mg         1.950           351.12
         Al         0.000          1081.08
         Al         0.965           875.51
         Al         1.931           513.50
         Al         2.915           307.19
         Si         0.000           635.71
         Si         0.951           540.53
         Si         1.944           466.25
         Si         2.941           443.01
         Si         3.868           299.55
         K          0.000          9967.00
         K          0.977           676.04
         Ti         0.000          2723.84
         Ti         1.830           604.00
         Ti         3.868           643.18

       Values used:

         atom   Coordination number  R0_AB[au]  C6      C8
         K         13.896            4.007    676.04 129074.98
         K         14.112            4.007    676.04 129074.98
         Mg        12.183            3.292    351.12  31436.69
         Mg        11.739            3.292    351.12  31436.69
         Mg        12.092            3.292    351.12  31436.69
         Mg        11.615            3.292    351.12  31436.69
         Mg        12.056            3.292    351.12  31436.69
         Si         6.914            3.583    299.55  21425.58
         Si         6.914            3.583    299.55  21425.58
         Si         6.493            3.583    299.55  21425.58
         Si         6.493            3.583    299.55  21425.58
         Si         6.613            3.583    299.55  21425.58
         Si         6.613            3.583    299.55  21425.58
         Al         7.872            3.789    307.19  29441.29
         Al         7.872            3.789    307.19  29441.29
         O          3.889            2.345     20.74    418.58
         O          3.889            2.345     20.74    418.58
         O          3.883            2.345     20.74    418.58
         O          3.883            2.345     20.74    418.58
         O          3.908            2.345     20.74    418.58
         O          3.908            2.345     20.74    418.58
         O          3.992            2.345     20.74    418.58
         O          3.992            2.345     20.74    418.58
         O          3.202            2.345     20.74    418.58
         O          3.202            2.345     20.74    418.58
         O          3.145            2.345     20.74    418.58
         O          3.145            2.345     20.74    418.58
         O          3.098            2.345     20.74    418.58
         O          3.098            2.345     20.74    418.58
         O          3.094            2.345     20.74    418.58
         O          3.094            2.345     20.74    418.58
         O          3.204            2.345     20.74    418.58
         O          3.204            2.345     20.74    418.58
         O          3.272            2.345     20.74    418.58
         O          3.272            2.345     20.74    418.58
         O          4.013            2.345     20.74    418.58
         O          4.013            2.345     20.74    418.58
         O          3.965            2.345     20.74    418.58
         O          3.965            2.345     20.74    418.58
         H          1.331            2.062      6.06     73.32
         H          1.331            2.062      6.06     73.32
         H          1.313            2.062      6.07     73.34
         H          1.313            2.062      6.07     73.34
         Ti        11.022            3.557    643.18  76289.64

         Molecular C6 ( Ry / a.u.^6 ) =    173888.32


   Crystallographic axes

     site n.     atom                  positions (cryst. coord.)
         1        K      tau(   1) = (  0.0000000  0.4934118  0.0000000  )
         2        K      tau(   2) = (  0.5000000  0.0041200  0.0000000  )
         3        Mg     tau(   3) = (  0.0000000  0.3350326  0.5000000  )
         4        Mg     tau(   4) = (  0.0000000  0.6626048  0.5000000  )
         5        Mg     tau(   5) = (  0.5000000  0.4931310  0.5000000  )
         6        Mg     tau(   6) = (  0.5000000  0.8322955  0.5000000  )
         7        Mg     tau(   7) = (  0.5000000  0.1750820  0.5000000  )
         8        Si     tau(   8) = (  0.0843867  0.1665203  0.2200681  )
         9        Si     tau(   9) = (  0.9156132  0.1665203  0.7799320  )
        10        Si     tau(  10) = (  0.9333746  0.8333678  0.7732089  )
        11        Si     tau(  11) = (  0.0666254  0.8333678  0.2267912  )
        12        Si     tau(  12) = (  0.5642585  0.6665787  0.2250094  )
        13        Si     tau(  13) = (  0.4357416  0.6665787  0.7749906  )
        14        Al     tau(  14) = (  0.4149891  0.3311198  0.7773391  )
        15        Al     tau(  15) = (  0.5850108  0.3311198  0.2226609  )
        16        O      tau(  16) = (  0.1316113  0.1709600  0.3826172  )
        17        O      tau(  17) = (  0.8683887  0.1709600  0.6173828  )
        18        O      tau(  18) = (  0.8701970  0.8261080  0.6121370  )
        19        O      tau(  19) = (  0.1298030  0.8261080  0.3878630  )
        20        O      tau(  20) = (  0.6258283  0.6693323  0.3870012  )
        21        O      tau(  21) = (  0.3741717  0.6693323  0.6129988  )
        22        O      tau(  22) = (  0.3607452  0.3333062  0.6049351  )
        23        O      tau(  23) = (  0.6392548  0.3333062  0.3950649  )
        24        O      tau(  24) = (  0.3432289  0.2033534  0.1618840  )
        25        O      tau(  25) = (  0.6567711  0.2033534  0.8381159  )
        26        O      tau(  26) = (  0.9976690  0.9974610  0.1685223  )
        27        O      tau(  27) = (  0.0023310  0.9974610  0.8314776  )
        28        O      tau(  28) = (  0.6824996  0.7751973  0.8339629  )
        29        O      tau(  29) = (  0.3175004  0.7751973  0.1660371  )
        30        O      tau(  30) = (  0.8153654  0.7323039  0.1659049  )
        31        O      tau(  31) = (  0.1846346  0.7323039  0.8340952  )
        32        O      tau(  32) = (  0.4957322  0.5078301  0.1607208  )
        33        O      tau(  33) = (  0.5042678  0.5078301  0.8392792  )
        34        O      tau(  34) = (  0.1438785  0.2767405  0.8437492  )
        35        O      tau(  35) = (  0.8561215  0.2767405  0.1562508  )
        36        O      tau(  36) = (  0.1318457  0.5036428  0.3939630  )
        37        O      tau(  37) = (  0.8681543  0.5036428  0.6060370  )
        38        O      tau(  38) = (  0.6229764  0.9998173  0.3944602  )
        39        O      tau(  39) = (  0.3770237  0.9998173  0.6055398  )
        40        H      tau(  40) = (  0.0995886  0.4950092  0.2981890  )
        41        H      tau(  41) = (  0.9004114  0.4950092  0.7018110  )
        42        H      tau(  42) = (  0.5887946  0.0120201  0.2983552  )
        43        H      tau(  43) = (  0.4112054  0.0120201  0.7016448  )
        44        Ti     tau(  44) = (  0.0000000  0.0029800  0.5000000  )

     number of k points=    20  Gaussian smearing, width (Ry)=  0.0010
                       cart. coord. in units 2pi/alat
        k(    1) = (   0.0000000   0.0000000   0.0000000), wk =   0.0185185
        k(    2) = (   0.0000000   0.0000000   0.1758183), wk =   0.0370370
        k(    3) = (   0.0000000   0.1920891   0.0000000), wk =   0.0370370
        k(    4) = (   0.0000000   0.1920891   0.1758183), wk =   0.0740741
        k(    5) = (   0.1666667   0.0000000   0.0300721), wk =   0.0370370
        k(    6) = (   0.1666667   0.0000000   0.2058904), wk =   0.0370370
        k(    7) = (   0.1666667   0.0000000  -0.1457462), wk =   0.0370370
        k(    8) = (   0.1666667   0.1920891   0.0300721), wk =   0.0740741
        k(    9) = (   0.1666667   0.1920891   0.2058904), wk =   0.0740741
        k(   10) = (   0.1666667   0.1920891  -0.1457462), wk =   0.0740741
        k(   11) = (   0.3333333   0.0000000   0.0601442), wk =   0.0370370
        k(   12) = (   0.3333333   0.0000000   0.2359625), wk =   0.0370370
        k(   13) = (   0.3333333   0.0000000  -0.1156742), wk =   0.0370370
        k(   14) = (   0.3333333   0.1920891   0.0601442), wk =   0.0740741
        k(   15) = (   0.3333333   0.1920891   0.2359625), wk =   0.0740741
        k(   16) = (   0.3333333   0.1920891  -0.1156742), wk =   0.0740741
        k(   17) = (  -0.5000000   0.0000000  -0.0902162), wk =   0.0185185
        k(   18) = (  -0.5000000   0.0000000   0.0856021), wk =   0.0370370
        k(   19) = (  -0.5000000   0.1920891  -0.0902162), wk =   0.0370370
        k(   20) = (  -0.5000000   0.1920891   0.0856021), wk =   0.0740741

                       cryst. coord.
        k(    1) = (   0.0000000   0.0000000   0.0000000), wk =   0.0185185
        k(    2) = (   0.0000000   0.0000000   0.3333333), wk =   0.0370370
        k(    3) = (   0.0000000   0.3333333   0.0000000), wk =   0.0370370
        k(    4) = (   0.0000000   0.3333333   0.3333333), wk =   0.0740741
        k(    5) = (   0.1666667   0.0000000  -0.0000000), wk =   0.0370370
        k(    6) = (   0.1666667   0.0000000   0.3333333), wk =   0.0370370
        k(    7) = (   0.1666667   0.0000000  -0.3333333), wk =   0.0370370
        k(    8) = (   0.1666667   0.3333333  -0.0000000), wk =   0.0740741
        k(    9) = (   0.1666667   0.3333333   0.3333333), wk =   0.0740741
        k(   10) = (   0.1666667   0.3333333  -0.3333333), wk =   0.0740741
        k(   11) = (   0.3333333   0.0000000  -0.0000000), wk =   0.0370370
        k(   12) = (   0.3333333   0.0000000   0.3333333), wk =   0.0370370
        k(   13) = (   0.3333333   0.0000000  -0.3333333), wk =   0.0370370
        k(   14) = (   0.3333333   0.3333333  -0.0000000), wk =   0.0740741
        k(   15) = (   0.3333333   0.3333333   0.3333333), wk =   0.0740741
        k(   16) = (   0.3333333   0.3333333  -0.3333333), wk =   0.0740741
        k(   17) = (  -0.5000000   0.0000000   0.0000000), wk =   0.0185185
        k(   18) = (  -0.5000000   0.0000000   0.3333333), wk =   0.0370370
        k(   19) = (  -0.5000000   0.3333333   0.0000000), wk =   0.0370370
        k(   20) = (  -0.5000000   0.3333333   0.3333333), wk =   0.0740741

     Dense  grid:   586467 G-vectors     FFT dimensions: (  72, 125, 135)

     Smooth grid:   207475 G-vectors     FFT dimensions: (  50,  90,  96)

     Dynamical RAM for                 wfc:      10.22 MB

     Dynamical RAM for     wfc (w. buffer):     419.01 MB

     Dynamical RAM for           str. fact:      10.44 MB

     Dynamical RAM for           local pot:       0.00 MB

     Dynamical RAM for          nlocal pot:      28.88 MB

     Dynamical RAM for                qrad:      24.61 MB

     Dynamical RAM for          rho,v,vnew:      18.42 MB

     Dynamical RAM for               rhoin:       6.14 MB

     Dynamical RAM for            rho*nmix:      47.73 MB

     Dynamical RAM for           G-vectors:       5.86 MB

     Dynamical RAM for          h,s,v(r/c):       1.10 MB

     Dynamical RAM for          <psi|beta>:       1.04 MB

     Dynamical RAM for                 psi:      20.44 MB

     Dynamical RAM for                hpsi:      20.44 MB

     Dynamical RAM for                spsi:      20.44 MB

     Dynamical RAM for      wfcinit/wfcrot:      20.99 MB

     Dynamical RAM for           addusdens:     314.70 MB

     Dynamical RAM for          addusforce:     383.50 MB

     Dynamical RAM for         addusstress:     302.02 MB

     Estimated static dynamical RAM per process >     534.77 MB

     Estimated max dynamical RAM per process >     965.99 MB

     Estimated total dynamical RAM >       5.66 GB

     Atomic positions and unit cell read from directory:
     ./temp/phl-ti1-ti1.save/
     Atomic positions from file used, from input discarded


     Check: negative core charge=   -0.000005
     Generating pointlists ...
     new r_m :   0.1353 (alat units)  1.3551 (a.u.) for type    1
     new r_m :   0.1634 (alat units)  1.6366 (a.u.) for type    2
     new r_m :   0.0752 (alat units)  0.7533 (a.u.) for type    3
     new r_m :   0.2170 (alat units)  2.1734 (a.u.) for type    4
     new r_m :   0.1580 (alat units)  1.5817 (a.u.) for type    5
     new r_m :   0.0752 (alat units)  0.7533 (a.u.) for type    6
     new r_m :   0.1261 (alat units)  1.2623 (a.u.) for type    7

     The initial density is read from file :
     ./temp/phl-ti1-ti1.save/charge-density


     starting charge     257.9369, renormalised to     258.0000
     Cannot read wfcs: file not found
     Starting wfcs are  183 randomized atomic wfcs
     Checking if some PAW data can be deallocated... 
       PAW data deallocated on    5 nodes for type:  1
       PAW data deallocated on    5 nodes for type:  2
       PAW data deallocated on    5 nodes for type:  3
       PAW data deallocated on    5 nodes for type:  4
       PAW data deallocated on    5 nodes for type:  5
       PAW data deallocated on    1 nodes for type:  6
       PAW data deallocated on    4 nodes for type:  7

     total cpu time spent up to now is      333.7 secs

     Self-consistent Calculation

     iteration #  1     ecut=    60.00 Ry     beta= 0.70
     Davidson diagonalization with overlap

---- Real-time Memory Report at c_bands before calling an iterative solver
           595 MiB given to the printing process from OS
             0 MiB allocation reported by mallinfo(arena+hblkhd)
          2151 MiB available memory on the node where the printing process lives
------------------
     c_bands:  4 eigenvalues not converged
     c_bands:  3 eigenvalues not converged
     c_bands:  1 eigenvalues not converged
     c_bands:  1 eigenvalues not converged
     c_bands:  1 eigenvalues not converged
     c_bands:  1 eigenvalues not converged
     c_bands:  1 eigenvalues not converged
     c_bands:  2 eigenvalues not converged
     c_bands:  1 eigenvalues not converged
     c_bands:  1 eigenvalues not converged
     c_bands:  2 eigenvalues not converged
     c_bands:  2 eigenvalues not converged
     c_bands:  3 eigenvalues not converged
     c_bands:  3 eigenvalues not converged
     c_bands:  2 eigenvalues not converged
     c_bands:  2 eigenvalues not converged
     c_bands:  1 eigenvalues not converged
     c_bands:  4 eigenvalues not converged
     c_bands:  4 eigenvalues not converged
     c_bands:  1 eigenvalues not converged
     c_bands:  1 eigenvalues not converged
     c_bands:  2 eigenvalues not converged
     c_bands:  1 eigenvalues not converged
     c_bands:  3 eigenvalues not converged
     c_bands:  1 eigenvalues not converged
     c_bands:  1 eigenvalues not converged
     c_bands:  2 eigenvalues not converged
     c_bands:  1 eigenvalues not converged
     c_bands:  3 eigenvalues not converged
     c_bands:  3 eigenvalues not converged
     c_bands:  2 eigenvalues not converged
     c_bands:  2 eigenvalues not converged
     c_bands:  3 eigenvalues not converged
     c_bands:  2 eigenvalues not converged
     ethr =  1.00E-05,  avg # of iterations = 40.0

     total cpu time spent up to now is     8960.4 secs

     total energy              =   -2485.83866623 Ry
     estimated scf accuracy    <       0.01081866 Ry

     total magnetization       =     1.84 Bohr mag/cell
     absolute magnetization    =     1.93 Bohr mag/cell

     iteration #  2     ecut=    60.00 Ry     beta= 0.70
     Davidson diagonalization with overlap

---- Real-time Memory Report at c_bands before calling an iterative solver
           891 MiB given to the printing process from OS
             0 MiB allocation reported by mallinfo(arena+hblkhd)
          1685 MiB available memory on the node where the printing process lives
------------------
     c_bands:  1 eigenvalues not converged
     c_bands:  1 eigenvalues not converged
     c_bands:  1 eigenvalues not converged
     ethr =  4.19E-06,  avg # of iterations = 16.2

     total cpu time spent up to now is    10353.3 secs

     total energy              =   -2485.83727684 Ry
     estimated scf accuracy    <       0.02535343 Ry

     total magnetization       =     2.00 Bohr mag/cell
     absolute magnetization    =     2.09 Bohr mag/cell

     iteration #  3     ecut=    60.00 Ry     beta= 0.70
     Davidson diagonalization with overlap

---- Real-time Memory Report at c_bands before calling an iterative solver
           891 MiB given to the printing process from OS
             0 MiB allocation reported by mallinfo(arena+hblkhd)
          1685 MiB available memory on the node where the printing process lives
------------------
     c_bands:  1 eigenvalues not converged
     c_bands:  1 eigenvalues not converged
     ethr =  4.19E-06,  avg # of iterations = 10.4

     total cpu time spent up to now is    11363.5 secs

     total energy              =   -2485.83928631 Ry
     estimated scf accuracy    <       0.03357624 Ry

     total magnetization       =     1.67 Bohr mag/cell
     absolute magnetization    =     1.77 Bohr mag/cell

     iteration #  4     ecut=    60.00 Ry     beta= 0.70
     Davidson diagonalization with overlap

---- Real-time Memory Report at c_bands before calling an iterative solver
           891 MiB given to the printing process from OS
             0 MiB allocation reported by mallinfo(arena+hblkhd)
          1676 MiB available memory on the node where the printing process lives
------------------
     ethr =  4.19E-06,  avg # of iterations =  3.4

     total cpu time spent up to now is    12230.4 secs

     total energy              =   -2485.84266896 Ry
     estimated scf accuracy    <       0.00418575 Ry

     total magnetization       =     1.96 Bohr mag/cell
     absolute magnetization    =     2.05 Bohr mag/cell

     iteration #  5     ecut=    60.00 Ry     beta= 0.70
     Davidson diagonalization with overlap

---- Real-time Memory Report at c_bands before calling an iterative solver
           891 MiB given to the printing process from OS
             0 MiB allocation reported by mallinfo(arena+hblkhd)
          1677 MiB available memory on the node where the printing process lives
------------------
     ethr =  1.62E-06,  avg # of iterations =  2.0

     total cpu time spent up to now is    13082.0 secs

     total energy              =   -2485.84283096 Ry
     estimated scf accuracy    <       0.00026264 Ry

     total magnetization       =     1.92 Bohr mag/cell
     absolute magnetization    =     2.01 Bohr mag/cell

     iteration #  6     ecut=    60.00 Ry     beta= 0.70
     Davidson diagonalization with overlap

---- Real-time Memory Report at c_bands before calling an iterative solver
           891 MiB given to the printing process from OS
             0 MiB allocation reported by mallinfo(arena+hblkhd)
          2454 MiB available memory on the node where the printing process lives
------------------
     ethr =  1.02E-07,  avg # of iterations =  5.6

     total cpu time spent up to now is    14191.0 secs

     total energy              =   -2485.84290816 Ry
     estimated scf accuracy    <       0.00015633 Ry

     total magnetization       =     1.88 Bohr mag/cell
     absolute magnetization    =     1.97 Bohr mag/cell

     iteration #  7     ecut=    60.00 Ry     beta= 0.70
     Davidson diagonalization with overlap

---- Real-time Memory Report at c_bands before calling an iterative solver
           891 MiB given to the printing process from OS
             0 MiB allocation reported by mallinfo(arena+hblkhd)
          2445 MiB available memory on the node where the printing process lives
------------------
     ethr =  6.06E-08,  avg # of iterations =  2.0

     total cpu time spent up to now is    15087.5 secs

     total energy              =   -2485.84293199 Ry
     estimated scf accuracy    <       0.00008451 Ry

     total magnetization       =     1.91 Bohr mag/cell
     absolute magnetization    =     2.00 Bohr mag/cell

     iteration #  8     ecut=    60.00 Ry     beta= 0.70
     Davidson diagonalization with overlap

---- Real-time Memory Report at c_bands before calling an iterative solver
           891 MiB given to the printing process from OS
             0 MiB allocation reported by mallinfo(arena+hblkhd)
          2432 MiB available memory on the node where the printing process lives
------------------
     ethr =  3.28E-08,  avg # of iterations =  1.8

     total cpu time spent up to now is    15906.1 secs

     total energy              =   -2485.84293724 Ry
     estimated scf accuracy    <       0.00000829 Ry

     total magnetization       =     1.90 Bohr mag/cell
     absolute magnetization    =     1.99 Bohr mag/cell

     iteration #  9     ecut=    60.00 Ry     beta= 0.70
     Davidson diagonalization with overlap

---- Real-time Memory Report at c_bands before calling an iterative solver
           891 MiB given to the printing process from OS
             0 MiB allocation reported by mallinfo(arena+hblkhd)
          2402 MiB available memory on the node where the printing process lives
------------------
     ethr =  3.21E-09,  avg # of iterations =  9.8

     Magnetic moment per site  (integrated on atomic sphere of radius R)
     atom   1 (R=0.217)  charge=  7.5511  magn=  0.0003
     atom   2 (R=0.217)  charge=  7.5542  magn=  0.0010
     atom   3 (R=0.158)  charge=  8.1103  magn=  0.0004
     atom   4 (R=0.158)  charge=  8.1064  magn=  0.0004
     atom   5 (R=0.158)  charge=  8.1057  magn=  0.0000
     atom   6 (R=0.158)  charge=  8.1037  magn=  0.0003
     atom   7 (R=0.158)  charge=  8.1095  magn=  0.0002
     atom   8 (R=0.126)  charge=  0.5482  magn=  0.0010
     atom   9 (R=0.126)  charge=  0.5482  magn=  0.0010
     atom  10 (R=0.126)  charge=  0.5409  magn=  0.0010
     atom  11 (R=0.126)  charge=  0.5409  magn=  0.0010
     atom  12 (R=0.126)  charge=  0.5398  magn=  0.0001
     atom  13 (R=0.126)  charge=  0.5398  magn=  0.0001
     atom  14 (R=0.135)  charge=  0.3356  magn=  0.0001
     atom  15 (R=0.135)  charge=  0.3356  magn=  0.0001
     atom  16 (R=0.075)  charge=  1.9376  magn=  0.0025
     atom  17 (R=0.075)  charge=  1.9376  magn=  0.0025
     atom  18 (R=0.075)  charge=  1.9400  magn=  0.0016
     atom  19 (R=0.075)  charge=  1.9400  magn=  0.0016
     atom  20 (R=0.075)  charge=  1.9387  magn=  0.0001
     atom  21 (R=0.075)  charge=  1.9387  magn=  0.0001
     atom  22 (R=0.075)  charge=  1.9368  magn=  0.0002
     atom  23 (R=0.075)  charge=  1.9368  magn=  0.0002
     atom  24 (R=0.075)  charge=  1.9434  magn=  0.0004
     atom  25 (R=0.075)  charge=  1.9434  magn=  0.0004
     atom  26 (R=0.075)  charge=  1.9479  magn=  0.0013
     atom  27 (R=0.075)  charge=  1.9479  magn=  0.0013
     atom  28 (R=0.075)  charge=  1.9458  magn=  0.0004
     atom  29 (R=0.075)  charge=  1.9458  magn=  0.0004
     atom  30 (R=0.075)  charge=  1.9455  magn=  0.0002
     atom  31 (R=0.075)  charge=  1.9455  magn=  0.0002
     atom  32 (R=0.075)  charge=  1.9399  magn=  0.0001
     atom  33 (R=0.075)  charge=  1.9399  magn=  0.0001
     atom  34 (R=0.075)  charge=  1.9424  magn=  0.0002
     atom  35 (R=0.075)  charge=  1.9424  magn=  0.0002
     atom  36 (R=0.075)  charge=  1.9410  magn=  0.0003
     atom  37 (R=0.075)  charge=  1.9410  magn=  0.0003
     atom  38 (R=0.075)  charge=  1.9383  magn= -0.0031
     atom  39 (R=0.075)  charge=  1.9383  magn= -0.0031
     atom  40 (R=0.075)  charge=  0.4004  magn=  0.0000
     atom  41 (R=0.075)  charge=  0.4004  magn=  0.0000
     atom  42 (R=0.075)  charge=  0.3951  magn=  0.0043
     atom  43 (R=0.075)  charge=  0.3951  magn=  0.0043
     atom  44 (R=0.163)  charge=  9.1293  magn=  1.2201

     total cpu time spent up to now is    18280.9 secs

     End of self-consistent calculation

 ------ SPIN UP ------------


          k = 0.0000 0.0000 0.0000 ( 25927 PWs)   bands (ev):

   -68.0963 -67.9685 -67.5511 -67.5117 -67.4061 -48.9738 -34.8632 -34.8397
   -34.8385 -34.7286 -34.7248 -34.7037 -34.3053 -34.3053 -34.2967 -34.2809
   -34.2561 -34.2487 -34.1817 -34.1639 -34.1233 -25.4770 -25.4693 -25.1676
   -23.5342 -23.5069 -15.2895 -15.2434 -14.3775 -14.3409 -13.8473 -13.8337
   -13.7183 -13.5991 -13.5554 -13.4115 -13.2927 -13.1553 -13.1401 -13.0905
   -13.0861 -12.9993 -12.7450 -12.6866 -12.5711 -12.5398 -12.5107 -12.4575
   -11.4179 -11.1951  -7.0780  -7.0498  -7.0156  -7.0017  -6.9752  -6.9666
    -4.5657  -4.5380  -2.7222  -2.6469  -2.1503  -1.7330  -1.4556  -1.4102
    -1.3339  -1.2878  -0.9628  -0.8509  -0.7657  -0.7089  -0.6392  -0.5790
    -0.2449  -0.1506  -0.0361   0.0244   0.3098   0.3304   0.4325   0.5656
     0.6193   0.8725   1.0289   1.0324   1.1858   1.2270   1.3152   1.4046
     1.4679   1.5509   1.6589   1.7841   1.8341   1.8918   1.9002   2.0445
     2.1214   2.1569   2.2152   2.2684   2.3551   2.4195   2.4242   2.5309
     2.5658   2.6208   2.6718   2.6972   2.8145   2.9352   3.0394   3.0729
     3.0961   3.1896   3.1909   3.2621   3.2849   3.3882   3.4777   3.4886
     3.4900   3.6609   3.7038   3.7347   3.7625   3.8897   4.0593   4.1891
     8.6040   8.7583   8.9443   9.4376  10.0619  10.5766  11.0616  11.1045
    11.3248  11.4472  11.6557  12.0339  12.1249  12.1954  12.4821  12.5825
    12.7730  12.9098  12.9290  13.0562  13.1711  13.2175  13.3245  13.3994
    13.4505  13.4583  13.5323

     occupation numbers 
     1.0000   1.0000   1.0000   1.0000   1.0000   1.0000   1.0000   1.0000
     1.0000   1.0000   1.0000   1.0000   1.0000   1.0000   1.0000   1.0000
     1.0000   1.0000   1.0000   1.0000   1.0000   1.0000   1.0000   1.0000
     1.0000   1.0000   1.0000   1.0000   1.0000   1.0000   1.0000   1.0000
     1.0000   1.0000   1.0000   1.0000   1.0000   1.0000   1.0000   1.0000
     1.0000   1.0000   1.0000   1.0000   1.0000   1.0000   1.0000   1.0000
     1.0000   1.0000   1.0000   1.0000   1.0000   1.0000   1.0000   1.0000
     1.0000   1.0000   1.0000   1.0000   1.0000   1.0000   1.0000   1.0000
     1.0000   1.0000   1.0000   1.0000   1.0000   1.0000   1.0000   1.0000
     1.0000   1.0000   1.0000   1.0000   1.0000   1.0000   1.0000   1.0000
     1.0000   1.0000   1.0000   1.0000   1.0000   1.0000   1.0000   1.0000
     1.0000   1.0000   1.0000   1.0000   1.0000   1.0000   1.0000   1.0000
     1.0000   1.0000   1.0000   1.0000   1.0000   1.0000   1.0000   1.0000
     1.0000   1.0000   1.0000   1.0000   1.0000   1.0000   1.0000   1.0000
     1.0000   1.0000   1.0000   1.0000   1.0000   1.0000   1.0000   1.0000
     1.0000   1.0000   1.0000   1.0000   1.0000   1.0000   1.0000   1.0000
     1.0000   1.0000   0.3456   0.0000   0.0000   0.0000   0.0000   0.0000
     0.0000   0.0000   0.0000   0.0000   0.0000   0.0000   0.0000   0.0000
     0.0000   0.0000   0.0000   0.0000   0.0000   0.0000   0.0000   0.0000
     0.0000   0.0000   0.0000

          k = 0.0000 0.0000 0.1718 ( 25971 PWs)   bands (ev):

   -68.0963 -67.9685 -67.5511 -67.5117 -67.4061 -48.9738 -34.8632 -34.8397
   -34.8385 -34.7286 -34.7248 -34.7037 -34.3053 -34.3053 -34.2967 -34.2809
   -34.2562 -34.2487 -34.1817 -34.1639 -34.1233 -25.4770 -25.4693 -25.1676
   -23.5342 -23.5069 -15.2799 -15.2536 -14.3687 -14.3501 -13.8483 -13.8327
   -13.7160 -13.5918 -13.5666 -13.4082 -13.2931 -13.1564 -13.1348 -13.0964
   -13.0821 -13.0034 -12.7392 -12.6916 -12.5677 -12.5342 -12.5135 -12.4629
   -11.4177 -11.1956  -7.0781  -7.0498  -7.0156  -7.0017  -6.9751  -6.9666
    -4.5707  -4.5330  -2.7046  -2.6668  -2.1318  -1.7180  -1.4478  -1.4235
    -1.3340  -1.2970  -0.9337  -0.8590  -0.7859  -0.6932  -0.6571  -0.6320
    -0.2193  -0.1384  -0.0762  -0.0299   0.3029   0.3265   0.4285   0.6045
     0.6590   0.9308   0.9730   1.0358   1.1719   1.2507   1.3478   1.4210
     1.5048   1.5562   1.7389   1.8067   1.8411   1.8810   1.9269   2.0018
     2.0863   2.1379   2.2009   2.2093   2.3036   2.3958   2.4435   2.5089
     2.5416   2.6188   2.7275   2.7346   2.8467   2.8707   2.9838   3.0882
     3.0954   3.1616   3.2480   3.3010   3.3444   3.3829   3.4138   3.4353
     3.4830   3.6662   3.7234   3.7417   3.7683   3.8849   4.0593   4.1943
     8.7513   8.8972   8.9592   9.4332   9.6051  10.7050  10.8819  11.0398
    11.3671  11.5930  11.6745  11.9084  12.2168  12.3398  12.5329  12.6252
    12.8518  12.8960  12.9341  12.9561  13.1227  13.2306  13.3399  13.3658
    13.4487  13.4890  13.6443

     occupation numbers 
     1.0000   1.0000   1.0000   1.0000   1.0000   1.0000   1.0000   1.0000
     1.0000   1.0000   1.0000   1.0000   1.0000   1.0000   1.0000   1.0000
     1.0000   1.0000   1.0000   1.0000   1.0000   1.0000   1.0000   1.0000
     1.0000   1.0000   1.0000   1.0000   1.0000   1.0000   1.0000   1.0000
     1.0000   1.0000   1.0000   1.0000   1.0000   1.0000   1.0000   1.0000
     1.0000   1.0000   1.0000   1.0000   1.0000   1.0000   1.0000   1.0000
     1.0000   1.0000   1.0000   1.0000   1.0000   1.0000   1.0000   1.0000
     1.0000   1.0000   1.0000   1.0000   1.0000   1.0000   1.0000   1.0000
     1.0000   1.0000   1.0000   1.0000   1.0000   1.0000   1.0000   1.0000
     1.0000   1.0000   1.0000   1.0000   1.0000   1.0000   1.0000   1.0000
     1.0000   1.0000   1.0000   1.0000   1.0000   1.0000   1.0000   1.0000
     1.0000   1.0000   1.0000   1.0000   1.0000   1.0000   1.0000   1.0000
     1.0000   1.0000   1.0000   1.0000   1.0000   1.0000   1.0000   1.0000
     1.0000   1.0000   1.0000   1.0000   1.0000   1.0000   1.0000   1.0000
     1.0000   1.0000   1.0000   1.0000   1.0000   1.0000   1.0000   1.0000
     1.0000   1.0000   1.0000   1.0000   1.0000   1.0000   1.0000   1.0000
     1.0000   1.0000   0.0262   0.0000   0.0000   0.0000   0.0000   0.0000
     0.0000   0.0000   0.0000   0.0000   0.0000   0.0000   0.0000   0.0000
     0.0000   0.0000   0.0000   0.0000   0.0000   0.0000   0.0000   0.0000
     0.0000   0.0000   0.0000

          k = 0.0000 0.1901 0.0000 ( 25933 PWs)   bands (ev):

   -68.0963 -67.9685 -67.5511 -67.5117 -67.4061 -48.9738 -34.8632 -34.8397
   -34.8385 -34.7286 -34.7248 -34.7037 -34.3053 -34.3052 -34.2967 -34.2809
   -34.2562 -34.2487 -34.1817 -34.1639 -34.1233 -25.4770 -25.4693 -25.1676
   -23.5342 -23.5069 -15.2845 -15.2388 -14.4094 -14.3688 -13.8473 -13.8338
   -13.7022 -13.5300 -13.4642 -13.3995 -13.2913 -13.2122 -13.2083 -13.1173
   -13.1045 -12.9870 -12.7471 -12.6818 -12.5601 -12.5399 -12.5097 -12.4573
   -11.4166 -11.1946  -7.0763  -7.0516  -7.0154  -7.0010  -6.9756  -6.9669
    -4.5242  -4.4948  -2.8723  -2.7953  -2.1149  -1.7331  -1.3581  -1.3216
    -1.2866  -1.2198  -1.0727  -0.9011  -0.7757  -0.6322  -0.5984  -0.5052
    -0.3616  -0.1259  -0.0906   0.0950   0.2627   0.2674   0.4564   0.5745
     0.6028   0.8804   0.9574   0.9978   1.1709   1.2625   1.3612   1.3941
     1.5251   1.6314   1.6849   1.7981   1.8319   1.8731   1.9889   2.0915
     2.1060   2.1829   2.2112   2.2365   2.2977   2.3831   2.4855   2.5577
     2.5672   2.6330   2.6837   2.7677   2.7985   2.8850   3.0058   3.1049
     3.1189   3.1544   3.2061   3.2426   3.2844   3.2967   3.4667   3.4776
     3.5407   3.6611   3.6732   3.6973   3.7698   3.8644   3.8974   4.1850
     8.7600   8.9291   9.0177   9.4378   9.9043  10.2423  10.7648  11.1236
    11.4699  11.5182  11.8519  12.0562  12.2262  12.3091  12.5050  12.6166
    12.6993  12.8898  12.9461  13.0186  13.0820  13.2417  13.2465  13.2958
    13.3794  13.4372  13.6941

     occupation numbers 
     1.0000   1.0000   1.0000   1.0000   1.0000   1.0000   1.0000   1.0000
     1.0000   1.0000   1.0000   1.0000   1.0000   1.0000   1.0000   1.0000
     1.0000   1.0000   1.0000   1.0000   1.0000   1.0000   1.0000   1.0000
     1.0000   1.0000   1.0000   1.0000   1.0000   1.0000   1.0000   1.0000
     1.0000   1.0000   1.0000   1.0000   1.0000   1.0000   1.0000   1.0000
     1.0000   1.0000   1.0000   1.0000   1.0000   1.0000   1.0000   1.0000
     1.0000   1.0000   1.0000   1.0000   1.0000   1.0000   1.0000   1.0000
     1.0000   1.0000   1.0000   1.0000   1.0000   1.0000   1.0000   1.0000
     1.0000   1.0000   1.0000   1.0000   1.0000   1.0000   1.0000   1.0000
     1.0000   1.0000   1.0000   1.0000   1.0000   1.0000   1.0000   1.0000
     1.0000   1.0000   1.0000   1.0000   1.0000   1.0000   1.0000   1.0000
     1.0000   1.0000   1.0000   1.0000   1.0000   1.0000   1.0000   1.0000
     1.0000   1.0000   1.0000   1.0000   1.0000   1.0000   1.0000   1.0000
     1.0000   1.0000   1.0000   1.0000   1.0000   1.0000   1.0000   1.0000
     1.0000   1.0000   1.0000   1.0000   1.0000   1.0000   1.0000   1.0000
     1.0000   1.0000   1.0000   1.0000   1.0000   1.0000   1.0000   1.0000
     1.0000   0.8830   0.0000   0.0000   0.0000   0.0000   0.0000   0.0000
     0.0000   0.0000   0.0000   0.0000   0.0000   0.0000   0.0000   0.0000
     0.0000   0.0000   0.0000   0.0000   0.0000   0.0000   0.0000   0.0000
     0.0000   0.0000   0.0000

          k = 0.0000 0.1901 0.1718 ( 25924 PWs)   bands (ev):

   -68.0963 -67.9685 -67.5511 -67.5117 -67.4061 -48.9738 -34.8632 -34.8397
   -34.8385 -34.7286 -34.7247 -34.7037 -34.3053 -34.3052 -34.2967 -34.2809
   -34.2561 -34.2487 -34.1817 -34.1639 -34.1233 -25.4770 -25.4693 -25.1676
   -23.5342 -23.5069 -15.2748 -15.2492 -14.4004 -14.3783 -13.8484 -13.8327
   -13.7009 -13.5235 -13.4765 -13.3921 -13.2920 -13.2203 -13.2005 -13.1207
   -13.0989 -12.9914 -12.7421 -12.6868 -12.5583 -12.5318 -12.5129 -12.4626
   -11.4164 -11.1951  -7.0764  -7.0517  -7.0154  -7.0010  -6.9755  -6.9669
    -4.5261  -4.4930  -2.8542  -2.8148  -2.0999  -1.7214  -1.3469  -1.3212
    -1.2799  -1.2413  -1.0491  -0.9232  -0.7884  -0.6851  -0.5675  -0.5310
    -0.3292  -0.1839  -0.0859   0.0584   0.2600   0.2677   0.4555   0.6138
     0.6411   0.8830   0.8996   1.0366   1.2178   1.2786   1.3691   1.4726
     1.5666   1.5913   1.7114   1.7741   1.8208   1.9370   1.9767   2.0142
     2.1229   2.1680   2.2040   2.2216   2.2675   2.3956   2.4375   2.5360
     2.5722   2.6017   2.7002   2.7819   2.8174   2.8626   3.0095   3.0368
     3.1350   3.1914   3.2080   3.2642   3.2830   3.3587   3.3914   3.4855
     3.5239   3.6326   3.6835   3.7091   3.7803   3.8655   3.9148   4.1909
     8.7649   8.9463   9.2480   9.4363   9.8634  10.0671  10.5218  11.2128
    11.3498  11.4842  11.7903  12.1176  12.2731  12.4688  12.5821  12.6972
    12.8699  12.9313  12.9755  13.0220  13.0747  13.1424  13.2559  13.3685
    13.4083  13.4566  13.6655

     occupation numbers 
     1.0000   1.0000   1.0000   1.0000   1.0000   1.0000   1.0000   1.0000
     1.0000   1.0000   1.0000   1.0000   1.0000   1.0000   1.0000   1.0000
     1.0000   1.0000   1.0000   1.0000   1.0000   1.0000   1.0000   1.0000
     1.0000   1.0000   1.0000   1.0000   1.0000   1.0000   1.0000   1.0000
     1.0000   1.0000   1.0000   1.0000   1.0000   1.0000   1.0000   1.0000
     1.0000   1.0000   1.0000   1.0000   1.0000   1.0000   1.0000   1.0000
     1.0000   1.0000   1.0000   1.0000   1.0000   1.0000   1.0000   1.0000
     1.0000   1.0000   1.0000   1.0000   1.0000   1.0000   1.0000   1.0000
     1.0000   1.0000   1.0000   1.0000   1.0000   1.0000   1.0000   1.0000
     1.0000   1.0000   1.0000   1.0000   1.0000   1.0000   1.0000   1.0000
     1.0000   1.0000   1.0000   1.0000   1.0000   1.0000   1.0000   1.0000
     1.0000   1.0000   1.0000   1.0000   1.0000   1.0000   1.0000   1.0000
     1.0000   1.0000   1.0000   1.0000   1.0000   1.0000   1.0000   1.0000
     1.0000   1.0000   1.0000   1.0000   1.0000   1.0000   1.0000   1.0000
     1.0000   1.0000   1.0000   1.0000   1.0000   1.0000   1.0000   1.0000
     1.0000   1.0000   1.0000   1.0000   1.0000   1.0000   1.0000   1.0000
     1.0000   0.2739   0.0000   0.0000   0.0000   0.0000   0.0000   0.0000
     0.0000   0.0000   0.0000   0.0000   0.0000   0.0000   0.0000   0.0000
     0.0000   0.0000   0.0000   0.0000   0.0000   0.0000   0.0000   0.0000
     0.0000   0.0000   0.0000

          k = 0.1651 0.0000 0.0301 ( 25941 PWs)   bands (ev):

   -68.0963 -67.9685 -67.5511 -67.5117 -67.4061 -48.9738 -34.8631 -34.8398
   -34.8385 -34.7286 -34.7247 -34.7038 -34.3056 -34.3049 -34.2966 -34.2809
   -34.2561 -34.2488 -34.1814 -34.1641 -34.1235 -25.4769 -25.4697 -25.1677
   -23.5341 -23.5068 -15.2328 -15.1881 -14.3925 -14.3595 -13.9665 -13.9476
   -13.6830 -13.5338 -13.4713 -13.3849 -13.3122 -13.1704 -13.1344 -13.0863
   -13.0719 -13.0123 -12.7638 -12.7027 -12.6160 -12.5676 -12.5212 -12.4379
   -11.4149 -11.1995  -7.0780  -7.0526  -7.0154  -7.0006  -6.9751  -6.9649
    -4.4127  -4.3772  -2.6898  -2.6116  -2.1297  -1.7664  -1.7000  -1.5969
    -1.1635  -1.0877  -0.9686  -0.9336  -0.7628  -0.7143  -0.5977  -0.5685
    -0.2251  -0.1401  -0.0656   0.0232   0.2351   0.3453   0.3643   0.5383
     0.7721   0.9107   0.9774   1.0448   1.0883   1.2023   1.2436   1.3541
     1.4363   1.6267   1.6751   1.7026   1.7984   1.9634   2.0223   2.0545
     2.0727   2.1830   2.2186   2.2436   2.3548   2.4055   2.4245   2.5030
     2.6000   2.6268   2.6763   2.7657   2.8308   2.9690   2.9826   3.0321
     3.0645   3.0901   3.2147   3.2504   3.2841   3.3795   3.4055   3.4730
     3.5520   3.5891   3.6280   3.6638   3.7162   3.9037   4.0509   4.1065
     8.7570   8.8892   8.9532   9.4089  10.2095  10.6761  11.1580  11.1940
    11.2920  11.5195  11.6857  12.1292  12.1723  12.2660  12.5248  12.5713
    12.6779  12.7974  12.9353  13.1057  13.1980  13.2011  13.2206  13.2903
    13.3996  13.5910  13.6254

     occupation numbers 
     1.0000   1.0000   1.0000   1.0000   1.0000   1.0000   1.0000   1.0000
     1.0000   1.0000   1.0000   1.0000   1.0000   1.0000   1.0000   1.0000
     1.0000   1.0000   1.0000   1.0000   1.0000   1.0000   1.0000   1.0000
     1.0000   1.0000   1.0000   1.0000   1.0000   1.0000   1.0000   1.0000
     1.0000   1.0000   1.0000   1.0000   1.0000   1.0000   1.0000   1.0000
     1.0000   1.0000   1.0000   1.0000   1.0000   1.0000   1.0000   1.0000
     1.0000   1.0000   1.0000   1.0000   1.0000   1.0000   1.0000   1.0000
     1.0000   1.0000   1.0000   1.0000   1.0000   1.0000   1.0000   1.0000
     1.0000   1.0000   1.0000   1.0000   1.0000   1.0000   1.0000   1.0000
     1.0000   1.0000   1.0000   1.0000   1.0000   1.0000   1.0000   1.0000
     1.0000   1.0000   1.0000   1.0000   1.0000   1.0000   1.0000   1.0000
     1.0000   1.0000   1.0000   1.0000   1.0000   1.0000   1.0000   1.0000
     1.0000   1.0000   1.0000   1.0000   1.0000   1.0000   1.0000   1.0000
     1.0000   1.0000   1.0000   1.0000   1.0000   1.0000   1.0000   1.0000
     1.0000   1.0000   1.0000   1.0000   1.0000   1.0000   1.0000   1.0000
     1.0000   1.0000   1.0000   1.0000   1.0000   1.0000   1.0000   1.0000
     1.0000   1.0000   0.0936   0.0000   0.0000   0.0000   0.0000   0.0000
     0.0000   0.0000   0.0000   0.0000   0.0000   0.0000   0.0000   0.0000
     0.0000   0.0000   0.0000   0.0000   0.0000   0.0000   0.0000   0.0000
     0.0000   0.0000   0.0000

          k = 0.1651 0.0000 0.2019 ( 25961 PWs)   bands (ev):

   -68.0963 -67.9685 -67.5511 -67.5117 -67.4061 -48.9738 -34.8631 -34.8399
   -34.8385 -34.7286 -34.7247 -34.7038 -34.3056 -34.3049 -34.2966 -34.2809
   -34.2561 -34.2488 -34.1814 -34.1641 -34.1236 -25.4770 -25.4697 -25.1677
   -23.5341 -23.5068 -15.2209 -15.2007 -14.3837 -14.3686 -13.9650 -13.9491
   -13.6810 -13.5268 -13.4835 -13.3797 -13.3126 -13.1709 -13.1318 -13.0817
   -13.0766 -13.0164 -12.7586 -12.7080 -12.6096 -12.5744 -12.5108 -12.4462
   -11.4146 -11.2001  -7.0781  -7.0526  -7.0154  -7.0006  -6.9751  -6.9649
    -4.4209  -4.3689  -2.6741  -2.6301  -2.1085  -1.7495  -1.7255  -1.5838
    -1.1586  -1.0943  -0.9467  -0.9399  -0.7621  -0.7216  -0.6299  -0.6029
    -0.1941  -0.1328  -0.0973  -0.0281   0.2204   0.3379   0.3588   0.5906
     0.8100   0.9322   0.9527   1.0380   1.0884   1.2156   1.2869   1.3671
     1.4872   1.6245   1.6724   1.7255   1.8681   1.9555   1.9921   2.0462
     2.0853   2.1397   2.1789   2.2169   2.2966   2.4103   2.4189   2.4947
     2.5876   2.6329   2.6980   2.8128   2.8506   2.8843   2.9683   3.0171
     3.0660   3.0938   3.2137   3.2927   3.3060   3.3527   3.4074   3.4633
     3.5250   3.5912   3.6299   3.6881   3.7344   3.8835   4.0542   4.1245
     8.7611   8.9123   9.2665   9.4065   9.7133  10.8218  10.9818  11.0209
    11.4232  11.6288  11.7316  12.0018  12.0724  12.4234  12.5168  12.6774
    12.8222  12.8965  12.9885  13.0520  13.1817  13.2176  13.3086  13.3389
    13.3669  13.4923  13.5691

     occupation numbers 
     1.0000   1.0000   1.0000   1.0000   1.0000   1.0000   1.0000   1.0000
     1.0000   1.0000   1.0000   1.0000   1.0000   1.0000   1.0000   1.0000
     1.0000   1.0000   1.0000   1.0000   1.0000   1.0000   1.0000   1.0000
     1.0000   1.0000   1.0000   1.0000   1.0000   1.0000   1.0000   1.0000
     1.0000   1.0000   1.0000   1.0000   1.0000   1.0000   1.0000   1.0000
     1.0000   1.0000   1.0000   1.0000   1.0000   1.0000   1.0000   1.0000
     1.0000   1.0000   1.0000   1.0000   1.0000   1.0000   1.0000   1.0000
     1.0000   1.0000   1.0000   1.0000   1.0000   1.0000   1.0000   1.0000
     1.0000   1.0000   1.0000   1.0000   1.0000   1.0000   1.0000   1.0000
     1.0000   1.0000   1.0000   1.0000   1.0000   1.0000   1.0000   1.0000
     1.0000   1.0000   1.0000   1.0000   1.0000   1.0000   1.0000   1.0000
     1.0000   1.0000   1.0000   1.0000   1.0000   1.0000   1.0000   1.0000
     1.0000   1.0000   1.0000   1.0000   1.0000   1.0000   1.0000   1.0000
     1.0000   1.0000   1.0000   1.0000   1.0000   1.0000   1.0000   1.0000
     1.0000   1.0000   1.0000   1.0000   1.0000   1.0000   1.0000   1.0000
     1.0000   1.0000   1.0000   1.0000   1.0000   1.0000   1.0000   1.0000
     1.0000   0.9983   0.0000   0.0000   0.0000   0.0000   0.0000   0.0000
     0.0000   0.0000   0.0000   0.0000   0.0000   0.0000   0.0000   0.0000
     0.0000   0.0000   0.0000   0.0000   0.0000   0.0000   0.0000   0.0000
     0.0000   0.0000   0.0000

          k = 0.1651 0.0000-0.1417 ( 25956 PWs)   bands (ev):

   -68.0963 -67.9685 -67.5511 -67.5117 -67.4061 -48.9738 -34.8631 -34.8398
   -34.8385 -34.7286 -34.7247 -34.7038 -34.3056 -34.3049 -34.2966 -34.2809
   -34.2561 -34.2488 -34.1814 -34.1641 -34.1235 -25.4770 -25.4697 -25.1677
   -23.5341 -23.5068 -15.2258 -15.1955 -14.3852 -14.3671 -13.9632 -13.9510
   -13.6819 -13.5261 -13.4829 -13.3813 -13.3120 -13.1695 -13.1305 -13.0885
   -13.0724 -13.0169 -12.7557 -12.7105 -12.6018 -12.5842 -12.5100 -12.4448
   -11.4145 -11.2000  -7.0781  -7.0526  -7.0154  -7.0006  -6.9751  -6.9649
    -4.4056  -4.3845  -2.6728  -2.6303  -2.1171  -1.7565  -1.7175  -1.5852
    -1.1500  -1.1050  -0.9547  -0.9203  -0.7787  -0.6914  -0.6361  -0.6050
    -0.2203  -0.1162  -0.0991  -0.0198   0.2557   0.3439   0.3740   0.5653
     0.7736   0.9354   0.9460   1.0294   1.0969   1.2546   1.2758   1.3321
     1.4826   1.6336   1.6364   1.7482   1.8132   1.9713   1.9858   2.0510
     2.0685   2.1547   2.2097   2.2444   2.3001   2.3847   2.4434   2.4573
     2.5836   2.6781   2.6945   2.8265   2.8606   2.9111   2.9676   3.0248
     3.0770   3.1126   3.2228   3.2548   3.2865   3.3332   3.4087   3.4636
     3.5033   3.5695   3.6425   3.6764   3.7549   3.8885   4.0555   4.1203
     8.7619   8.8924   9.1234   9.4100   9.9253  10.7599  11.0049  11.1718
    11.4156  11.5937  11.7566  11.9845  12.0562  12.4511  12.4912  12.5807
    12.8176  12.8681  12.9461  13.0220  13.1396  13.1760  13.2574  13.2900
    13.4485  13.5150  13.5894

     occupation numbers 
     1.0000   1.0000   1.0000   1.0000   1.0000   1.0000   1.0000   1.0000
     1.0000   1.0000   1.0000   1.0000   1.0000   1.0000   1.0000   1.0000
     1.0000   1.0000   1.0000   1.0000   1.0000   1.0000   1.0000   1.0000
     1.0000   1.0000   1.0000   1.0000   1.0000   1.0000   1.0000   1.0000
     1.0000   1.0000   1.0000   1.0000   1.0000   1.0000   1.0000   1.0000
     1.0000   1.0000   1.0000   1.0000   1.0000   1.0000   1.0000   1.0000
     1.0000   1.0000   1.0000   1.0000   1.0000   1.0000   1.0000   1.0000
     1.0000   1.0000   1.0000   1.0000   1.0000   1.0000   1.0000   1.0000
     1.0000   1.0000   1.0000   1.0000   1.0000   1.0000   1.0000   1.0000
     1.0000   1.0000   1.0000   1.0000   1.0000   1.0000   1.0000   1.0000
     1.0000   1.0000   1.0000   1.0000   1.0000   1.0000   1.0000   1.0000
     1.0000   1.0000   1.0000   1.0000   1.0000   1.0000   1.0000   1.0000
     1.0000   1.0000   1.0000   1.0000   1.0000   1.0000   1.0000   1.0000
     1.0000   1.0000   1.0000   1.0000   1.0000   1.0000   1.0000   1.0000
     1.0000   1.0000   1.0000   1.0000   1.0000   1.0000   1.0000   1.0000
     1.0000   1.0000   1.0000   1.0000   1.0000   1.0000   1.0000   1.0000
     1.0000   1.0000   0.0000   0.0000   0.0000   0.0000   0.0000   0.0000
     0.0000   0.0000   0.0000   0.0000   0.0000   0.0000   0.0000   0.0000
     0.0000   0.0000   0.0000   0.0000   0.0000   0.0000   0.0000   0.0000
     0.0000   0.0000   0.0000

          k = 0.1651 0.1901 0.0301 ( 25937 PWs)   bands (ev):

   -68.0963 -67.9685 -67.5511 -67.5117 -67.4061 -48.9738 -34.8631 -34.8398
   -34.8385 -34.7286 -34.7247 -34.7037 -34.3056 -34.3049 -34.2966 -34.2809
   -34.2561 -34.2488 -34.1814 -34.1641 -34.1235 -25.4770 -25.4697 -25.1677
   -23.5341 -23.5068 -15.2281 -15.1838 -14.4206 -14.3839 -13.9542 -13.9376
   -13.6744 -13.4935 -13.4094 -13.3595 -13.3068 -13.2087 -13.1817 -13.1301
   -13.0968 -12.9976 -12.7658 -12.6932 -12.6064 -12.5705 -12.5189 -12.4379
   -11.4139 -11.1991  -7.0768  -7.0541  -7.0153  -7.0001  -6.9753  -6.9651
    -4.3741  -4.3379  -2.8488  -2.7710  -2.0768  -1.7164  -1.5605  -1.5363
    -1.1583  -1.0988  -1.0501  -0.9255  -0.7877  -0.6421  -0.5681  -0.4704
    -0.2997  -0.1536  -0.1044   0.0739   0.1882   0.3218   0.3628   0.4987
     0.7730   0.8681   0.9767   1.0292   1.0947   1.2067   1.2828   1.3579
     1.4582   1.6219   1.6523   1.7331   1.8282   1.9455   2.0251   2.0829
     2.1535   2.1859   2.2439   2.2614   2.3228   2.4164   2.4638   2.5014
     2.5687   2.6830   2.7180   2.7695   2.8102   2.9110   2.9521   3.0510
     3.0874   3.1424   3.1745   3.2247   3.2778   3.3157   3.4242   3.4608
     3.5324   3.5556   3.6246   3.6480   3.7144   3.8778   3.9431   4.1332
     8.7642   8.9199   9.2649   9.4132  10.0897  10.3758  10.8236  11.1982
    11.4708  11.5460  11.8240  12.1766  12.2084  12.3539  12.5079  12.6024
    12.7513  12.8457  12.9147  13.0067  13.0443  13.2137  13.2799  13.3444
    13.4429  13.5166  13.6992

     occupation numbers 
     1.0000   1.0000   1.0000   1.0000   1.0000   1.0000   1.0000   1.0000
     1.0000   1.0000   1.0000   1.0000   1.0000   1.0000   1.0000   1.0000
     1.0000   1.0000   1.0000   1.0000   1.0000   1.0000   1.0000   1.0000
     1.0000   1.0000   1.0000   1.0000   1.0000   1.0000   1.0000   1.0000
     1.0000   1.0000   1.0000   1.0000   1.0000   1.0000   1.0000   1.0000
     1.0000   1.0000   1.0000   1.0000   1.0000   1.0000   1.0000   1.0000
     1.0000   1.0000   1.0000   1.0000   1.0000   1.0000   1.0000   1.0000
     1.0000   1.0000   1.0000   1.0000   1.0000   1.0000   1.0000   1.0000
     1.0000   1.0000   1.0000   1.0000   1.0000   1.0000   1.0000   1.0000
     1.0000   1.0000   1.0000   1.0000   1.0000   1.0000   1.0000   1.0000
     1.0000   1.0000   1.0000   1.0000   1.0000   1.0000   1.0000   1.0000
     1.0000   1.0000   1.0000   1.0000   1.0000   1.0000   1.0000   1.0000
     1.0000   1.0000   1.0000   1.0000   1.0000   1.0000   1.0000   1.0000
     1.0000   1.0000   1.0000   1.0000   1.0000   1.0000   1.0000   1.0000
     1.0000   1.0000   1.0000   1.0000   1.0000   1.0000   1.0000   1.0000
     1.0000   1.0000   1.0000   1.0000   1.0000   1.0000   1.0000   1.0000
     1.0000   0.9839   0.0000   0.0000   0.0000   0.0000   0.0000   0.0000
     0.0000   0.0000   0.0000   0.0000   0.0000   0.0000   0.0000   0.0000
     0.0000   0.0000   0.0000   0.0000   0.0000   0.0000   0.0000   0.0000
     0.0000   0.0000   0.0000

          k = 0.1651 0.1901 0.2019 ( 25944 PWs)   bands (ev):

   -68.0963 -67.9685 -67.5511 -67.5117 -67.4061 -48.9738 -34.8631 -34.8398
   -34.8385 -34.7286 -34.7247 -34.7038 -34.3056 -34.3049 -34.2966 -34.2809
   -34.2561 -34.2488 -34.1814 -34.1641 -34.1235 -25.4770 -25.4697 -25.1677
   -23.5341 -23.5068 -15.2160 -15.1965 -14.4104 -14.3946 -13.9543 -13.9374
   -13.6729 -13.4875 -13.4228 -13.3502 -13.3073 -13.2140 -13.1767 -13.1313
   -13.0934 -13.0023 -12.7615 -12.6985 -12.6026 -12.5740 -12.5089 -12.4462
   -11.4136 -11.1997  -7.0768  -7.0542  -7.0153  -7.0000  -6.9752  -6.9651
    -4.3794  -4.3324  -2.8298  -2.7918  -2.0614  -1.7028  -1.5718  -1.5298
    -1.1570  -1.0979  -1.0344  -0.9270  -0.7927  -0.7114  -0.5423  -0.4910
    -0.2751  -0.2051  -0.0794   0.0286   0.1815   0.3164   0.3493   0.5485
     0.7874   0.8534   0.9630   1.0603   1.1187   1.2346   1.3220   1.4137
     1.4889   1.5769   1.6458   1.7317   1.8578   1.9616   2.0043   2.0980
     2.1423   2.1609   2.2105   2.2533   2.3032   2.4057   2.4438   2.5019
     2.5536   2.6552   2.7228   2.7642   2.8270   2.8930   2.9625   3.0251
     3.0651   3.1525   3.1879   3.2339   3.3067   3.3376   3.3897   3.4447
     3.5371   3.5763   3.5881   3.6782   3.7299   3.8613   3.9562   4.1456
     8.7679   8.9207   9.3961   9.5667   9.9599  10.2717  10.5796  11.2962
    11.3539  11.4652  11.7530  12.2009  12.2832  12.3793  12.6136  12.7667
    12.8734  12.9344  12.9633  13.0632  13.1118  13.1769  13.2583  13.3347
    13.3904  13.5458  13.5830

     occupation numbers 
     1.0000   1.0000   1.0000   1.0000   1.0000   1.0000   1.0000   1.0000
     1.0000   1.0000   1.0000   1.0000   1.0000   1.0000   1.0000   1.0000
     1.0000   1.0000   1.0000   1.0000   1.0000   1.0000   1.0000   1.0000
     1.0000   1.0000   1.0000   1.0000   1.0000   1.0000   1.0000   1.0000
     1.0000   1.0000   1.0000   1.0000   1.0000   1.0000   1.0000   1.0000
     1.0000   1.0000   1.0000   1.0000   1.0000   1.0000   1.0000   1.0000
     1.0000   1.0000   1.0000   1.0000   1.0000   1.0000   1.0000   1.0000
     1.0000   1.0000   1.0000   1.0000   1.0000   1.0000   1.0000   1.0000
     1.0000   1.0000   1.0000   1.0000   1.0000   1.0000   1.0000   1.0000
     1.0000   1.0000   1.0000   1.0000   1.0000   1.0000   1.0000   1.0000
     1.0000   1.0000   1.0000   1.0000   1.0000   1.0000   1.0000   1.0000
     1.0000   1.0000   1.0000   1.0000   1.0000   1.0000   1.0000   1.0000
     1.0000   1.0000   1.0000   1.0000   1.0000   1.0000   1.0000   1.0000
     1.0000   1.0000   1.0000   1.0000   1.0000   1.0000   1.0000   1.0000
     1.0000   1.0000   1.0000   1.0000   1.0000   1.0000   1.0000   1.0000
     1.0000   1.0000   1.0000   1.0000   1.0000   1.0000   1.0000   1.0000
     1.0000   0.9801   0.0000   0.0000   0.0000   0.0000   0.0000   0.0000
     0.0000   0.0000   0.0000   0.0000   0.0000   0.0000   0.0000   0.0000
     0.0000   0.0000   0.0000   0.0000   0.0000   0.0000   0.0000   0.0000
     0.0000   0.0000   0.0000

          k = 0.1651 0.1901-0.1417 ( 25923 PWs)   bands (ev):

   -68.0963 -67.9685 -67.5511 -67.5117 -67.4061 -48.9738 -34.8631 -34.8398
   -34.8385 -34.7286 -34.7247 -34.7038 -34.3056 -34.3049 -34.2966 -34.2809
   -34.2561 -34.2488 -34.1814 -34.1641 -34.1235 -25.4769 -25.4696 -25.1677
   -23.5341 -23.5068 -15.2210 -15.1913 -14.4130 -14.3919 -13.9513 -13.9406
   -13.6735 -13.4891 -13.4175 -13.3560 -13.3056 -13.2082 -13.1828 -13.1323
   -13.0920 -13.0024 -12.7585 -12.7006 -12.5927 -12.5860 -12.5085 -12.4447
   -11.4135 -11.1996  -7.0769  -7.0542  -7.0153  -7.0000  -6.9752  -6.9651
    -4.3643  -4.3478  -2.8304  -2.7907  -2.0675  -1.7076  -1.5728  -1.5261
    -1.1415  -1.1144  -1.0248  -0.9348  -0.7948  -0.6866  -0.5525  -0.4896
    -0.2854  -0.1960  -0.1050   0.0552   0.2078   0.3115   0.3825   0.5281
     0.7576   0.8494   0.9603   1.0436   1.1341   1.2162   1.3082   1.4128
     1.4806   1.6137   1.6223   1.7563   1.8487   1.9089   2.0081   2.0888
     2.1361   2.1722   2.2191   2.2703   2.3199   2.4257   2.4388   2.4702
     2.5529   2.6838   2.7383   2.7827   2.8509   2.8757   2.9625   3.0440
     3.0865   3.1437   3.1901   3.2420   3.2744   3.3394   3.3963   3.4384
     3.4988   3.5581   3.5946   3.6794   3.7404   3.8593   3.9561   4.1416
     8.7685   8.9135   9.4079   9.4264  10.1447  10.1903  10.7305  11.2174
    11.3712  11.5652  11.8042  12.1245  12.2131  12.4201  12.5516  12.6628
    12.8795  12.9188  12.9809  12.9919  13.1213  13.1747  13.2727  13.3481
    13.4080  13.4820  13.5371

     occupation numbers 
     1.0000   1.0000   1.0000   1.0000   1.0000   1.0000   1.0000   1.0000
     1.0000   1.0000   1.0000   1.0000   1.0000   1.0000   1.0000   1.0000
     1.0000   1.0000   1.0000   1.0000   1.0000   1.0000   1.0000   1.0000
     1.0000   1.0000   1.0000   1.0000   1.0000   1.0000   1.0000   1.0000
     1.0000   1.0000   1.0000   1.0000   1.0000   1.0000   1.0000   1.0000
     1.0000   1.0000   1.0000   1.0000   1.0000   1.0000   1.0000   1.0000
     1.0000   1.0000   1.0000   1.0000   1.0000   1.0000   1.0000   1.0000
     1.0000   1.0000   1.0000   1.0000   1.0000   1.0000   1.0000   1.0000
     1.0000   1.0000   1.0000   1.0000   1.0000   1.0000   1.0000   1.0000
     1.0000   1.0000   1.0000   1.0000   1.0000   1.0000   1.0000   1.0000
     1.0000   1.0000   1.0000   1.0000   1.0000   1.0000   1.0000   1.0000
     1.0000   1.0000   1.0000   1.0000   1.0000   1.0000   1.0000   1.0000
     1.0000   1.0000   1.0000   1.0000   1.0000   1.0000   1.0000   1.0000
     1.0000   1.0000   1.0000   1.0000   1.0000   1.0000   1.0000   1.0000
     1.0000   1.0000   1.0000   1.0000   1.0000   1.0000   1.0000   1.0000
     1.0000   1.0000   1.0000   1.0000   1.0000   1.0000   1.0000   1.0000
     1.0000   0.9975   0.0000   0.0000   0.0000   0.0000   0.0000   0.0000
     0.0000   0.0000   0.0000   0.0000   0.0000   0.0000   0.0000   0.0000
     0.0000   0.0000   0.0000   0.0000   0.0000   0.0000   0.0000   0.0000
     0.0000   0.0000   0.0000

          k = 0.3302 0.0000 0.0603 ( 25907 PWs)   bands (ev):

   -68.0963 -67.9685 -67.5511 -67.5117 -67.4061 -48.9738 -34.8629 -34.8401
   -34.8384 -34.7287 -34.7246 -34.7038 -34.3058 -34.3048 -34.2965 -34.2808
   -34.2560 -34.2489 -34.1808 -34.1644 -34.1240 -25.4768 -25.4703 -25.1677
   -23.5339 -23.5066 -15.0781 -15.0377 -14.5024 -14.4745 -14.0925 -14.0728
   -13.6092 -13.4339 -13.3899 -13.3367 -13.3035 -13.2081 -13.1372 -13.0939
   -13.0804 -13.0186 -12.8237 -12.7638 -12.6763 -12.6149 -12.5056 -12.4311
   -11.4099 -11.2086  -7.0782  -7.0584  -7.0149  -6.9986  -6.9748  -6.9614
    -4.0120  -3.9604  -2.8143  -2.7187  -2.0901  -1.9320  -1.7442  -1.5579
    -1.1630  -1.0440  -0.9909  -0.9626  -0.7883  -0.6457  -0.5424  -0.4889
    -0.3117  -0.1934  -0.0171   0.0733   0.2175   0.3249   0.3627   0.4569
     0.7587   0.8561   0.9429   0.9870   1.1117   1.1885   1.2797   1.2969
     1.3387   1.4243   1.5724   1.6641   1.7867   1.9740   2.0252   2.0998
     2.1440   2.2695   2.2814   2.3505   2.4071   2.4289   2.4876   2.5282
     2.6073   2.6254   2.7033   2.7961   2.8472   2.8778   2.9084   2.9574
     3.0068   3.0941   3.1295   3.1797   3.2700   3.3283   3.3487   3.4087
     3.4415   3.4862   3.5755   3.6181   3.6565   3.9324   3.9990   4.0401
     8.7592   8.8758   9.3528   9.6690  10.5642  10.8556  11.2093  11.2531
    11.4051  11.6105  11.7615  11.9028  12.2415  12.3390  12.4495  12.5583
    12.6167  12.8335  13.0349  13.1306  13.1683  13.2072  13.2207  13.2941
    13.4706  13.6483  13.8099

     occupation numbers 
     1.0000   1.0000   1.0000   1.0000   1.0000   1.0000   1.0000   1.0000
     1.0000   1.0000   1.0000   1.0000   1.0000   1.0000   1.0000   1.0000
     1.0000   1.0000   1.0000   1.0000   1.0000   1.0000   1.0000   1.0000
     1.0000   1.0000   1.0000   1.0000   1.0000   1.0000   1.0000   1.0000
     1.0000   1.0000   1.0000   1.0000   1.0000   1.0000   1.0000   1.0000
     1.0000   1.0000   1.0000   1.0000   1.0000   1.0000   1.0000   1.0000
     1.0000   1.0000   1.0000   1.0000   1.0000   1.0000   1.0000   1.0000
     1.0000   1.0000   1.0000   1.0000   1.0000   1.0000   1.0000   1.0000
     1.0000   1.0000   1.0000   1.0000   1.0000   1.0000   1.0000   1.0000
     1.0000   1.0000   1.0000   1.0000   1.0000   1.0000   1.0000   1.0000
     1.0000   1.0000   1.0000   1.0000   1.0000   1.0000   1.0000   1.0000
     1.0000   1.0000   1.0000   1.0000   1.0000   1.0000   1.0000   1.0000
     1.0000   1.0000   1.0000   1.0000   1.0000   1.0000   1.0000   1.0000
     1.0000   1.0000   1.0000   1.0000   1.0000   1.0000   1.0000   1.0000
     1.0000   1.0000   1.0000   1.0000   1.0000   1.0000   1.0000   1.0000
     1.0000   1.0000   1.0000   1.0000   1.0000   1.0000   1.0000   1.0000
     1.0000   1.0000   0.0000   0.0000   0.0000   0.0000   0.0000   0.0000
     0.0000   0.0000   0.0000   0.0000   0.0000   0.0000   0.0000   0.0000
     0.0000   0.0000   0.0000   0.0000   0.0000   0.0000   0.0000   0.0000
     0.0000   0.0000   0.0000

          k = 0.3302 0.0000 0.2320 ( 25948 PWs)   bands (ev):

   -68.0963 -67.9685 -67.5511 -67.5117 -67.4061 -48.9738 -34.8629 -34.8401
   -34.8384 -34.7287 -34.7246 -34.7038 -34.3058 -34.3048 -34.2965 -34.2808
   -34.2560 -34.2489 -34.1808 -34.1644 -34.1240 -25.4768 -25.4703 -25.1677
   -23.5339 -23.5066 -15.0644 -15.0521 -14.4999 -14.4771 -14.0901 -14.0754
   -13.6081 -13.4288 -13.3909 -13.3486 -13.2961 -13.2067 -13.1356 -13.0973
   -13.0780 -13.0225 -12.8171 -12.7716 -12.6656 -12.6233 -12.4962 -12.4397
   -11.4093 -11.2093  -7.0783  -7.0584  -7.0148  -6.9985  -6.9748  -6.9614
    -4.0176  -3.9546  -2.7965  -2.7388  -2.0700  -1.9584  -1.7287  -1.5480
    -1.1715  -1.0314  -0.9991  -0.9375  -0.7871  -0.6655  -0.5552  -0.5206
    -0.2750  -0.2384  -0.0202   0.0533   0.2151   0.3272   0.3436   0.4970
     0.8018   0.8546   0.9183   1.0035   1.0684   1.1958   1.2872   1.3403
     1.3793   1.4823   1.5064   1.7045   1.8084   1.9566   2.0082   2.0608
     2.1590   2.2025   2.2954   2.3478   2.3969   2.4324   2.4851   2.5016
     2.6037   2.6351   2.7097   2.8038   2.8483   2.8679   2.9019   2.9754
     3.0150   3.1031   3.1255   3.1863   3.2593   3.3083   3.3452   3.4359
     3.4548   3.4815   3.5271   3.6049   3.6997   3.9110   4.0217   4.0550
     8.7612   8.8684   9.3537   9.9339  10.2231  10.9596  11.0789  11.1668
    11.5068  11.5800  11.7212  11.9586  12.2339  12.2788  12.4145  12.4768
    12.9064  12.9519  13.0355  13.0942  13.1654  13.2035  13.2684  13.3991
    13.4494  13.4895  13.7592

     occupation numbers 
     1.0000   1.0000   1.0000   1.0000   1.0000   1.0000   1.0000   1.0000
     1.0000   1.0000   1.0000   1.0000   1.0000   1.0000   1.0000   1.0000
     1.0000   1.0000   1.0000   1.0000   1.0000   1.0000   1.0000   1.0000
     1.0000   1.0000   1.0000   1.0000   1.0000   1.0000   1.0000   1.0000
     1.0000   1.0000   1.0000   1.0000   1.0000   1.0000   1.0000   1.0000
     1.0000   1.0000   1.0000   1.0000   1.0000   1.0000   1.0000   1.0000
     1.0000   1.0000   1.0000   1.0000   1.0000   1.0000   1.0000   1.0000
     1.0000   1.0000   1.0000   1.0000   1.0000   1.0000   1.0000   1.0000
     1.0000   1.0000   1.0000   1.0000   1.0000   1.0000   1.0000   1.0000
     1.0000   1.0000   1.0000   1.0000   1.0000   1.0000   1.0000   1.0000
     1.0000   1.0000   1.0000   1.0000   1.0000   1.0000   1.0000   1.0000
     1.0000   1.0000   1.0000   1.0000   1.0000   1.0000   1.0000   1.0000
     1.0000   1.0000   1.0000   1.0000   1.0000   1.0000   1.0000   1.0000
     1.0000   1.0000   1.0000   1.0000   1.0000   1.0000   1.0000   1.0000
     1.0000   1.0000   1.0000   1.0000   1.0000   1.0000   1.0000   1.0000
     1.0000   1.0000   1.0000   1.0000   1.0000   1.0000   1.0000   1.0000
     1.0000   1.0000   0.0000   0.0000   0.0000   0.0000   0.0000   0.0000
     0.0000   0.0000   0.0000   0.0000   0.0000   0.0000   0.0000   0.0000
     0.0000   0.0000   0.0000   0.0000   0.0000   0.0000   0.0000   0.0000
     0.0000   0.0000   0.0000

          k = 0.3302 0.0000-0.1115 ( 25913 PWs)   bands (ev):

   -68.0963 -67.9685 -67.5511 -67.5117 -67.4061 -48.9738 -34.8629 -34.8401
   -34.8384 -34.7287 -34.7246 -34.7038 -34.3058 -34.3048 -34.2965 -34.2808
   -34.2560 -34.2489 -34.1808 -34.1644 -34.1240 -25.4768 -25.4703 -25.1677
   -23.5339 -23.5066 -15.0737 -15.0425 -14.4937 -14.4835 -14.0912 -14.0742
   -13.6092 -13.4290 -13.3902 -13.3490 -13.2955 -13.2060 -13.1361 -13.0924
   -13.0823 -13.0238 -12.8137 -12.7751 -12.6616 -12.6269 -12.4985 -12.4371
   -11.4092 -11.2093  -7.0782  -7.0585  -7.0149  -6.9985  -6.9748  -6.9614
    -3.9938  -3.9790  -2.8068  -2.7275  -2.0818  -1.9401  -1.7441  -1.5519
    -1.1662  -1.0342  -0.9796  -0.9554  -0.7747  -0.6731  -0.5625  -0.4946
    -0.3117  -0.2164   0.0063   0.0363   0.2444   0.3083   0.3808   0.4616
     0.7841   0.8445   0.9290   1.0384   1.0740   1.1822   1.2650   1.3434
     1.3574   1.4104   1.5708   1.6732   1.8048   1.9566   2.0015   2.0784
     2.1351   2.2607   2.2915   2.3526   2.3786   2.4275   2.5037   2.5096
     2.6097   2.6180   2.7109   2.8079   2.8352   2.8546   2.9319   2.9896
     3.0873   3.1162   3.1342   3.1864   3.2320   3.3070   3.3413   3.3954
     3.4513   3.4781   3.4872   3.5915   3.7265   3.9207   4.0104   4.0574
     8.7605   8.8659   9.3559   9.7420  10.4496  10.8976  11.1845  11.2810
    11.4084  11.6601  11.7359  11.9704  12.2130  12.3120  12.4163  12.5130
    12.6670  12.8854  12.9311  13.0856  13.1656  13.2056  13.2103  13.2871
    13.5465  13.6370  13.8228

     occupation numbers 
     1.0000   1.0000   1.0000   1.0000   1.0000   1.0000   1.0000   1.0000
     1.0000   1.0000   1.0000   1.0000   1.0000   1.0000   1.0000   1.0000
     1.0000   1.0000   1.0000   1.0000   1.0000   1.0000   1.0000   1.0000
     1.0000   1.0000   1.0000   1.0000   1.0000   1.0000   1.0000   1.0000
     1.0000   1.0000   1.0000   1.0000   1.0000   1.0000   1.0000   1.0000
     1.0000   1.0000   1.0000   1.0000   1.0000   1.0000   1.0000   1.0000
     1.0000   1.0000   1.0000   1.0000   1.0000   1.0000   1.0000   1.0000
     1.0000   1.0000   1.0000   1.0000   1.0000   1.0000   1.0000   1.0000
     1.0000   1.0000   1.0000   1.0000   1.0000   1.0000   1.0000   1.0000
     1.0000   1.0000   1.0000   1.0000   1.0000   1.0000   1.0000   1.0000
     1.0000   1.0000   1.0000   1.0000   1.0000   1.0000   1.0000   1.0000
     1.0000   1.0000   1.0000   1.0000   1.0000   1.0000   1.0000   1.0000
     1.0000   1.0000   1.0000   1.0000   1.0000   1.0000   1.0000   1.0000
     1.0000   1.0000   1.0000   1.0000   1.0000   1.0000   1.0000   1.0000
     1.0000   1.0000   1.0000   1.0000   1.0000   1.0000   1.0000   1.0000
     1.0000   1.0000   1.0000   1.0000   1.0000   1.0000   1.0000   1.0000
     1.0000   1.0000   0.0000   0.0000   0.0000   0.0000   0.0000   0.0000
     0.0000   0.0000   0.0000   0.0000   0.0000   0.0000   0.0000   0.0000
     0.0000   0.0000   0.0000   0.0000   0.0000   0.0000   0.0000   0.0000
     0.0000   0.0000   0.0000

          k = 0.3302 0.1901 0.0603 ( 25923 PWs)   bands (ev):

   -68.0963 -67.9685 -67.5511 -67.5117 -67.4061 -48.9738 -34.8629 -34.8401
   -34.8384 -34.7287 -34.7246 -34.7038 -34.3058 -34.3048 -34.2965 -34.2808
   -34.2560 -34.2489 -34.1808 -34.1644 -34.1240 -25.4768 -25.4703 -25.1677
   -23.5339 -23.5066 -15.0745 -15.0344 -14.5134 -14.4843 -14.0892 -14.0708
   -13.6049 -13.4269 -13.3886 -13.3048 -13.2702 -13.2133 -13.1610 -13.1343
   -13.0957 -13.0188 -12.8188 -12.7510 -12.6748 -12.6205 -12.5038 -12.4313
   -11.4095 -11.2086  -7.0779  -7.0593  -7.0149  -6.9982  -6.9746  -6.9615
    -3.9873  -3.9375  -2.9138  -2.8323  -2.0207  -1.8245  -1.7005  -1.5637
    -1.1656  -1.0741  -0.9856  -0.9263  -0.8323  -0.6057  -0.5194  -0.4171
    -0.3283  -0.2339  -0.0397   0.0868   0.2236   0.3100   0.3230   0.4069
     0.7366   0.7808   1.0033   1.0710   1.1129   1.1811   1.2332   1.3293
     1.3370   1.4304   1.5470   1.6044   1.8000   1.9816   2.0839   2.1202
     2.1690   2.2396   2.2580   2.3044   2.3990   2.4360   2.4923   2.5281
     2.5821   2.7110   2.7434   2.7803   2.8215   2.8696   2.9469   2.9810
     3.0320   3.0975   3.1332   3.1822   3.2290   3.2835   3.3673   3.4025
     3.4266   3.4954   3.5488   3.6372   3.6583   3.9109   3.9740   4.0374
     8.7608   8.8851   9.3514   9.9190  10.5202  10.6922  10.9645  11.2411
    11.4700  11.5782  11.7372  12.0303  12.1397  12.2675  12.3732  12.6670
    12.8114  12.8955  12.9478  13.0183  13.1785  13.2044  13.3174  13.4311
    13.5477  13.6893  13.8331

     occupation numbers 
     1.0000   1.0000   1.0000   1.0000   1.0000   1.0000   1.0000   1.0000
     1.0000   1.0000   1.0000   1.0000   1.0000   1.0000   1.0000   1.0000
     1.0000   1.0000   1.0000   1.0000   1.0000   1.0000   1.0000   1.0000
     1.0000   1.0000   1.0000   1.0000   1.0000   1.0000   1.0000   1.0000
     1.0000   1.0000   1.0000   1.0000   1.0000   1.0000   1.0000   1.0000
     1.0000   1.0000   1.0000   1.0000   1.0000   1.0000   1.0000   1.0000
     1.0000   1.0000   1.0000   1.0000   1.0000   1.0000   1.0000   1.0000
     1.0000   1.0000   1.0000   1.0000   1.0000   1.0000   1.0000   1.0000
     1.0000   1.0000   1.0000   1.0000   1.0000   1.0000   1.0000   1.0000
     1.0000   1.0000   1.0000   1.0000   1.0000   1.0000   1.0000   1.0000
     1.0000   1.0000   1.0000   1.0000   1.0000   1.0000   1.0000   1.0000
     1.0000   1.0000   1.0000   1.0000   1.0000   1.0000   1.0000   1.0000
     1.0000   1.0000   1.0000   1.0000   1.0000   1.0000   1.0000   1.0000
     1.0000   1.0000   1.0000   1.0000   1.0000   1.0000   1.0000   1.0000
     1.0000   1.0000   1.0000   1.0000   1.0000   1.0000   1.0000   1.0000
     1.0000   1.0000   1.0000   1.0000   1.0000   1.0000   1.0000   1.0000
     1.0000   1.0000   0.0000   0.0000   0.0000   0.0000   0.0000   0.0000
     0.0000   0.0000   0.0000   0.0000   0.0000   0.0000   0.0000   0.0000
     0.0000   0.0000   0.0000   0.0000   0.0000   0.0000   0.0000   0.0000
     0.0000   0.0000   0.0000

          k = 0.3302 0.1901 0.2320 ( 25909 PWs)   bands (ev):

   -68.0963 -67.9685 -67.5511 -67.5117 -67.4061 -48.9738 -34.8629 -34.8401
   -34.8384 -34.7287 -34.7246 -34.7038 -34.3058 -34.3048 -34.2965 -34.2808
   -34.2560 -34.2489 -34.1808 -34.1644 -34.1240 -25.4768 -25.4703 -25.1677
   -23.5339 -23.5066 -15.0606 -15.0490 -14.5092 -14.4886 -14.0870 -14.0732
   -13.6040 -13.4223 -13.3894 -13.3172 -13.2599 -13.2152 -13.1595 -13.1354
   -13.0920 -13.0239 -12.8125 -12.7602 -12.6645 -12.6275 -12.4945 -12.4400
   -11.4089 -11.2092  -7.0780  -7.0594  -7.0149  -6.9982  -6.9746  -6.9614
    -3.9910  -3.9334  -2.8894  -2.8592  -2.0080  -1.8413  -1.6884  -1.5540
[...]
     atom   11 type  7   force =     0.00020719    0.00209871    0.01283418
     atom   12 type  7   force =    -0.00133474   -0.01225847    0.01045204
     atom   13 type  7   force =     0.00133477   -0.01225847   -0.01045204
     atom   14 type  1   force =    -0.00031930   -0.00219710   -0.00969819
     atom   15 type  1   force =     0.00031927   -0.00219710    0.00969819
     atom   16 type  6   force =     0.00021634    0.00126401    0.00604537
     atom   17 type  6   force =    -0.00021635    0.00126401   -0.00604537
     atom   18 type  6   force =    -0.00052811   -0.00107850   -0.00652606
     atom   19 type  6   force =     0.00052812   -0.00107850    0.00652606
     atom   20 type  6   force =     0.00006555   -0.00030670    0.00677780
     atom   21 type  6   force =    -0.00006554   -0.00030670   -0.00677780
     atom   22 type  6   force =     0.00005454    0.00012078   -0.00313913
     atom   23 type  6   force =    -0.00005455    0.00012077    0.00313912
     atom   24 type  6   force =     0.00453864   -0.00145512   -0.00595369
     atom   25 type  6   force =    -0.00453864   -0.00145511    0.00595366
     atom   26 type  6   force =    -0.00297436    0.00076723   -0.00689467
     atom   27 type  6   force =     0.00297438    0.00076723    0.00689462
     atom   28 type  6   force =    -0.00146933    0.00192039    0.00742462
     atom   29 type  6   force =     0.00146933    0.00192038   -0.00742459
     atom   30 type  6   force =     0.00053454   -0.00168018   -0.00747558
     atom   31 type  6   force =    -0.00053454   -0.00168018    0.00747561
     atom   32 type  6   force =    -0.00207333   -0.00352285   -0.00645232
     atom   33 type  6   force =     0.00207330   -0.00352285    0.00645231
     atom   34 type  6   force =     0.00139444    0.00383161    0.00650374
     atom   35 type  6   force =    -0.00139444    0.00383161   -0.00650371
     atom   36 type  6   force =    -0.00003004    0.00049596    0.01120982
     atom   37 type  6   force =     0.00003006    0.00049596   -0.01120982
     atom   38 type  6   force =    -0.00088214   -0.00083980    0.01097950
     atom   39 type  6   force =     0.00088216   -0.00083980   -0.01097950
     atom   40 type  3   force =     0.00000000    0.00000000    0.00000000
     atom   41 type  3   force =     0.00000000    0.00000000    0.00000000
     atom   42 type  3   force =     0.00000000    0.00000000    0.00000000
     atom   43 type  3   force =     0.00000000    0.00000000    0.00000000
     atom   44 type  2   force =    -0.00000000   -0.00150208   -0.00000000
     The Hubbard contrib.    to forces
     atom    1 type  4   force =     0.00000000    0.00000000    0.00000000
     atom    2 type  4   force =     0.00000000    0.00000000    0.00000000
     atom    3 type  5   force =     0.00000000    0.00000000    0.00000000
     atom    4 type  5   force =     0.00000000    0.00000000    0.00000000
     atom    5 type  5   force =     0.00000000    0.00000000    0.00000000
     atom    6 type  5   force =     0.00000000    0.00000000    0.00000000
     atom    7 type  5   force =     0.00000000    0.00000000    0.00000000
     atom    8 type  7   force =     0.00000000    0.00000000    0.00000000
     atom    9 type  7   force =     0.00000000    0.00000000    0.00000000
     atom   10 type  7   force =     0.00000000    0.00000000    0.00000000
     atom   11 type  7   force =     0.00000000    0.00000000    0.00000000
     atom   12 type  7   force =     0.00000000    0.00000000    0.00000000
     atom   13 type  7   force =     0.00000000    0.00000000    0.00000000
     atom   14 type  1   force =     0.00000000    0.00000000    0.00000000
     atom   15 type  1   force =     0.00000000    0.00000000    0.00000000
     atom   16 type  6   force =     0.00000000    0.00000000    0.00000000
     atom   17 type  6   force =     0.00000000    0.00000000    0.00000000
     atom   18 type  6   force =     0.00000000    0.00000000    0.00000000
     atom   19 type  6   force =     0.00000000    0.00000000    0.00000000
     atom   20 type  6   force =     0.00000000    0.00000000    0.00000000
     atom   21 type  6   force =     0.00000000    0.00000000    0.00000000
     atom   22 type  6   force =     0.00000000    0.00000000    0.00000000
     atom   23 type  6   force =     0.00000000    0.00000000    0.00000000
     atom   24 type  6   force =     0.00000000    0.00000000    0.00000000
     atom   25 type  6   force =     0.00000000    0.00000000    0.00000000
     atom   26 type  6   force =     0.00000000    0.00000000    0.00000000
     atom   27 type  6   force =     0.00000000    0.00000000    0.00000000
     atom   28 type  6   force =     0.00000000    0.00000000    0.00000000
     atom   29 type  6   force =     0.00000000    0.00000000    0.00000000
     atom   30 type  6   force =     0.00000000    0.00000000    0.00000000
     atom   31 type  6   force =     0.00000000    0.00000000    0.00000000
     atom   32 type  6   force =     0.00000000    0.00000000    0.00000000
     atom   33 type  6   force =     0.00000000    0.00000000    0.00000000
     atom   34 type  6   force =     0.00000000    0.00000000    0.00000000
     atom   35 type  6   force =     0.00000000    0.00000000    0.00000000
     atom   36 type  6   force =     0.00000000    0.00000000    0.00000000
     atom   37 type  6   force =     0.00000000    0.00000000    0.00000000
     atom   38 type  6   force =     0.00000000    0.00000000    0.00000000
     atom   39 type  6   force =     0.00000000    0.00000000    0.00000000
     atom   40 type  3   force =     0.00000000    0.00000000    0.00000000
     atom   41 type  3   force =     0.00000000    0.00000000    0.00000000
     atom   42 type  3   force =     0.00000000    0.00000000    0.00000000
     atom   43 type  3   force =     0.00000000    0.00000000    0.00000000
     atom   44 type  2   force =     0.00000000    0.00000000    0.00000000
     The SCF correction term to forces
     atom    1 type  4   force =     0.00000000    0.00002029   -0.00000000
     atom    2 type  4   force =    -0.00000000   -0.00001251   -0.00000000
     atom    3 type  5   force =     0.00000000    0.00006675    0.00000000
     atom    4 type  5   force =    -0.00000000   -0.00005188   -0.00000000
     atom    5 type  5   force =    -0.00000000    0.00015726   -0.00000000
     atom    6 type  5   force =     0.00000000   -0.00011187   -0.00000000
     atom    7 type  5   force =    -0.00000000   -0.00003726    0.00000000
     atom    8 type  7   force =    -0.00001566    0.00000183   -0.00004952
     atom    9 type  7   force =     0.00001566    0.00000183    0.00004952
     atom   10 type  7   force =     0.00001299   -0.00002974    0.00007207
     atom   11 type  7   force =    -0.00001299   -0.00002974   -0.00007207
     atom   12 type  7   force =     0.00000989   -0.00000517   -0.00003753
     atom   13 type  7   force =    -0.00000989   -0.00000517    0.00003753
     atom   14 type  1   force =    -0.00000544    0.00002202    0.00006466
     atom   15 type  1   force =     0.00000544    0.00002202   -0.00006466
     atom   16 type  6   force =    -0.00005407    0.00001283    0.00008746
     atom   17 type  6   force =     0.00005407    0.00001283   -0.00008746
     atom   18 type  6   force =     0.00003709   -0.00004136   -0.00012881
     atom   19 type  6   force =    -0.00003709   -0.00004136    0.00012881
     atom   20 type  6   force =     0.00000254   -0.00007454    0.00010002
     atom   21 type  6   force =    -0.00000254   -0.00007454   -0.00010002
     atom   22 type  6   force =    -0.00002023    0.00008461    0.00007910
     atom   23 type  6   force =     0.00002023    0.00008461   -0.00007910
     atom   24 type  6   force =     0.00009054    0.00006882   -0.00014334
     atom   25 type  6   force =    -0.00009054    0.00006882    0.00014334
     atom   26 type  6   force =    -0.00005706   -0.00002057   -0.00019087
     atom   27 type  6   force =     0.00005706   -0.00002057    0.00019087
     atom   28 type  6   force =    -0.00001813   -0.00004810    0.00019545
     atom   29 type  6   force =     0.00001813   -0.00004810   -0.00019545
     atom   30 type  6   force =     0.00000240   -0.00007830   -0.00019057
     atom   31 type  6   force =    -0.00000240   -0.00007830    0.00019057
     atom   32 type  6   force =    -0.00000751   -0.00005170   -0.00009717
     atom   33 type  6   force =     0.00000751   -0.00005170    0.00009717
     atom   34 type  6   force =     0.00006496    0.00011337    0.00012770
     atom   35 type  6   force =    -0.00006496    0.00011337   -0.00012770
     atom   36 type  6   force =     0.00000392    0.00003398    0.00001310
     atom   37 type  6   force =    -0.00000392    0.00003398   -0.00001310
     atom   38 type  6   force =     0.00007145   -0.00002470    0.00001266
     atom   39 type  6   force =    -0.00007145   -0.00002470   -0.00001266
     atom   40 type  3   force =    -0.00000082    0.00000569    0.00002807
     atom   41 type  3   force =     0.00000082    0.00000569   -0.00002807
     atom   42 type  3   force =     0.00000675   -0.00000379    0.00000860
     atom   43 type  3   force =    -0.00000675   -0.00000379   -0.00000860
     atom   44 type  2   force =    -0.00000000   -0.00002640   -0.00000000

     DFT-D3 dispersion contribution to forces:
     atom    1 type  4   force =    -0.00000000    0.00127734   -0.00000000
     atom    2 type  4   force =     0.00000000   -0.00118206    0.00000000
     atom    3 type  5   force =     0.00000000    0.00080386    0.00000000
     atom    4 type  5   force =     0.00000000   -0.00121490   -0.00000000
     atom    5 type  5   force =     0.00000000   -0.00062912    0.00000000
     atom    6 type  5   force =     0.00000000    0.00100246   -0.00000000
     atom    7 type  5   force =     0.00000000   -0.00008999   -0.00000000
     atom    8 type  7   force =    -0.00003374   -0.00014384   -0.00009067
     atom    9 type  7   force =     0.00003374   -0.00014384    0.00009067
     atom   10 type  7   force =     0.00012698    0.00017367   -0.00002876
     atom   11 type  7   force =    -0.00012698    0.00017367    0.00002876
     atom   12 type  7   force =     0.00000178    0.00017474   -0.00009477
     atom   13 type  7   force =    -0.00000178    0.00017474    0.00009477
     atom   14 type  1   force =     0.00001941    0.00008305   -0.00099972
     atom   15 type  1   force =    -0.00001940    0.00008305    0.00099972
     atom   16 type  6   force =    -0.00000656   -0.00002903    0.00049258
     atom   17 type  6   force =     0.00000656   -0.00002903   -0.00049258
     atom   18 type  6   force =     0.00001546    0.00005978   -0.00047834
     atom   19 type  6   force =    -0.00001546    0.00005978    0.00047834
     atom   20 type  6   force =    -0.00006719   -0.00010321    0.00041492
     atom   21 type  6   force =     0.00006719   -0.00010321   -0.00041492
     atom   22 type  6   force =     0.00005239    0.00005025    0.00010170
     atom   23 type  6   force =    -0.00005239    0.00005025   -0.00010170
     atom   24 type  6   force =    -0.00017887    0.00099456    0.00036650
     atom   25 type  6   force =     0.00017887    0.00099457   -0.00036650
     atom   26 type  6   force =     0.00086382    0.00007102    0.00004953
     atom   27 type  6   force =    -0.00086382    0.00007102   -0.00004953
     atom   28 type  6   force =     0.00028980   -0.00045359    0.00008294
     atom   29 type  6   force =    -0.00028979   -0.00045359   -0.00008294
     atom   30 type  6   force =    -0.00013733    0.00022338   -0.00013556
     atom   31 type  6   force =     0.00013733    0.00022338    0.00013556
     atom   32 type  6   force =     0.00092891   -0.00043945    0.00042700
     atom   33 type  6   force =    -0.00092890   -0.00043945   -0.00042700
     atom   34 type  6   force =     0.00065267   -0.00050017   -0.00053160
     atom   35 type  6   force =    -0.00065267   -0.00050017    0.00053160
     atom   36 type  6   force =    -0.00001447   -0.00003002   -0.00049287
     atom   37 type  6   force =     0.00001447   -0.00003002    0.00049287
     atom   38 type  6   force =     0.00022326    0.00003171   -0.00046705
     atom   39 type  6   force =    -0.00022326    0.00003171    0.00046705
     atom   40 type  3   force =     0.00001226    0.00007371   -0.00030033
     atom   41 type  3   force =    -0.00001226    0.00007371    0.00030033
     atom   42 type  3   force =    -0.00003418   -0.00028614   -0.00031022
     atom   43 type  3   force =     0.00003418   -0.00028614    0.00031022
     atom   44 type  2   force =     0.00000000    0.00013155   -0.00000000

     Total force =     0.003447     Total SCF correction =     0.000786

     DFT-D3 dispersion Force =     0.004554
     SCF correction compared to forces is large: reduce conv_thr to get better values


     Computing stress (Cartesian axis) and pressure

          total   stress  (Ry/bohr**3)                   (kbar)     P=       -1.15
  -0.00000614   0.00000000   0.00000099           -0.90        0.00        0.15
   0.00000000  -0.00000766   0.00000000            0.00       -1.13        0.00
   0.00000099   0.00000000  -0.00000970            0.15        0.00       -1.43

     kinetic stress (kbar)  18922.16      0.00    -35.84
                                0.00  18908.85      0.00
                              -35.84      0.00  18659.23

     local   stress (kbar) -36426.15      0.00    -31.79
                                0.00 -35970.53     -0.00
                              -31.79     -0.00  15583.02

     nonloc. stress (kbar)   4342.85      0.00      5.72
                                0.00   4347.01      0.00
                                5.72      0.00   4321.78

     hartree stress (kbar)  20031.67     -0.00     15.53
                               -0.00  19851.08     -0.00
                               15.53     -0.00  -5322.57

     exc-cor stress (kbar)  -2532.80      0.00     -0.09
                                0.00  -2533.41      0.00
                               -0.09      0.00  -2529.84

     corecor stress (kbar)  -1956.75     -0.00      0.64
                               -0.00  -1956.65     -0.00
                                0.64     -0.00  -1958.40

     ewald   stress (kbar)  -2366.92     -0.00     45.82
                               -0.00  -2632.29      0.00
                               45.82      0.00 -28743.39

     hubbard stress (kbar)      0.00      0.00      0.00
                                0.00      0.00      0.00
                                0.00      0.00      0.00

     DFT-D   stress (kbar)    -14.97     -0.00      0.15
                               -0.00    -15.19      0.00
                                0.15      0.00    -11.27

     XDM     stress (kbar)      0.00      0.00      0.00
                                0.00      0.00      0.00
                                0.00      0.00      0.00

     dft-nl  stress (kbar)      0.00      0.00      0.00
                                0.00      0.00      0.00
                                0.00      0.00      0.00

     TS-vdW  stress (kbar)      0.00      0.00      0.00
                                0.00      0.00      0.00
                                0.00      0.00      0.00

     MDB     stress (kbar)      0.00      0.00      0.00
                                0.00      0.00      0.00
                                0.00      0.00      0.00

     3D-RISM stress (kbar)      0.00      0.00      0.00
                                0.00      0.00      0.00
                                0.00      0.00      0.00


     Writing all to output data dir ./temp/phl-ti1-ti1.save/ :
     XML data file, charge density, pseudopotentials, collected wavefunctions

     init_run     :    665.85s CPU    674.31s WALL (       2 calls)
     electrons    :  48355.81s CPU  48820.30s WALL (       2 calls)
     forces       :    537.14s CPU    541.74s WALL (       2 calls)
     force_dftd3  :      5.00s CPU      5.98s WALL (       2 calls)
     stress       :    853.71s CPU    863.23s WALL (       2 calls)
     stres_dftd3  :      4.92s CPU      4.93s WALL (       2 calls)

     Called by init_run:
     wfcinit      :    644.28s CPU    649.80s WALL (       2 calls)
     wfcinit:atom :      1.38s CPU      1.39s WALL (      80 calls)
     wfcinit:wfcr :    635.48s CPU    640.85s WALL (      80 calls)
     potinit      :      4.84s CPU      5.18s WALL (       2 calls)
     hinit0       :      1.91s CPU      2.25s WALL (       2 calls)

     Called by electrons:
     c_bands      :  45320.51s CPU  45699.44s WALL (      27 calls)
     sum_band     :   2775.99s CPU   2840.16s WALL (      27 calls)
     v_of_rho     :     18.44s CPU     19.44s WALL (      29 calls)
     v_h          :      1.02s CPU      1.08s WALL (      29 calls)
     v_xc         :     19.79s CPU     20.85s WALL (      33 calls)
     newd         :    204.89s CPU    224.99s WALL (      29 calls)
     PAW_pot      :     43.27s CPU     43.71s WALL (      29 calls)
     mix_rho      :      4.69s CPU      5.05s WALL (      27 calls)
     energy_dftd3 :      3.88s CPU      3.88s WALL (       2 calls)

     Called by c_bands:
     init_us_2    :     98.60s CPU    100.63s WALL (    2400 calls)
     cegterg      :  45213.31s CPU  45589.69s WALL (    1162 calls)

     Called by sum_band:
     sum_band:wei :      0.04s CPU      0.04s WALL (      27 calls)
     sum_band:loo :   2316.01s CPU   2353.13s WALL (      27 calls)
     sum_band:buf :     13.28s CPU     13.67s WALL (    1080 calls)
     sum_band:ini :     45.28s CPU     46.27s WALL (    1080 calls)
     sum_band:cal :   1647.25s CPU   1662.15s WALL (    1080 calls)
     sum_band:bec :      1.96s CPU      1.97s WALL (    1080 calls)
     addusdens    :    456.34s CPU    483.17s WALL (      27 calls)
                                        0.00s GPU  (      27 calls)
     addusd:skk   :      1.45s CPU      1.90s WALL (     189 calls)
                                        0.00s GPU  (     189 calls)

     Called by *egterg:
     cdiaghg      :    576.85s CPU    586.19s WALL (   11038 calls)
     cegterg:over :   6240.35s CPU   6275.84s WALL (    9958 calls)
     cegterg:upda :   3565.45s CPU   3591.44s WALL (    9958 calls)
     cegterg:last :  10338.44s CPU  10395.82s WALL (    4267 calls)
     cdiaghg:chol :     12.46s CPU     12.80s WALL (   11038 calls)
     cdiaghg:inve :     10.46s CPU     10.53s WALL (   11038 calls)
     cdiaghg:para :    212.66s CPU    216.09s WALL (   22076 calls)
     h_psi        :  17118.68s CPU  17309.81s WALL (   11200 calls)
     s_psi        :   6928.35s CPU   6963.62s WALL (   11200 calls)
     g_psi        :     15.46s CPU     15.58s WALL (    9958 calls)

     Called by h_psi:
     h_psi:calbec :   6908.14s CPU   6945.08s WALL (   11200 calls)
     vloc_psi     :   3197.68s CPU   3306.28s WALL (   11200 calls)
     add_vuspsi   :   6972.35s CPU   7008.47s WALL (   11200 calls)

     General routines
     calbec       :   9157.89s CPU   9211.68s WALL (   12680 calls)
     fft          :     15.95s CPU     17.34s WALL (     801 calls)
     ffts         :      0.68s CPU      0.71s WALL (     112 calls)
     fftw         :   1946.67s CPU   2007.42s WALL ( 1573916 calls)
     interpolate  :      2.00s CPU      2.10s WALL (      58 calls)

     Parallel routines

     PAW routines
     PAW_pot      :     43.27s CPU     43.71s WALL (      29 calls)
     PAW_symme    :      0.03s CPU      0.03s WALL (      55 calls)

     PWSCF        :     14h 0m CPU     14h 8m WALL


   This run was terminated on:  23:16:47   4Mar2025            

=------------------------------------------------------------------------------=
   JOB DONE.
=------------------------------------------------------------------------------=
