 INFO
nunit      1    1    1
unit   cell
celltype   primcell
shape   parapipedal
 END_INFO
 DIM-GROUP
           3           1
 PRIMVEC
   10.6717986190    0.0000000000    0.0000000000
    0.0000000000    9.2766556140    0.0000000000
   -1.8135375590    0.0000000000   10.2455490950
 CONVVEC
   10.6717986190    0.0000000000    0.0000000000
    0.0000000000    9.2766556140    0.0000000000
   -1.8135375590    0.0000000000   10.2455490950
 PRIMCOORD
          88           1
 19     -0.0000108590     4.5333646250    -0.0000088380    -0.0000114400    -0.0007200700     0.0000042100
 19      5.3359092090     4.5333646250     0.0000088380     0.0000114400    -0.0007200700    -0.0000042100
 19      2.6679490150     0.0865117170     0.0000000000     0.0000000000     0.0005937500     0.0000000000
 19      8.0038475260     0.0865134650     0.0000000000     0.0000000000     0.0005927600     0.0000000000
 12     -0.9067434360     0.0369345610     5.1227711630    -0.0000426100    -0.0002681800     0.0000011600
 12      4.4291069220     0.0369345610     5.1227768630     0.0000426100    -0.0002681800    -0.0000011600
 12     -0.9067550040     3.0825714710     5.1227661100    -0.0000411400    -0.0001498100     0.0000060100
 12      4.4291184900     3.0825714710     5.1227819170     0.0000411400    -0.0001498100    -0.0000060100
 12     -0.9067251850     6.1774306180     5.1227515650    -0.0000545100     0.0002860400     0.0000080700
 12      4.4290886700     6.1774306180     5.1227964610     0.0000545100     0.0002860400    -0.0000080700
 12      1.7611820630     7.7464066030     5.1227740130     0.0000000000     0.0002349100     0.0000000000
 12      7.0970800930     7.7464142830     5.1227740130     0.0000000000     0.0001799300     0.0000000000
 12      1.7611820630     1.5716600880     5.1227740130     0.0000000000     0.0000066600     0.0000000000
 12      7.0970800930     1.5716986630     5.1227740130     0.0000000000     0.0000588600     0.0000000000
 26      1.7611820630     4.5554686280     5.1227740130     0.0000000000     0.0002670600     0.0000000000
 26      7.0970800930     4.5554197490     5.1227740130     0.0000000000     0.0003211900     0.0000000000
 14      0.0405324200     1.5280991760     2.3181505970     0.0000123800     0.0000729200     0.0000825900
 14      5.3764283780     1.5281021790     2.3181550060     0.0000206700     0.0000618000     0.0000782000
 14      3.4818316340     1.5280991760     7.9273975930    -0.0000123800     0.0000729200    -0.0000825900
 14      8.8177317800     1.5281021790     7.9273931840    -0.0000206700     0.0000618000    -0.0000782000
 14      3.5874204410     7.7394441020     7.8641855740     0.0000576300    -0.0000423700     0.0001898100
 14      8.9233217830     7.7394442690     7.8641854590     0.0000617800    -0.0000387200     0.0001849900
 14     -0.0650563300     7.7394441020     2.3813622980    -0.0000576300    -0.0000423700    -0.0001898100
 14      5.2708390720     7.7394442690     2.3813624130    -0.0000617800    -0.0000387200    -0.0001849900
 14      2.6034541880     6.1940725480     2.3650325740    -0.0001453000    -0.0000042200    -0.0000505000
 14      7.9393459770     6.1940442650     2.3650407590    -0.0001444200     0.0000314200    -0.0000443000
 14      0.9189099530     6.1940725480     7.8805153090     0.0001453000    -0.0000042200     0.0000505000
 14      6.2548155050     6.1940442650     7.8805071240     0.0001444200     0.0000314200     0.0000443000
 13      0.8078562440     3.0737296540     7.9043132200     0.0002250300     0.0000529100     0.0000135700
 13      6.1437598150     3.0737484980     7.9043153480     0.0002280400     0.0000293200     0.0000119600
 13      2.7145080150     3.0737296540     2.3412349590    -0.0002250300     0.0000529100    -0.0000135700
 13      8.0504009850     3.0737484980     2.3412328320    -0.0002280400     0.0000293200    -0.0000119600
  8     -0.0160833590     1.5120570370     3.9528102460     0.0001420000     0.0000094400    -0.0000372500
  8      5.3198097360     1.5120691290     3.9527933890     0.0001434200     0.0000034700     0.0000013300
  8      3.5384472170     1.5120570370     6.2927374830    -0.0001420000     0.0000094400     0.0000372500
  8      8.8743511330     1.5120691290     6.2927543400    -0.0001434200     0.0000034700    -0.0000013300
  8      3.5580090120     7.7316375040     6.2427354560     0.0003160100    -0.0002279700     0.0003404100
  8      8.8939306630     7.7316390070     6.2427493590     0.0002922500    -0.0002252100     0.0003072300
  8     -0.0356446840     7.7316375040     4.0028122730    -0.0003160100    -0.0002279700    -0.0003404100
  8      5.3002308460     7.7316390070     4.0027983700    -0.0002922500    -0.0002252100    -0.0003072300
  8      2.6470044620     6.2516430490     3.9916256940    -0.0000227300     0.0002661900    -0.0001719000
  8      7.9828935450     6.2516101560     3.9916303080    -0.0000295400     0.0002803400    -0.0001980200
  8      0.8753598250     6.2516430490     6.2539214210     0.0000227300     0.0002661900     0.0001719000
  8      6.2112674430     6.2516101560     6.2539168060     0.0000295400     0.0002803400     0.0001980200
  8      0.8223765190     3.0420540800     6.1647655950    -0.0002145200    -0.0001699000     0.0000872100
  8      6.1582791720     3.0420721740     6.1647548650    -0.0002434800    -0.0001960900     0.0001429500
  8      2.6999877140     3.0420540800     4.0807818270     0.0002145200    -0.0001699000    -0.0000872100
  8      8.0358824030     3.0420721740     4.0807925570     0.0002434800    -0.0001960900    -0.0001429500
  8      1.5081807750     1.9272074360     1.7333090320     0.0000335000    -0.0002925700    -0.0001172200
  8      6.8440650070     1.9272088600     1.7333018670     0.0000738800    -0.0002766800    -0.0001164700
  8      2.0141833490     1.9272074360     8.5122390040    -0.0000335000    -0.0002925700     0.0001172200
  8      7.3500958180     1.9272088600     8.5122461690    -0.0000738800    -0.0002766800     0.0001164700
  8     -0.2787393840     9.2483554740     1.7628432900    -0.0000964400     0.0001058100    -0.0000897000
  8      5.0571469790     9.2483525020     1.7628464430    -0.0000841300     0.0001119300    -0.0000689500
  8      3.8011032150     9.2483554740     8.4827045930     0.0000964400     0.0001058100     0.0000897000
  8      9.1370138730     9.2483525020     8.4827014390     0.0000841300     0.0001119300     0.0000689500
  8      2.1618713070     7.1477566860     8.4673570820    -0.0001787300     0.0005432300     0.0000863100
  8      7.4977923360     7.1477546810     8.4673584560    -0.0002137100     0.0005160000     0.0000801800
  8      1.3604928440     7.1477566860     1.7781908010     0.0001787300     0.0005432300    -0.0000863100
  8      6.6963678760     7.1477546810     1.7781894270     0.0002137100     0.0005160000    -0.0000801800
  8      4.0265103220     6.8350120620     1.7654193820     0.0000693900    -0.0002881400    -0.0000144200
  8      9.3624244640     6.8350151420     1.7654023330     0.0000535800    -0.0003032300    -0.0000125800
  8     -0.5041458820     6.8350120620     8.4801281930    -0.0000693900    -0.0002881400     0.0000144200
  8      4.8317364430     6.8350151420     8.4801452430    -0.0000535800    -0.0003032300     0.0000125800
  8      2.4025797620     4.7167561350     1.7305765880    -0.0004794700    -0.0000327000    -0.0005259600
  8      7.7384661760     4.7167495760     1.7305837000    -0.0004735000    -0.0000353200    -0.0005087800
  8      1.1197845130     4.7167561350     8.5149714380     0.0004794700    -0.0000327000     0.0005259600
  8      6.4556946410     4.7167495760     8.5149643270     0.0004735000    -0.0000353200     0.0005087800
  8     -0.7377776250     2.5248268960     8.5698288150     0.0002088000    -0.0000597200    -0.0000199000
  8      4.5981251140     2.5248169740     8.5698486620     0.0002362400    -0.0000494400    -0.0000366100
  8      4.2601419560     2.5248268960     1.6757193750    -0.0002088000    -0.0000597200     0.0000199000
  8      9.5960363240     2.5248169740     1.6756995280    -0.0002362400    -0.0000494400     0.0000366100
  8     -0.0732814390     4.6710809800     4.0460862430    -0.0002275200    -0.0000571700     0.0001492900
  8      5.2626570240     4.6710747540     4.0460919050    -0.0002331500    -0.0000496800     0.0001070200
  8      3.5956456610     4.6710809800     6.1994611780     0.0002275200    -0.0000571700    -0.0001492900
  8      8.9315038990     4.6710747540     6.1994555170     0.0002331500    -0.0000496800    -0.0001070200
  8      2.6595740050     9.2705709380     4.0967701370    -0.0004521100     0.0000703200     0.0004096200
  8      7.9954718230     9.2705771100     4.0967685220    -0.0004506900     0.0000742600     0.0004247000
  8      0.8627902720     9.2705709380     6.1487769770     0.0004521100     0.0000703200    -0.0004096200
  8      6.1986885250     9.2705771100     6.1487785930     0.0004506900     0.0000742600    -0.0004247000
  1      0.0296832200     4.6080366220     3.0870954630    -0.0000634600     0.0001352800     0.0000260200
  1      5.3655916750     4.6080342090     3.0870905230    -0.0000589900     0.0001358400     0.0000452200
  1      3.4926810240     4.6080366220     7.1584516520     0.0000634600     0.0001352800    -0.0000260200
  1      8.8285693030     4.6080342090     7.1584565910     0.0000589900     0.0001358400    -0.0000452200
  1      2.6433068340     0.1261995890     3.1395691810    -0.0000555300    -0.0002147000     0.0000117000
  1      7.9792053780     0.1262004000     3.1395693120    -0.0000567900    -0.0002121700     0.0000093400
  1      0.8790574930     0.1261995890     7.1059785480     0.0000555300    -0.0002147000    -0.0000117000
  1      6.2149554900     0.1262004000     7.1059784170     0.0000567900    -0.0002121700    -0.0000093400
 CONVCOORD
          88           1
 19     -0.0000108590     4.5333646250    -0.0000088380
 19      5.3359092090     4.5333646250     0.0000088380
 19      2.6679490150     0.0865117170     0.0000000000
 19      8.0038475260     0.0865134650     0.0000000000
 12     -0.9067434360     0.0369345610     5.1227711630
 12      4.4291069220     0.0369345610     5.1227768630
 12     -0.9067550040     3.0825714710     5.1227661100
 12      4.4291184900     3.0825714710     5.1227819170
 12     -0.9067251850     6.1774306180     5.1227515650
 12      4.4290886700     6.1774306180     5.1227964610
 12      1.7611820630     7.7464066030     5.1227740130
 12      7.0970800930     7.7464142830     5.1227740130
 12      1.7611820630     1.5716600880     5.1227740130
 12      7.0970800930     1.5716986630     5.1227740130
 26      1.7611820630     4.5554686280     5.1227740130
 26      7.0970800930     4.5554197490     5.1227740130
 14      0.0405324200     1.5280991760     2.3181505970
 14      5.3764283780     1.5281021790     2.3181550060
 14      3.4818316340     1.5280991760     7.9273975930
 14      8.8177317800     1.5281021790     7.9273931840
 14      3.5874204410     7.7394441020     7.8641855740
 14      8.9233217830     7.7394442690     7.8641854590
 14     -0.0650563300     7.7394441020     2.3813622980
 14      5.2708390720     7.7394442690     2.3813624130
 14      2.6034541880     6.1940725480     2.3650325740
 14      7.9393459770     6.1940442650     2.3650407590
 14      0.9189099530     6.1940725480     7.8805153090
 14      6.2548155050     6.1940442650     7.8805071240
 13      0.8078562440     3.0737296540     7.9043132200
 13      6.1437598150     3.0737484980     7.9043153480
 13      2.7145080150     3.0737296540     2.3412349590
 13      8.0504009850     3.0737484980     2.3412328320
  8     -0.0160833590     1.5120570370     3.9528102460
  8      5.3198097360     1.5120691290     3.9527933890
  8      3.5384472170     1.5120570370     6.2927374830
  8      8.8743511330     1.5120691290     6.2927543400
  8      3.5580090120     7.7316375040     6.2427354560
  8      8.8939306630     7.7316390070     6.2427493590
  8     -0.0356446840     7.7316375040     4.0028122730
  8      5.3002308460     7.7316390070     4.0027983700
  8      2.6470044620     6.2516430490     3.9916256940
  8      7.9828935450     6.2516101560     3.9916303080
  8      0.8753598250     6.2516430490     6.2539214210
  8      6.2112674430     6.2516101560     6.2539168060
  8      0.8223765190     3.0420540800     6.1647655950
  8      6.1582791720     3.0420721740     6.1647548650
  8      2.6999877140     3.0420540800     4.0807818270
  8      8.0358824030     3.0420721740     4.0807925570
  8      1.5081807750     1.9272074360     1.7333090320
  8      6.8440650070     1.9272088600     1.7333018670
  8      2.0141833490     1.9272074360     8.5122390040
  8      7.3500958180     1.9272088600     8.5122461690
  8     -0.2787393840     9.2483554740     1.7628432900
  8      5.0571469790     9.2483525020     1.7628464430
  8      3.8011032150     9.2483554740     8.4827045930
  8      9.1370138730     9.2483525020     8.4827014390
  8      2.1618713070     7.1477566860     8.4673570820
  8      7.4977923360     7.1477546810     8.4673584560
  8      1.3604928440     7.1477566860     1.7781908010
  8      6.6963678760     7.1477546810     1.7781894270
  8      4.0265103220     6.8350120620     1.7654193820
  8      9.3624244640     6.8350151420     1.7654023330
  8     -0.5041458820     6.8350120620     8.4801281930
  8      4.8317364430     6.8350151420     8.4801452430
  8      2.4025797620     4.7167561350     1.7305765880
  8      7.7384661760     4.7167495760     1.7305837000
  8      1.1197845130     4.7167561350     8.5149714380
  8      6.4556946410     4.7167495760     8.5149643270
  8     -0.7377776250     2.5248268960     8.5698288150
  8      4.5981251140     2.5248169740     8.5698486620
  8      4.2601419560     2.5248268960     1.6757193750
  8      9.5960363240     2.5248169740     1.6756995280
  8     -0.0732814390     4.6710809800     4.0460862430
  8      5.2626570240     4.6710747540     4.0460919050
  8      3.5956456610     4.6710809800     6.1994611780
  8      8.9315038990     4.6710747540     6.1994555170
  8      2.6595740050     9.2705709380     4.0967701370
  8      7.9954718230     9.2705771100     4.0967685220
  8      0.8627902720     9.2705709380     6.1487769770
  8      6.1986885250     9.2705771100     6.1487785930
  1      0.0296832200     4.6080366220     3.0870954630
  1      5.3655916750     4.6080342090     3.0870905230
  1      3.4926810240     4.6080366220     7.1584516520
  1      8.8285693030     4.6080342090     7.1584565910
  1      2.6433068340     0.1261995890     3.1395691810
  1      7.9792053780     0.1262004000     3.1395693120
  1      0.8790574930     0.1261995890     7.1059785480
  1      6.2149554900     0.1262004000     7.1059784170
 RECIP-PRIMVEC
    0.0937049166   -0.0000000000    0.0165864596

    0.0000000000    0.1077974694   -0.0000000000

    0.0000000000    0.0000000000    0.0976033584

 RECIP-CONVVEC
    0.0937049166   -0.0000000000    0.0165864596

    0.0000000000    0.1077974694   -0.0000000000

    0.0000000000    0.0000000000    0.0976033584

 WIGNER-SEITZ-PRIMCELL
           6
 -0.5335899E+01 -0.4638328E+01  0.4338786E+01  -0.0000000E+00 -0.1000000E+01  0.1128770E-15
 -0.5335899E+01 -0.4638328E+01 -0.4338786E+01  -0.0000000E+00 -0.1000000E+01  0.1128770E-15
 -0.3522362E+01 -0.4638328E+01 -0.5906763E+01  -0.0000000E+00 -0.1000000E+01  0.1128770E-15
  0.5335899E+01 -0.4638328E+01 -0.4338786E+01  -0.0000000E+00 -0.1000000E+01  0.1128770E-15
  0.5335899E+01 -0.4638328E+01  0.4338786E+01  -0.0000000E+00 -0.1000000E+01  0.1128770E-15
  0.3522362E+01 -0.4638328E+01  0.5906763E+01  -0.0000000E+00 -0.1000000E+01  0.1128770E-15
           4
  0.3522362E+01  0.4638328E+01  0.5906763E+01   0.6540356E+00  0.1198096E-15  0.7564638E+00
  0.3522362E+01 -0.4638328E+01  0.5906763E+01   0.6540356E+00  0.1198096E-15  0.7564638E+00
  0.5335899E+01 -0.4638328E+01  0.4338786E+01   0.6540356E+00  0.1198096E-15  0.7564638E+00
  0.5335899E+01  0.4638328E+01  0.4338786E+01   0.6540356E+00  0.1198096E-15  0.7564638E+00
           4
 -0.5335899E+01  0.4638328E+01  0.4338786E+01  -0.1742979E+00  0.1702869E-15  0.9846930E+00
 -0.5335899E+01 -0.4638328E+01  0.4338786E+01  -0.1742979E+00  0.1702869E-15  0.9846930E+00
  0.3522362E+01 -0.4638328E+01  0.5906763E+01  -0.1742979E+00  0.1702869E-15  0.9846930E+00
  0.3522362E+01  0.4638328E+01  0.5906763E+01  -0.1742979E+00  0.1702869E-15  0.9846930E+00
           4
  0.5335899E+01 -0.4638328E+01  0.4338786E+01   0.1000000E+01 -0.9574339E-16  0.1023533E-15
  0.5335899E+01 -0.4638328E+01 -0.4338786E+01   0.1000000E+01 -0.9574339E-16  0.1023533E-15
  0.5335899E+01  0.4638328E+01 -0.4338786E+01   0.1000000E+01 -0.9574339E-16  0.1023533E-15
  0.5335899E+01  0.4638328E+01  0.4338786E+01   0.1000000E+01 -0.9574339E-16  0.1023533E-15
           4
 -0.5335899E+01  0.4638328E+01  0.4338786E+01  -0.1000000E+01 -0.9574339E-16  0.1023533E-15
 -0.5335899E+01  0.4638328E+01 -0.4338786E+01  -0.1000000E+01 -0.9574339E-16  0.1023533E-15
 -0.5335899E+01 -0.4638328E+01 -0.4338786E+01  -0.1000000E+01 -0.9574339E-16  0.1023533E-15
 -0.5335899E+01 -0.4638328E+01  0.4338786E+01  -0.1000000E+01 -0.9574339E-16  0.1023533E-15
           4
  0.5335899E+01  0.4638328E+01 -0.4338786E+01   0.1742979E+00 -0.8514343E-16 -0.9846930E+00
  0.5335899E+01 -0.4638328E+01 -0.4338786E+01   0.1742979E+00 -0.8514343E-16 -0.9846930E+00
 -0.3522362E+01 -0.4638328E+01 -0.5906763E+01   0.1742979E+00 -0.8514343E-16 -0.9846930E+00
 -0.3522362E+01  0.4638328E+01 -0.5906763E+01   0.1742979E+00 -0.8514343E-16 -0.9846930E+00
           4
 -0.5335899E+01  0.4638328E+01 -0.4338786E+01  -0.6540356E+00 -0.6634313E-16 -0.7564638E+00
 -0.3522362E+01  0.4638328E+01 -0.5906763E+01  -0.6540356E+00 -0.6634313E-16 -0.7564638E+00
 -0.3522362E+01 -0.4638328E+01 -0.5906763E+01  -0.6540356E+00 -0.6634313E-16 -0.7564638E+00
 -0.5335899E+01 -0.4638328E+01 -0.4338786E+01  -0.6540356E+00 -0.6634313E-16 -0.7564638E+00
           6
  0.3522362E+01  0.4638328E+01  0.5906763E+01   0.0000000E+00  0.1000000E+01  0.0000000E+00
  0.5335899E+01  0.4638328E+01  0.4338786E+01   0.0000000E+00  0.1000000E+01  0.0000000E+00
  0.5335899E+01  0.4638328E+01 -0.4338786E+01   0.0000000E+00  0.1000000E+01  0.0000000E+00
 -0.3522362E+01  0.4638328E+01 -0.5906763E+01   0.0000000E+00  0.1000000E+01  0.0000000E+00
 -0.5335899E+01  0.4638328E+01 -0.4338786E+01   0.0000000E+00  0.1000000E+01  0.0000000E+00
 -0.5335899E+01  0.4638328E+01  0.4338786E+01   0.0000000E+00  0.1000000E+01  0.0000000E+00
 WIGNER-SEITZ-PRIMCELL_END
 WIGNER-SEITZ-CONVCELL
           6
 -0.5335899E+01 -0.4638328E+01  0.4338786E+01  -0.0000000E+00 -0.1000000E+01  0.1128770E-15
 -0.5335899E+01 -0.4638328E+01 -0.4338786E+01  -0.0000000E+00 -0.1000000E+01  0.1128770E-15
 -0.3522362E+01 -0.4638328E+01 -0.5906763E+01  -0.0000000E+00 -0.1000000E+01  0.1128770E-15
  0.5335899E+01 -0.4638328E+01 -0.4338786E+01  -0.0000000E+00 -0.1000000E+01  0.1128770E-15
  0.5335899E+01 -0.4638328E+01  0.4338786E+01  -0.0000000E+00 -0.1000000E+01  0.1128770E-15
  0.3522362E+01 -0.4638328E+01  0.5906763E+01  -0.0000000E+00 -0.1000000E+01  0.1128770E-15
           4
  0.3522362E+01  0.4638328E+01  0.5906763E+01   0.6540356E+00  0.1198096E-15  0.7564638E+00
  0.3522362E+01 -0.4638328E+01  0.5906763E+01   0.6540356E+00  0.1198096E-15  0.7564638E+00
  0.5335899E+01 -0.4638328E+01  0.4338786E+01   0.6540356E+00  0.1198096E-15  0.7564638E+00
  0.5335899E+01  0.4638328E+01  0.4338786E+01   0.6540356E+00  0.1198096E-15  0.7564638E+00
           4
 -0.5335899E+01  0.4638328E+01  0.4338786E+01  -0.1742979E+00  0.1702869E-15  0.9846930E+00
 -0.5335899E+01 -0.4638328E+01  0.4338786E+01  -0.1742979E+00  0.1702869E-15  0.9846930E+00
  0.3522362E+01 -0.4638328E+01  0.5906763E+01  -0.1742979E+00  0.1702869E-15  0.9846930E+00
  0.3522362E+01  0.4638328E+01  0.5906763E+01  -0.1742979E+00  0.1702869E-15  0.9846930E+00
           4
  0.5335899E+01 -0.4638328E+01  0.4338786E+01   0.1000000E+01 -0.9574339E-16  0.1023533E-15
  0.5335899E+01 -0.4638328E+01 -0.4338786E+01   0.1000000E+01 -0.9574339E-16  0.1023533E-15
  0.5335899E+01  0.4638328E+01 -0.4338786E+01   0.1000000E+01 -0.9574339E-16  0.1023533E-15
  0.5335899E+01  0.4638328E+01  0.4338786E+01   0.1000000E+01 -0.9574339E-16  0.1023533E-15
           4
 -0.5335899E+01  0.4638328E+01  0.4338786E+01  -0.1000000E+01 -0.9574339E-16  0.1023533E-15
 -0.5335899E+01  0.4638328E+01 -0.4338786E+01  -0.1000000E+01 -0.9574339E-16  0.1023533E-15
 -0.5335899E+01 -0.4638328E+01 -0.4338786E+01  -0.1000000E+01 -0.9574339E-16  0.1023533E-15
 -0.5335899E+01 -0.4638328E+01  0.4338786E+01  -0.1000000E+01 -0.9574339E-16  0.1023533E-15
           4
  0.5335899E+01  0.4638328E+01 -0.4338786E+01   0.1742979E+00 -0.8514343E-16 -0.9846930E+00
  0.5335899E+01 -0.4638328E+01 -0.4338786E+01   0.1742979E+00 -0.8514343E-16 -0.9846930E+00
 -0.3522362E+01 -0.4638328E+01 -0.5906763E+01   0.1742979E+00 -0.8514343E-16 -0.9846930E+00
 -0.3522362E+01  0.4638328E+01 -0.5906763E+01   0.1742979E+00 -0.8514343E-16 -0.9846930E+00
           4
 -0.5335899E+01  0.4638328E+01 -0.4338786E+01  -0.6540356E+00 -0.6634313E-16 -0.7564638E+00
 -0.3522362E+01  0.4638328E+01 -0.5906763E+01  -0.6540356E+00 -0.6634313E-16 -0.7564638E+00
 -0.3522362E+01 -0.4638328E+01 -0.5906763E+01  -0.6540356E+00 -0.6634313E-16 -0.7564638E+00
 -0.5335899E+01 -0.4638328E+01 -0.4338786E+01  -0.6540356E+00 -0.6634313E-16 -0.7564638E+00
           6
  0.3522362E+01  0.4638328E+01  0.5906763E+01   0.0000000E+00  0.1000000E+01  0.0000000E+00
  0.5335899E+01  0.4638328E+01  0.4338786E+01   0.0000000E+00  0.1000000E+01  0.0000000E+00
  0.5335899E+01  0.4638328E+01 -0.4338786E+01   0.0000000E+00  0.1000000E+01  0.0000000E+00
 -0.3522362E+01  0.4638328E+01 -0.5906763E+01   0.0000000E+00  0.1000000E+01  0.0000000E+00
 -0.5335899E+01  0.4638328E+01 -0.4338786E+01   0.0000000E+00  0.1000000E+01  0.0000000E+00
 -0.5335899E+01  0.4638328E+01  0.4338786E+01   0.0000000E+00  0.1000000E+01  0.0000000E+00
 WIGNER-SEITZ-CONVCELL_END
 BRILLOUIN-ZONE-PRIMCELL
           4
 -0.5402275E-01 -0.5389873E-01  0.3221522E-01  -0.9846930E+00 -0.6112191E-16 -0.1742979E+00
 -0.5402275E-01  0.5389873E-01  0.3221522E-01  -0.9846930E+00 -0.6112191E-16 -0.1742979E+00
 -0.3968216E-01  0.5389873E-01 -0.4880168E-01  -0.9846930E+00 -0.6112191E-16 -0.1742979E+00
 -0.3968216E-01 -0.5389873E-01 -0.4880168E-01  -0.9846930E+00 -0.6112191E-16 -0.1742979E+00
           4
 -0.3968216E-01  0.5389873E-01  0.4880168E-01  -0.7564638E+00 -0.1947956E-15  0.6540356E+00
 -0.5402275E-01  0.5389873E-01  0.3221522E-01  -0.7564638E+00 -0.1947956E-15  0.6540356E+00
 -0.5402275E-01 -0.5389873E-01  0.3221522E-01  -0.7564638E+00 -0.1947956E-15  0.6540356E+00
 -0.3968216E-01 -0.5389873E-01  0.4880168E-01  -0.7564638E+00 -0.1947956E-15  0.6540356E+00
           6
  0.3968216E-01 -0.5389873E-01  0.4880168E-01   0.0000000E+00 -0.1000000E+01  0.1317805E-14
 -0.3968216E-01 -0.5389873E-01  0.4880168E-01   0.0000000E+00 -0.1000000E+01  0.1317805E-14
 -0.5402275E-01 -0.5389873E-01  0.3221522E-01   0.0000000E+00 -0.1000000E+01  0.1317805E-14
 -0.3968216E-01 -0.5389873E-01 -0.4880168E-01   0.0000000E+00 -0.1000000E+01  0.1317805E-14
  0.3968216E-01 -0.5389873E-01 -0.4880168E-01   0.0000000E+00 -0.1000000E+01  0.1317805E-14
  0.5402275E-01 -0.5389873E-01 -0.3221522E-01   0.0000000E+00 -0.1000000E+01  0.1317805E-14
           4
 -0.3968216E-01 -0.5389873E-01 -0.4880168E-01   0.3958139E-16  0.1013833E-15 -0.1000000E+01
 -0.3968216E-01  0.5389873E-01 -0.4880168E-01   0.3958139E-16  0.1013833E-15 -0.1000000E+01
  0.3968216E-01  0.5389873E-01 -0.4880168E-01   0.3958139E-16  0.1013833E-15 -0.1000000E+01
  0.3968216E-01 -0.5389873E-01 -0.4880168E-01   0.3958139E-16  0.1013833E-15 -0.1000000E+01
           4
  0.3968216E-01 -0.5389873E-01  0.4880168E-01   0.1631852E-15  0.1520749E-15  0.1000000E+01
  0.3968216E-01  0.5389873E-01  0.4880168E-01   0.1631852E-15  0.1520749E-15  0.1000000E+01
 -0.3968216E-01  0.5389873E-01  0.4880168E-01   0.1631852E-15  0.1520749E-15  0.1000000E+01
 -0.3968216E-01 -0.5389873E-01  0.4880168E-01   0.1631852E-15  0.1520749E-15  0.1000000E+01
           6
  0.5402275E-01  0.5389873E-01 -0.3221522E-01  -0.0000000E+00  0.1000000E+01  0.1317805E-14
  0.3968216E-01  0.5389873E-01 -0.4880168E-01  -0.0000000E+00  0.1000000E+01  0.1317805E-14
 -0.3968216E-01  0.5389873E-01 -0.4880168E-01  -0.0000000E+00  0.1000000E+01  0.1317805E-14
 -0.5402275E-01  0.5389873E-01  0.3221522E-01  -0.0000000E+00  0.1000000E+01  0.1317805E-14
 -0.3968216E-01  0.5389873E-01  0.4880168E-01  -0.0000000E+00  0.1000000E+01  0.1317805E-14
  0.3968216E-01  0.5389873E-01  0.4880168E-01  -0.0000000E+00  0.1000000E+01  0.1317805E-14
           4
  0.5402275E-01  0.5389873E-01 -0.3221522E-01   0.7564638E+00 -0.1376123E-15 -0.6540356E+00
  0.5402275E-01 -0.5389873E-01 -0.3221522E-01   0.7564638E+00 -0.1376123E-15 -0.6540356E+00
  0.3968216E-01 -0.5389873E-01 -0.4880168E-01   0.7564638E+00 -0.1376123E-15 -0.6540356E+00
  0.3968216E-01  0.5389873E-01 -0.4880168E-01   0.7564638E+00 -0.1376123E-15 -0.6540356E+00
           4
  0.3968216E-01 -0.5389873E-01  0.4880168E-01   0.9846930E+00 -0.7945849E-16  0.1742979E+00
  0.5402275E-01 -0.5389873E-01 -0.3221522E-01   0.9846930E+00 -0.7945849E-16  0.1742979E+00
  0.5402275E-01  0.5389873E-01 -0.3221522E-01   0.9846930E+00 -0.7945849E-16  0.1742979E+00
  0.3968216E-01  0.5389873E-01  0.4880168E-01   0.9846930E+00 -0.7945849E-16  0.1742979E+00
 BRILLOUIN-ZONE-PRIMCELL_END
 BRILLOUIN-ZONE-CONVCELL
           4
 -0.5402275E-01 -0.5389873E-01  0.3221522E-01  -0.9846930E+00 -0.6112191E-16 -0.1742979E+00
 -0.5402275E-01  0.5389873E-01  0.3221522E-01  -0.9846930E+00 -0.6112191E-16 -0.1742979E+00
 -0.3968216E-01  0.5389873E-01 -0.4880168E-01  -0.9846930E+00 -0.6112191E-16 -0.1742979E+00
 -0.3968216E-01 -0.5389873E-01 -0.4880168E-01  -0.9846930E+00 -0.6112191E-16 -0.1742979E+00
           4
 -0.3968216E-01  0.5389873E-01  0.4880168E-01  -0.7564638E+00 -0.1947956E-15  0.6540356E+00
 -0.5402275E-01  0.5389873E-01  0.3221522E-01  -0.7564638E+00 -0.1947956E-15  0.6540356E+00
 -0.5402275E-01 -0.5389873E-01  0.3221522E-01  -0.7564638E+00 -0.1947956E-15  0.6540356E+00
 -0.3968216E-01 -0.5389873E-01  0.4880168E-01  -0.7564638E+00 -0.1947956E-15  0.6540356E+00
           6
  0.3968216E-01 -0.5389873E-01  0.4880168E-01   0.0000000E+00 -0.1000000E+01  0.1317805E-14
 -0.3968216E-01 -0.5389873E-01  0.4880168E-01   0.0000000E+00 -0.1000000E+01  0.1317805E-14
 -0.5402275E-01 -0.5389873E-01  0.3221522E-01   0.0000000E+00 -0.1000000E+01  0.1317805E-14
 -0.3968216E-01 -0.5389873E-01 -0.4880168E-01   0.0000000E+00 -0.1000000E+01  0.1317805E-14
  0.3968216E-01 -0.5389873E-01 -0.4880168E-01   0.0000000E+00 -0.1000000E+01  0.1317805E-14
  0.5402275E-01 -0.5389873E-01 -0.3221522E-01   0.0000000E+00 -0.1000000E+01  0.1317805E-14
           4
 -0.3968216E-01 -0.5389873E-01 -0.4880168E-01   0.3958139E-16  0.1013833E-15 -0.1000000E+01
 -0.3968216E-01  0.5389873E-01 -0.4880168E-01   0.3958139E-16  0.1013833E-15 -0.1000000E+01
  0.3968216E-01  0.5389873E-01 -0.4880168E-01   0.3958139E-16  0.1013833E-15 -0.1000000E+01
  0.3968216E-01 -0.5389873E-01 -0.4880168E-01   0.3958139E-16  0.1013833E-15 -0.1000000E+01
           4
  0.3968216E-01 -0.5389873E-01  0.4880168E-01   0.1631852E-15  0.1520749E-15  0.1000000E+01
  0.3968216E-01  0.5389873E-01  0.4880168E-01   0.1631852E-15  0.1520749E-15  0.1000000E+01
 -0.3968216E-01  0.5389873E-01  0.4880168E-01   0.1631852E-15  0.1520749E-15  0.1000000E+01
 -0.3968216E-01 -0.5389873E-01  0.4880168E-01   0.1631852E-15  0.1520749E-15  0.1000000E+01
           6
  0.5402275E-01  0.5389873E-01 -0.3221522E-01  -0.0000000E+00  0.1000000E+01  0.1317805E-14
  0.3968216E-01  0.5389873E-01 -0.4880168E-01  -0.0000000E+00  0.1000000E+01  0.1317805E-14
 -0.3968216E-01  0.5389873E-01 -0.4880168E-01  -0.0000000E+00  0.1000000E+01  0.1317805E-14
 -0.5402275E-01  0.5389873E-01  0.3221522E-01  -0.0000000E+00  0.1000000E+01  0.1317805E-14
 -0.3968216E-01  0.5389873E-01  0.4880168E-01  -0.0000000E+00  0.1000000E+01  0.1317805E-14
  0.3968216E-01  0.5389873E-01  0.4880168E-01  -0.0000000E+00  0.1000000E+01  0.1317805E-14
           4
  0.5402275E-01  0.5389873E-01 -0.3221522E-01   0.7564638E+00 -0.1376123E-15 -0.6540356E+00
  0.5402275E-01 -0.5389873E-01 -0.3221522E-01   0.7564638E+00 -0.1376123E-15 -0.6540356E+00
  0.3968216E-01 -0.5389873E-01 -0.4880168E-01   0.7564638E+00 -0.1376123E-15 -0.6540356E+00
  0.3968216E-01  0.5389873E-01 -0.4880168E-01   0.7564638E+00 -0.1376123E-15 -0.6540356E+00
           4
  0.3968216E-01 -0.5389873E-01  0.4880168E-01   0.9846930E+00 -0.7945849E-16  0.1742979E+00
  0.5402275E-01 -0.5389873E-01 -0.3221522E-01   0.9846930E+00 -0.7945849E-16  0.1742979E+00
  0.5402275E-01  0.5389873E-01 -0.3221522E-01   0.9846930E+00 -0.7945849E-16  0.1742979E+00
  0.3968216E-01  0.5389873E-01  0.4880168E-01   0.9846930E+00 -0.7945849E-16  0.1742979E+00
 BRILLOUIN-ZONE-CONVCELL_END
 ATOMS
   19    5.3359092090    4.5333646250    0.0000088380    0.0000114400   -0.0007200700   -0.0000042100
   19    2.6679490150    0.0865117170    0.0000000000    0.0000000000    0.0005937500    0.0000000000
   19    8.0038475260    0.0865134650    0.0000000000    0.0000000000    0.0005927600    0.0000000000
   12   -0.9067434360    0.0369345610    5.1227711630   -0.0000426100   -0.0002681800    0.0000011600
   12    4.4291069220    0.0369345610    5.1227768630    0.0000426100   -0.0002681800   -0.0000011600
   12   -0.9067550040    3.0825714710    5.1227661100   -0.0000411400   -0.0001498100    0.0000060100
   12    4.4291184900    3.0825714710    5.1227819170    0.0000411400   -0.0001498100   -0.0000060100
   12   -0.9067251850    6.1774306180    5.1227515650   -0.0000545100    0.0002860400    0.0000080700
   12    4.4290886700    6.1774306180    5.1227964610    0.0000545100    0.0002860400   -0.0000080700