
     Program PWSCF v.7.3.1 starts on  9Jan2025 at 11: 7:54 

     This program is part of the open-source Quantum ESPRESSO suite
     for quantum simulation of materials; please cite
         "P. Giannozzi et al., J. Phys.:Condens. Matter 21 395502 (2009);
         "P. Giannozzi et al., J. Phys.:Condens. Matter 29 465901 (2017);
         "P. Giannozzi et al., J. Chem. Phys. 152 154105 (2020);
          URL http://www.quantum-espresso.org", 
     in publications or presentations arising from this work. More details at
     http://www.quantum-espresso.org/quote

     Parallel version (MPI), running on     6 processors

     MPI processes distributed on     1 nodes
     12448 MiB available memory on the printing compute node when the environment starts

     Reading input from vc_relax.in

     Current dimensions of program PWSCF are:
     Max number of different atomic species (ntypx) = 10
     Max number of k-points (npk) =  40000
     Max angular momentum in pseudopotentials (lmaxx) =  4
     file Al.pbe-n-kjpaw_psl.1.0.0.UPF: wavefunction(s)  3S 3P renormalized
     file Fe.pbe-spn-kjpaw_psl.1.0.0.UPF: wavefunction(s)  3P 3D renormalized
     file Fe.pbe-spn-kjpaw_psl.1.0.0.UPF: wavefunction(s)  3P 3D renormalized
     file H.pbe-kjpaw_psl.1.0.0.UPF: wavefunction(s)  1S renormalized
     file K.pbe-spn-kjpaw_psl.1.0.0.UPF: wavefunction(s)  3S renormalized
     file Mg.pbe-spnl-kjpaw_psl.1.0.0.UPF: wavefunction(s)  2P renormalized
     file O.pbe-n-kjpaw_psl.1.0.0.UPF: wavefunction(s)  2S 2P renormalized
     file Si.pbe-n-kjpaw_psl.1.0.0.UPF: wavefunction(s)  3S 3P renormalized

     R & G space division:  proc/nbgrp/npool/nimage =       6
     Subspace diagonalization in iterative solution of the eigenvalue problem:
     one sub-group per band group will be used
     custom distributed-memory algorithm (size of sub-group:  2*  2 procs)


     Parallelization info
     --------------------
     sticks:   dense  smooth     PW     G-vecs:    dense   smooth      PW
     Min        2251    1125    297               202600    71638    9673
     Max        2252    1126    298               202603    71640    9674
     Sum       13511    6753   1783              1215615   429835   58039

     Using Slab Decomposition



     bravais-lattice index     =          -12
     lattice parameter (alat)  =      20.1681  a.u.
     unit-cell volume          =    6846.2028 (a.u.)^3
     number of atoms/cell      =           88
     number of atomic types    =            8
     number of electrons       =       524.00
     number of Kohn-Sham states=          314
     kinetic-energy cutoff     =      60.0000  Ry
     charge density cutoff     =     480.0000  Ry
     scf convergence threshold =      1.0E-06
     mixing beta               =       0.7000
     number of iterations used =            8  plain     mixing
     energy convergence thresh.=      1.0E-04
     force convergence thresh. =      1.0E-03
     press convergence thresh. =      5.0E-01
     Exchange-correlation= SLA  PW   PBX  PBC
                           (   1   4   3   4   0   0   0)
     nstep                     =           50


     celldm(1)=  20.168128  celldm(2)=   0.869309  celldm(3)=   0.974943
     celldm(4)=   0.000000  celldm(5)=  -0.174314  celldm(6)=   0.000000

     crystal axes: (cart. coord. in units of alat)
               a(1) = (   1.000000   0.000000   0.000000 )  
               a(2) = (   0.000000   0.869309   0.000000 )  
               a(3) = (  -0.169946   0.000000   0.960017 )  

     reciprocal axes: (cart. coord. in units 2 pi/alat)
               b(1) = (  1.000000 -0.000000  0.177024 )  
               b(2) = (  0.000000  1.150339 -0.000000 )  
               b(3) = (  0.000000  0.000000  1.041649 )  


     PseudoPot. # 1 for Al read from file:
     ./../../../pseudos/Al.pbe-n-kjpaw_psl.1.0.0.UPF
     MD5 check sum: 502b6b27b9c6270cab5dd1084b96fa6d
     Pseudo is Projector augmented-wave + core cor, Zval =  3.0
     Generated using &quot;atomic&quot; code by A. Dal Corso  v.6.3
     Shape of augmentation charge: PSQ
     Using radial grid of 1135 points,  6 beta functions with: 
                l(1) =   0
                l(2) =   0
                l(3) =   1
                l(4) =   1
                l(5) =   2
                l(6) =   2
     Q(r) pseudized with 0 coefficients 


     PseudoPot. # 2 for Fe read from file:
     ./../../../pseudos/Fe.pbe-spn-kjpaw_psl.1.0.0.UPF
     MD5 check sum: fc81f059e5c5069939230b1155715ae8
     Pseudo is Projector augmented-wave + core cor, Zval = 16.0
     Generated using &quot;atomic&quot; code by A. Dal Corso  v.6.3
     Shape of augmentation charge: PSQ
     Using radial grid of 1191 points,  6 beta functions with: 
                l(1) =   0
                l(2) =   0
                l(3) =   1
                l(4) =   1
                l(5) =   2
                l(6) =   2
     Q(r) pseudized with 0 coefficients 


     PseudoPot. # 3 for Fe read from file:
     ./../../../pseudos/Fe.pbe-spn-kjpaw_psl.1.0.0.UPF
     MD5 check sum: fc81f059e5c5069939230b1155715ae8
     Pseudo is Projector augmented-wave + core cor, Zval = 16.0
     Generated using &quot;atomic&quot; code by A. Dal Corso  v.6.3
     Shape of augmentation charge: PSQ
     Using radial grid of 1191 points,  6 beta functions with: 
                l(1) =   0
                l(2) =   0
                l(3) =   1
                l(4) =   1
                l(5) =   2
                l(6) =   2
     Q(r) pseudized with 0 coefficients 


     PseudoPot. # 4 for H  read from file:
     ./../../../pseudos/H.pbe-kjpaw_psl.1.0.0.UPF
     MD5 check sum: d81a744832360e4a8af0b0b5b123bc2a
     Pseudo is Projector augmented-wave, Zval =  1.0
     Generated using &quot;atomic&quot; code by A. Dal Corso  v.6.3MaX
     Shape of augmentation charge: PSQ
     Using radial grid of  929 points,  2 beta functions with: 
                l(1) =   0
                l(2) =   0
     Q(r) pseudized with 0 coefficients 


     PseudoPot. # 5 for K  read from file:
     ./../../../pseudos/K.pbe-spn-kjpaw_psl.1.0.0.UPF
     MD5 check sum: 34cc42130a09071ebe376fd42eb21491
     Pseudo is Projector augmented-wave + core cor, Zval =  9.0
     Generated using &quot;atomic&quot; code by A. Dal Corso  v.6.2.2
     Shape of augmentation charge: PSQ
     Using radial grid of 1165 points,  6 beta functions with: 
                l(1) =   0
                l(2) =   0
                l(3) =   1
                l(4) =   1
                l(5) =   2
                l(6) =   2
     Q(r) pseudized with 0 coefficients 


     PseudoPot. # 6 for Mg read from file:
     ./../../../pseudos/Mg.pbe-spnl-kjpaw_psl.1.0.0.UPF
     MD5 check sum: fda14e0d92a6a9a5ebed782e5a4b3067
     Pseudo is Projector augmented-wave + core cor, Zval = 10.0
     Generated using &quot;atomic&quot; code by A. Dal Corso  v.6.3
     Shape of augmentation charge: PSQ
     Using radial grid of 1129 points,  4 beta functions with: 
                l(1) =   0
                l(2) =   0
                l(3) =   1
                l(4) =   1
     Q(r) pseudized with 0 coefficients 


     PseudoPot. # 7 for O  read from file:
     ./../../../pseudos/O.pbe-n-kjpaw_psl.1.0.0.UPF
     MD5 check sum: e99d9cef9b487d1ca56f5b95ecd0fd7a
     Pseudo is Projector augmented-wave + core cor, Zval =  6.0
     Generated using &quot;atomic&quot; code by A. Dal Corso  v.6.3
     Shape of augmentation charge: PSQ
     Using radial grid of 1095 points,  4 beta functions with: 
                l(1) =   0
                l(2) =   0
                l(3) =   1
                l(4) =   1
     Q(r) pseudized with 0 coefficients 


     PseudoPot. # 8 for Si read from file:
     ./../../../pseudos/Si.pbe-n-kjpaw_psl.1.0.0.UPF
     MD5 check sum: c39c59da582df4a0d9f10159256ea34e
     Pseudo is Projector augmented-wave + core cor, Zval =  4.0
     Generated using &quot;atomic&quot; code by A. Dal Corso  v.6.3
     Shape of augmentation charge: PSQ
     Using radial grid of 1141 points,  6 beta functions with: 
                l(1) =   0
                l(2) =   0
                l(3) =   1
                l(4) =   1
                l(5) =   2
                l(6) =   2
     Q(r) pseudized with 0 coefficients 


     atomic species   valence    mass     pseudopotential
     Al                3.00    26.98154     Al( 1.00)
     Fe1              16.00    55.84500     Fe( 1.00)
     Fe2              16.00    55.84500     Fe( 1.00)
     H                 1.00     1.00794     H ( 1.00)
     K                 9.00    39.09830     K ( 1.00)
     Mg               10.00    24.30500     Mg( 1.00)
     O                 6.00    15.99940     O ( 1.00)
     Si                4.00    28.08550     Si( 1.00)

     Starting magnetic structure 
     atomic species   magnetization
     Al              0.000
     Fe1             0.300
     Fe2            -0.300
     H               0.000
     K               0.000
     Mg              0.000
     O               0.000
     Si              0.000

      2 Sym. Ops. (no inversion) found ( 1 have fractional translation)


                                    s                        frac. trans.

      isym =  1     identity                                     

 cryst.   s( 1) = (     1          0          0      )
                  (     0          1          0      )
                  (     0          0          1      )

 cart.    s( 1) = (  1.0000000  0.0000000  0.0000000 )
                  (  0.0000000  1.0000000  0.0000000 )
                  (  0.0000000  0.0000000  1.0000000 )


      isym =  2     180 deg rotation - cart. axis [0,1,0]        

 cryst.   s( 2) = (    -1          0          0      )    f =(  0.5000000 )
                  (     0          1          0      )       (  0.0000000 )
                  (     0          0         -1      )       (  0.0000000 )

 cart.    s( 2) = ( -1.0000000  0.0000000  0.0000000 )    f =(  0.5000000 )
                  (  0.0000000  1.0000000  0.0000000 )       (  0.0000000 )
                  (  0.0000000  0.0000000 -1.0000000 )       (  0.0000000 )


     point group C_2  (2)   
     there are  2 classes
     the character table:

       E     C2   
A      1.00  1.00
B      1.00 -1.00

     the symmetry operations in each class and the name of the first element:

     E        1
          identity                                               
     C2       2
          180 deg rotation - cart. axis [0,1,0]                  

   Cartesian axes

     site n.     atom                  positions (alat units)
         1        K      tau(   1) = (   0.0000000   0.4248539   0.0000000  )
         2        K      tau(   2) = (   0.5000000   0.4248539   0.0000000  )
         3        K      tau(   3) = (   0.2500000   0.0080773   0.0000000  )
         4        K      tau(   4) = (   0.7500000   0.0080773   0.0000000  )
         5        Mg     tau(   5) = (  -0.0849732   0.0034756   0.4800083  )
         6        Mg     tau(   6) = (   0.4150268   0.0034756   0.4800083  )
         7        Mg     tau(   7) = (  -0.0849732   0.2888718   0.4800083  )
         8        Mg     tau(   8) = (   0.4150268   0.2888718   0.4800083  )
         9        Mg     tau(   9) = (  -0.0849732   0.5788665   0.4800083  )
        10        Mg     tau(  10) = (   0.4150268   0.5788665   0.4800083  )
        11        Mg     tau(  11) = (   0.1650268   0.7258935   0.4800083  )
        12        Mg     tau(  12) = (   0.6650268   0.7258935   0.4800083  )
        13        Mg     tau(  13) = (   0.1650268   0.1472844   0.4800083  )
        14        Mg     tau(  14) = (   0.6650268   0.1472844   0.4800083  )
        15        Fe1    tau(  15) = (   0.1650268   0.4268724   0.4800083  )
        16        Fe2    tau(  16) = (   0.6650268   0.4268724   0.4800083  )
        17        Si     tau(  17) = (   0.0038011   0.1431967   0.2172113  )
        18        Si     tau(  18) = (   0.5038011   0.1431967   0.2172113  )
        19        Si     tau(  19) = (   0.3262526   0.1431967   0.7428053  )
        20        Si     tau(  20) = (   0.8262526   0.1431967   0.7428053  )
        21        Si     tau(  21) = (   0.3361473   0.7252565   0.7368591  )
        22        Si     tau(  22) = (   0.8361473   0.7252565   0.7368591  )
        23        Si     tau(  23) = (  -0.0060936   0.7252565   0.2231575  )
        24        Si     tau(  24) = (   0.4939064   0.7252565   0.2231575  )
        25        Si     tau(  25) = (   0.2439631   0.5804373   0.2216193  )
        26        Si     tau(  26) = (   0.7439631   0.5804373   0.2216193  )
        27        Si     tau(  27) = (   0.0860906   0.5804373   0.7383973  )
        28        Si     tau(  28) = (   0.5860906   0.5804373   0.7383973  )
        29        Al     tau(  29) = (   0.0756802   0.2880376   0.7406365  )
        30        Al     tau(  30) = (   0.5756802   0.2880376   0.7406365  )
        31        Al     tau(  31) = (   0.2543735   0.2880376   0.2193801  )
        32        Al     tau(  32) = (   0.7543734   0.2880376   0.2193801  )
        33        O      tau(  33) = (  -0.0015201   0.1416931   0.3703836  )
        34        O      tau(  34) = (   0.4984799   0.1416931   0.3703836  )
        35        O      tau(  35) = (   0.3315738   0.1416931   0.5896330  )
        36        O      tau(  36) = (   0.8315738   0.1416931   0.5896330  )
        37        O      tau(  37) = (   0.3333814   0.7245409   0.5849295  )
        38        O      tau(  38) = (   0.8333815   0.7245409   0.5849295  )
        39        O      tau(  39) = (  -0.0033277   0.7245409   0.3750870  )
        40        O      tau(  40) = (   0.4966723   0.7245409   0.3750870  )
        41        O      tau(  41) = (   0.2480354   0.5858215   0.3740278  )
        42        O      tau(  42) = (   0.7480354   0.5858215   0.3740278  )
        43        O      tau(  43) = (   0.0820183   0.5858215   0.5859888  )
        44        O      tau(  44) = (   0.5820183   0.5858215   0.5859888  )
        45        O      tau(  45) = (   0.0770680   0.2850806   0.5776372  )
        46        O      tau(  46) = (   0.5770680   0.2850806   0.5776372  )
        47        O      tau(  47) = (   0.2529857   0.2850806   0.3823794  )
        48        O      tau(  48) = (   0.7529857   0.2850806   0.3823794  )
        49        O      tau(  49) = (   0.1413149   0.1806113   0.1624166  )
        50        O      tau(  50) = (   0.6413149   0.1806113   0.1624166  )
        51        O      tau(  51) = (   0.1887388   0.1806113   0.7976000  )
        52        O      tau(  52) = (   0.6887388   0.1806113   0.7976000  )
        53        O      tau(  53) = (  -0.0261225   0.8666507   0.1651753  )
        54        O      tau(  54) = (   0.4738775   0.8666507   0.1651753  )
        55        O      tau(  55) = (   0.3561762   0.8666507   0.7948413  )
        56        O      tau(  56) = (   0.8561762   0.8666507   0.7948413  )
        57        O      tau(  57) = (   0.2025835   0.6697868   0.7934032  )
        58        O      tau(  58) = (   0.7025835   0.6697868   0.7934032  )
        59        O      tau(  59) = (   0.1274702   0.6697868   0.1666133  )
        60        O      tau(  60) = (   0.6274702   0.6697868   0.1666133  )
        61        O      tau(  61) = (   0.3773027   0.6405182   0.1654098  )
        62        O      tau(  62) = (   0.8773027   0.6405182   0.1654098  )
        63        O      tau(  63) = (  -0.0472490   0.6405182   0.7946067  )
        64        O      tau(  64) = (   0.4527510   0.6405182   0.7946067  )
        65        O      tau(  65) = (   0.2251545   0.4420013   0.1621798  )
        66        O      tau(  66) = (   0.7251545   0.4420013   0.1621798  )
        67        O      tau(  67) = (   0.1048992   0.4420013   0.7978368  )
        68        O      tau(  68) = (   0.6048992   0.4420013   0.7978368  )
        69        O      tau(  69) = (  -0.0691525   0.2366064   0.8030084  )
        70        O      tau(  70) = (   0.4308475   0.2366064   0.8030084  )
        71        O      tau(  71) = (   0.3992062   0.2366064   0.1570082  )
        72        O      tau(  72) = (   0.8992062   0.2366064   0.1570082  )
        73        O      tau(  73) = (  -0.0068567   0.4377270   0.3791189  )
        74        O      tau(  74) = (   0.4931433   0.4377270   0.3791189  )
        75        O      tau(  75) = (   0.3369104   0.4377270   0.5808976  )
        76        O      tau(  76) = (   0.8369104   0.4377270   0.5808976  )
        77        O      tau(  77) = (   0.2492402   0.8687323   0.3838649  )
        78        O      tau(  78) = (   0.7492402   0.8687323   0.3838649  )
        79        O      tau(  79) = (   0.0808135   0.8687323   0.5761516  )
        80        O      tau(  80) = (   0.5808135   0.8687323   0.5761516  )
        81        H      tau(  81) = (   0.0027828   0.4318082   0.2892552  )
        82        H      tau(  82) = (   0.5027828   0.4318082   0.2892552  )
        83        H      tau(  83) = (   0.3272709   0.4318082   0.6707614  )
        84        H      tau(  84) = (   0.8272709   0.4318082   0.6707614  )
        85        H      tau(  85) = (   0.2476903   0.0118394   0.2941606  )
        86        H      tau(  86) = (   0.7476903   0.0118394   0.2941606  )
        87        H      tau(  87) = (   0.0823635   0.0118394   0.6658560  )
        88        H      tau(  88) = (   0.5823634   0.0118394   0.6658560  )

     --------------------------------------------
     DFT-D3 Dispersion Correction (3-body terms):
     --------------------------------------------
       Reference C6 values for interpolation: 

         atom   Coordination number   C6
         H          0.912             6.05
         H          0.000            15.18
         O          0.000            31.01
         O          0.993            25.63
         O          1.989            20.74
         Mg         0.000          1366.75
         Mg         0.963           902.54
         Mg         1.950           351.12
         Al         0.000          1081.08
         Al         0.965           875.51
         Al         1.931           513.50
         Al         2.915           307.19
         Si         0.000           635.71
         Si         0.951           540.53
         Si         1.944           466.25
         Si         2.941           443.01
         Si         3.868           299.55
         K          0.000          9967.00
         K          0.977           676.04
         Fe1        0.000           982.67
         Fe1        1.648           409.99
         Fe1        9.138           219.01
         Fe2        0.000           982.67
         Fe2        1.648           409.99
         Fe2        9.138           219.01

       Values used:

         atom   Coordination number  R0_AB[au]  C6      C8
         K         11.800            4.007    676.04 129074.98
         K         11.800            4.007    676.04 129074.98
         K         12.137            4.007    676.04 129074.98
         K         12.137            4.007    676.04 129074.98
         Mg        11.651            3.292    351.12  31436.69
         Mg        11.651            3.292    351.12  31436.69
         Mg        11.356            3.292    351.12  31436.69
         Mg        11.356            3.292    351.12  31436.69
         Mg        10.852            3.292    351.12  31436.69
         Mg        10.852            3.292    351.12  31436.69
         Mg        11.187            3.292    351.12  31436.69
         Mg        11.187            3.292    351.12  31436.69
         Mg        11.746            3.292    351.12  31436.69
         Mg        11.746            3.292    351.12  31436.69
         Fe1        7.155            3.252    219.01  20487.87
         Fe2        7.155            3.252    219.01  20487.87
         Si         6.692            3.583    299.55  21425.58
         Si         6.692            3.583    299.55  21425.58
         Si         6.692            3.583    299.55  21425.58
         Si         6.692            3.583    299.55  21425.58
         Si         6.206            3.583    299.55  21425.58
         Si         6.206            3.583    299.55  21425.58
         Si         6.206            3.583    299.55  21425.58
         Si         6.206            3.583    299.55  21425.58
         Si         6.078            3.583    299.55  21425.58
         Si         6.078            3.583    299.55  21425.58
         Si         6.078            3.583    299.55  21425.58
         Si         6.078            3.583    299.55  21425.58
         Al         7.319            3.789    307.19  29441.29
         Al         7.319            3.789    307.19  29441.29
         Al         7.319            3.789    307.19  29441.29
         Al         7.319            3.789    307.19  29441.29
         O          3.900            2.345     20.74    418.58
         O          3.900            2.345     20.74    418.58
         O          3.900            2.345     20.74    418.58
         O          3.900            2.345     20.74    418.58
         O          3.904            2.345     20.74    418.58
         O          3.904            2.345     20.74    418.58
         O          3.904            2.345     20.74    418.58
         O          3.904            2.345     20.74    418.58
         O          3.481            2.345     20.74    418.58
         O          3.481            2.345     20.74    418.58
         O          3.481            2.345     20.74    418.58
         O          3.481            2.345     20.74    418.58
         O          3.789            2.345     20.74    418.58
         O          3.789            2.345     20.74    418.58
         O          3.789            2.345     20.74    418.58
         O          3.789            2.345     20.74    418.58
         O          3.162            2.345     20.74    418.58
         O          3.162            2.345     20.74    418.58
         O          3.162            2.345     20.74    418.58
         O          3.162            2.345     20.74    418.58
         O          3.044            2.345     20.74    418.58
         O          3.044            2.345     20.74    418.58
         O          3.044            2.345     20.74    418.58
         O          3.044            2.345     20.74    418.58
         O          2.851            2.345     20.74    418.58
         O          2.851            2.345     20.74    418.58
         O          2.851            2.345     20.74    418.58
         O          2.851            2.345     20.74    418.58
         O          2.843            2.345     20.74    418.58
         O          2.843            2.345     20.74    418.58
         O          2.843            2.345     20.74    418.58
         O          2.843            2.345     20.74    418.58
         O          3.054            2.345     20.74    418.58
         O          3.054            2.345     20.74    418.58
         O          3.054            2.345     20.74    418.58
         O          3.054            2.345     20.74    418.58
         O          3.226            2.345     20.74    418.58
         O          3.226            2.345     20.74    418.58
         O          3.226            2.345     20.74    418.58
         O          3.226            2.345     20.74    418.58
         O          3.690            2.345     20.74    418.58
         O          3.690            2.345     20.74    418.58
         O          3.690            2.345     20.74    418.58
         O          3.690            2.345     20.74    418.58
         O          3.987            2.345     20.74    418.58
         O          3.987            2.345     20.74    418.58
         O          3.987            2.345     20.74    418.58
         O          3.987            2.345     20.74    418.58
         H          1.225            2.062      6.08     73.48
         H          1.225            2.062      6.08     73.48
         H          1.225            2.062      6.08     73.48
         H          1.225            2.062      6.08     73.48
         H          1.236            2.062      6.08     73.45
         H          1.236            2.062      6.08     73.45
         H          1.236            2.062      6.08     73.45
         H          1.236            2.062      6.08     73.45

         Molecular C6 ( Ry / a.u.^6 ) =    661237.17


   Crystallographic axes

     site n.     atom                  positions (cryst. coord.)
         1        K      tau(   1) = (  0.0000000  0.4887260  0.0000000  )
         2        K      tau(   2) = (  0.5000000  0.4887260  0.0000000  )
         3        K      tau(   3) = (  0.2500000  0.0092916  0.0000000  )
         4        K      tau(   4) = (  0.7500000  0.0092916  0.0000000  )
         5        Mg     tau(   5) = (  0.0000000  0.0039981  0.5000000  )
         6        Mg     tau(   6) = (  0.5000000  0.0039981  0.5000000  )
         7        Mg     tau(   7) = (  0.0000000  0.3323005  0.5000000  )
         8        Mg     tau(   8) = (  0.5000000  0.3323005  0.5000000  )
         9        Mg     tau(   9) = (  0.0000000  0.6658927  0.5000000  )
        10        Mg     tau(  10) = (  0.5000000  0.6658927  0.5000000  )
        11        Mg     tau(  11) = (  0.2500000  0.8350236  0.5000000  )
        12        Mg     tau(  12) = (  0.7500000  0.8350236  0.5000000  )
        13        Mg     tau(  13) = (  0.2500000  0.1694269  0.5000000  )
        14        Mg     tau(  14) = (  0.7500000  0.1694269  0.5000000  )
        15        Fe1    tau(  15) = (  0.2500000  0.4910479  0.5000000  )
        16        Fe2    tau(  16) = (  0.7500000  0.4910479  0.5000000  )
        17        Si     tau(  17) = (  0.0422528  0.1647247  0.2262579  )
        18        Si     tau(  18) = (  0.5422528  0.1647247  0.2262579  )
        19        Si     tau(  19) = (  0.4577473  0.1647247  0.7737421  )
        20        Si     tau(  20) = (  0.9577472  0.1647247  0.7737421  )
        21        Si     tau(  21) = (  0.4665893  0.8342908  0.7675483  )
        22        Si     tau(  22) = (  0.9665893  0.8342908  0.7675483  )
        23        Si     tau(  23) = (  0.0334107  0.8342908  0.2324517  )
        24        Si     tau(  24) = (  0.5334107  0.8342908  0.2324517  )
        25        Si     tau(  25) = (  0.2831951  0.6676996  0.2308494  )
        26        Si     tau(  26) = (  0.7831951  0.6676996  0.2308494  )
        27        Si     tau(  27) = (  0.2168050  0.6676996  0.7691505  )
        28        Si     tau(  28) = (  0.7168050  0.6676996  0.7691505  )
        29        Al     tau(  29) = (  0.2067910  0.3313409  0.7714830  )
        30        Al     tau(  30) = (  0.7067910  0.3313409  0.7714830  )
        31        Al     tau(  31) = (  0.2932091  0.3313409  0.2285170  )
        32        Al     tau(  32) = (  0.7932091  0.3313409  0.2285170  )
        33        O      tau(  33) = (  0.0640468  0.1629951  0.3858095  )
        34        O      tau(  34) = (  0.5640468  0.1629951  0.3858095  )
        35        O      tau(  35) = (  0.4359532  0.1629951  0.6141904  )
        36        O      tau(  36) = (  0.9359533  0.1629951  0.6141904  )
        37        O      tau(  37) = (  0.4369282  0.8334676  0.6092910  )
        38        O      tau(  38) = (  0.9369283  0.8334676  0.6092910  )
        39        O      tau(  39) = (  0.0630718  0.8334676  0.3907089  )
        40        O      tau(  40) = (  0.5630718  0.8334676  0.3907089  )
        41        O      tau(  41) = (  0.3142475  0.6738933  0.3896055  )
        42        O      tau(  42) = (  0.8142475  0.6738933  0.3896055  )
        43        O      tau(  43) = (  0.1857526  0.6738933  0.6103944  )
        44        O      tau(  44) = (  0.6857526  0.6738933  0.6103944  )
        45        O      tau(  45) = (  0.1793239  0.3279393  0.6016949  )
        46        O      tau(  46) = (  0.6793239  0.3279393  0.6016949  )
        47        O      tau(  47) = (  0.3206762  0.3279393  0.3983049  )
        48        O      tau(  48) = (  0.8206762  0.3279393  0.3983049  )
        49        O      tau(  49) = (  0.1700666  0.2077642  0.1691810  )
        50        O      tau(  50) = (  0.6700666  0.2077642  0.1691810  )
        51        O      tau(  51) = (  0.3299335  0.2077642  0.8308189  )
        52        O      tau(  52) = (  0.8299335  0.2077642  0.8308189  )
        53        O      tau(  53) = (  0.0031175  0.9969420  0.1720546  )
        54        O      tau(  54) = (  0.5031175  0.9969420  0.1720546  )
        55        O      tau(  55) = (  0.4968825  0.9969420  0.8279454  )
        56        O      tau(  56) = (  0.9968826  0.9969420  0.8279454  )
        57        O      tau(  57) = (  0.3430353  0.7704818  0.8264474  )
        58        O      tau(  58) = (  0.8430352  0.7704818  0.8264474  )
        59        O      tau(  59) = (  0.1569648  0.7704818  0.1735526  )
        60        O      tau(  60) = (  0.6569648  0.7704818  0.1735526  )
        61        O      tau(  61) = (  0.4065843  0.7368129  0.1722989  )
        62        O      tau(  62) = (  0.9065843  0.7368129  0.1722989  )
        63        O      tau(  63) = (  0.0934158  0.7368129  0.8277010  )
        64        O      tau(  64) = (  0.5934158  0.7368129  0.8277010  )
        65        O      tau(  65) = (  0.2538643  0.5084513  0.1689343  )
        66        O      tau(  66) = (  0.7538643  0.5084513  0.1689343  )
        67        O      tau(  67) = (  0.2461358  0.5084513  0.8310656  )
        68        O      tau(  68) = (  0.7461358  0.5084513  0.8310656  )
        69        O      tau(  69) = (  0.0729996  0.2721775  0.8364525  )
        70        O      tau(  70) = (  0.5729996  0.2721775  0.8364525  )
        71        O      tau(  71) = (  0.4270005  0.2721775  0.1635474  )
        72        O      tau(  72) = (  0.9270005  0.2721775  0.1635474  )
        73        O      tau(  73) = (  0.0602566  0.5035344  0.3949087  )
        74        O      tau(  74) = (  0.5602566  0.5035344  0.3949087  )
        75        O      tau(  75) = (  0.4397435  0.5035344  0.6050912  )
        76        O      tau(  76) = (  0.9397435  0.5035344  0.6050912  )
        77        O      tau(  77) = (  0.3171937  0.9993365  0.3998523  )
        78        O      tau(  78) = (  0.8171936  0.9993365  0.3998523  )
        79        O      tau(  79) = (  0.1828064  0.9993365  0.6001475  )
        80        O      tau(  80) = (  0.6828064  0.9993365  0.6001475  )
        81        H      tau(  81) = (  0.0539881  0.4967257  0.3013022  )
        82        H      tau(  82) = (  0.5539880  0.4967257  0.3013022  )
        83        H      tau(  83) = (  0.4460120  0.4967257  0.6986976  )
        84        H      tau(  84) = (  0.9460120  0.4967257  0.6986976  )
        85        H      tau(  85) = (  0.2997639  0.0136193  0.3064120  )
        86        H      tau(  86) = (  0.7997639  0.0136193  0.3064120  )
        87        H      tau(  87) = (  0.2002362  0.0136193  0.6935880  )
        88        H      tau(  88) = (  0.7002362  0.0136193  0.6935880  )

     number of k points=    10  Gaussian smearing, width (Ry)=  0.0010
                       cart. coord. in units 2pi/alat
        k(    1) = (   0.0000000   0.0000000   0.0000000), wk =   0.0370370
        k(    2) = (   0.0000000   0.0000000   0.3472162), wk =   0.0740741
        k(    3) = (   0.0000000   0.3834463   0.0000000), wk =   0.0740741
        k(    4) = (   0.0000000   0.3834463   0.3472162), wk =   0.1481481
        k(    5) = (   0.3333333   0.0000000   0.0590081), wk =   0.0740741
        k(    6) = (   0.3333333   0.0000000   0.4062243), wk =   0.0740741
        k(    7) = (   0.3333333   0.0000000  -0.2882081), wk =   0.0740741
        k(    8) = (   0.3333333   0.3834463   0.0590081), wk =   0.1481481
        k(    9) = (   0.3333333   0.3834463   0.4062243), wk =   0.1481481
        k(   10) = (   0.3333333   0.3834463  -0.2882081), wk =   0.1481481

                       cryst. coord.
        k(    1) = (   0.0000000   0.0000000   0.0000000), wk =   0.0370370
        k(    2) = (   0.0000000   0.0000000   0.3333333), wk =   0.0740741
        k(    3) = (   0.0000000   0.3333333   0.0000000), wk =   0.0740741
        k(    4) = (   0.0000000   0.3333333   0.3333333), wk =   0.1481481
        k(    5) = (   0.3333333   0.0000000   0.0000000), wk =   0.0740741
        k(    6) = (   0.3333333   0.0000000   0.3333333), wk =   0.0740741
        k(    7) = (   0.3333333   0.0000000  -0.3333333), wk =   0.0740741
        k(    8) = (   0.3333333   0.3333333   0.0000000), wk =   0.1481481
        k(    9) = (   0.3333333   0.3333333   0.3333333), wk =   0.1481481
        k(   10) = (   0.3333333   0.3333333  -0.3333333), wk =   0.1481481

     Dense  grid:  1215615 G-vectors     FFT dimensions: ( 144, 125, 144)

     Smooth grid:   429835 G-vectors     FFT dimensions: ( 100,  90, 100)

     Dynamical RAM for                 wfc:      42.91 MB

     Dynamical RAM for     wfc (w. buffer):     901.02 MB

     Dynamical RAM for           str. fact:      24.73 MB

     Dynamical RAM for           local pot:       0.00 MB

     Dynamical RAM for          nlocal pot:     119.70 MB

     Dynamical RAM for                qrad:      28.13 MB

     Dynamical RAM for          rho,v,vnew:      38.32 MB

     Dynamical RAM for               rhoin:      12.77 MB

     Dynamical RAM for            rho*nmix:      98.93 MB

     Dynamical RAM for           G-vectors:      12.14 MB

     Dynamical RAM for          h,s,v(r/c):       4.51 MB

     Dynamical RAM for          <psi|beta>:       4.20 MB

     Dynamical RAM for                 psi:      85.81 MB

     Dynamical RAM for                hpsi:      85.81 MB

     Dynamical RAM for                spsi:      85.81 MB

     Dynamical RAM for      wfcinit/wfcrot:      88.07 MB

     Dynamical RAM for           addusdens:     726.50 MB

     Dynamical RAM for          addusforce:    1017.47 MB

     Dynamical RAM for         addusstress:     626.02 MB

     Estimated static dynamical RAM per process >       1.16 GB

     Estimated max dynamical RAM per process >       2.25 GB

     Estimated total dynamical RAM >      13.48 GB

     Atomic positions and unit cell read from directory:
     ./temp/phl-fe1-fe4x2.save/
     Atomic positions from file used, from input discarded


     Check: negative core charge=   -0.000004
     Generating pointlists ...
     new r_m :   0.0672 (alat units)  1.3563 (a.u.) for type    1
     new r_m :   0.0798 (alat units)  1.6084 (a.u.) for type    2
     new r_m :   0.0797 (alat units)  1.6084 (a.u.) for type    3
     new r_m :   0.0374 (alat units)  0.7533 (a.u.) for type    4
     new r_m :   0.1075 (alat units)  2.1683 (a.u.) for type    5
     new r_m :   0.0780 (alat units)  1.5740 (a.u.) for type    6
     new r_m :   0.0374 (alat units)  0.7533 (a.u.) for type    7
     new r_m :   0.0626 (alat units)  1.2630 (a.u.) for type    8

     The initial density is read from file :
     ./temp/phl-fe1-fe4x2.save/charge-density


     starting charge     523.8928, renormalised to     524.0000

     negative rho (up, down):  4.807E-04 4.811E-04
     Cannot read wfcs: file not found
     Starting wfcs are  366 randomized atomic wfcs
     Checking if some PAW data can be deallocated... 
       PAW data deallocated on    4 nodes for type:  1
       PAW data deallocated on    5 nodes for type:  2
       PAW data deallocated on    5 nodes for type:  3
       PAW data deallocated on    5 nodes for type:  4
       PAW data deallocated on    5 nodes for type:  5
       PAW data deallocated on    5 nodes for type:  6
       PAW data deallocated on    2 nodes for type:  7
       PAW data deallocated on    5 nodes for type:  8

     total cpu time spent up to now is      630.7 secs

     Self-consistent Calculation

     iteration #  1     ecut=    60.00 Ry     beta= 0.70
     Davidson diagonalization with overlap

---- Real-time Memory Report at c_bands before calling an iterative solver
          1305 MiB given to the printing process from OS
             0 MiB allocation reported by mallinfo(arena+hblkhd)
          5375 MiB available memory on the node where the printing process lives
------------------
     c_bands:  3 eigenvalues not converged
     c_bands:  4 eigenvalues not converged
     c_bands:  4 eigenvalues not converged
     c_bands:  4 eigenvalues not converged
     c_bands:  4 eigenvalues not converged
     c_bands:  4 eigenvalues not converged
     c_bands:  4 eigenvalues not converged
     c_bands:  3 eigenvalues not converged
     c_bands:  4 eigenvalues not converged
     c_bands:  1 eigenvalues not converged
     c_bands:  5 eigenvalues not converged
     c_bands:  3 eigenvalues not converged
     c_bands:  4 eigenvalues not converged
     c_bands:  4 eigenvalues not converged
     c_bands:  4 eigenvalues not converged
     c_bands:  4 eigenvalues not converged
     c_bands:  3 eigenvalues not converged
     c_bands:  3 eigenvalues not converged
     ethr =  1.00E-05,  avg # of iterations = 40.2

     Threshold (ethr) on eigenvalues was too large:
     Diagonalizing with lowered threshold

     Davidson diagonalization with overlap

---- Real-time Memory Report at c_bands before calling an iterative solver
          1887 MiB given to the printing process from OS
             0 MiB allocation reported by mallinfo(arena+hblkhd)
          4764 MiB available memory on the node where the printing process lives
------------------
     c_bands:  1 eigenvalues not converged
     c_bands:  1 eigenvalues not converged
     c_bands:  2 eigenvalues not converged
     c_bands:  1 eigenvalues not converged
     c_bands:  1 eigenvalues not converged
     c_bands:  1 eigenvalues not converged
     c_bands:  2 eigenvalues not converged
     c_bands:  1 eigenvalues not converged
     ethr =  1.09E-07,  avg # of iterations = 14.8

     negative rho (up, down):  4.827E-04 4.825E-04

     total cpu time spent up to now is    20400.4 secs

     total energy              =   -5262.51495154 Ry
     estimated scf accuracy    <       0.00056346 Ry

     total magnetization       =     0.00 Bohr mag/cell
     absolute magnetization    =     8.08 Bohr mag/cell

     iteration #  2     ecut=    60.00 Ry     beta= 0.70
     Davidson diagonalization with overlap

---- Real-time Memory Report at c_bands before calling an iterative solver
          1914 MiB given to the printing process from OS
             0 MiB allocation reported by mallinfo(arena+hblkhd)
          4340 MiB available memory on the node where the printing process lives
------------------
     c_bands:  1 eigenvalues not converged
     c_bands:  1 eigenvalues not converged
     c_bands:  1 eigenvalues not converged
     ethr =  1.08E-07,  avg # of iterations =  7.7

     negative rho (up, down):  4.793E-04 4.798E-04

     total cpu time spent up to now is    22424.9 secs

     total energy              =   -5262.51504851 Ry
     estimated scf accuracy    <       0.00020669 Ry

     total magnetization       =     0.00 Bohr mag/cell
     absolute magnetization    =     8.08 Bohr mag/cell

     iteration #  3     ecut=    60.00 Ry     beta= 0.70
     Davidson diagonalization with overlap

---- Real-time Memory Report at c_bands before calling an iterative solver
          1920 MiB given to the printing process from OS
             0 MiB allocation reported by mallinfo(arena+hblkhd)
          4370 MiB available memory on the node where the printing process lives
------------------
     ethr =  3.94E-08,  avg # of iterations =  6.8

     negative rho (up, down):  4.812E-04 4.814E-04

     total cpu time spent up to now is    24323.7 secs

     total energy              =   -5262.51511513 Ry
     estimated scf accuracy    <       0.00009600 Ry

     total magnetization       =     0.00 Bohr mag/cell
     absolute magnetization    =     8.08 Bohr mag/cell

     iteration #  4     ecut=    60.00 Ry     beta= 0.70
     Davidson diagonalization with overlap

---- Real-time Memory Report at c_bands before calling an iterative solver
          1925 MiB given to the printing process from OS
             0 MiB allocation reported by mallinfo(arena+hblkhd)
          4266 MiB available memory on the node where the printing process lives
------------------
     ethr =  1.83E-08,  avg # of iterations =  6.5

     negative rho (up, down):  4.809E-04 4.812E-04

     total cpu time spent up to now is    26389.9 secs

     total energy              =   -5262.51515473 Ry
     estimated scf accuracy    <       0.00000384 Ry

     total magnetization       =    -0.00 Bohr mag/cell
     absolute magnetization    =     8.08 Bohr mag/cell

     iteration #  5     ecut=    60.00 Ry     beta= 0.70
     Davidson diagonalization with overlap

---- Real-time Memory Report at c_bands before calling an iterative solver
          1929 MiB given to the printing process from OS
             0 MiB allocation reported by mallinfo(arena+hblkhd)
          4214 MiB available memory on the node where the printing process lives
------------------
     ethr =  7.32E-10,  avg # of iterations = 14.1

     negative rho (up, down):  4.810E-04 4.810E-04

     Magnetic moment per site  (integrated on atomic sphere of radius R)
     atom   1 (R=0.108)  charge=  7.5453  magn= -0.0000
     atom   2 (R=0.108)  charge=  7.5453  magn= -0.0000
     atom   3 (R=0.108)  charge=  7.5487  magn=  0.0000
     atom   4 (R=0.108)  charge=  7.5487  magn= -0.0000
     atom   5 (R=0.078)  charge=  8.0984  magn=  0.0000
     atom   6 (R=0.078)  charge=  8.0984  magn=  0.0000
     atom   7 (R=0.078)  charge=  8.1017  magn=  0.0000
     atom   8 (R=0.078)  charge=  8.1017  magn=  0.0000
     atom   9 (R=0.078)  charge=  8.0964  magn=  0.0000
     atom  10 (R=0.078)  charge=  8.0964  magn=  0.0000
     atom  11 (R=0.078)  charge=  8.0987  magn=  0.0001
     atom  12 (R=0.078)  charge=  8.0987  magn= -0.0001
     atom  13 (R=0.078)  charge=  8.1050  magn=  0.0004
     atom  14 (R=0.078)  charge=  8.1050  magn= -0.0004
     atom  15 (R=0.080)  charge= 13.3661  magn=  3.3199
     atom  16 (R=0.080)  charge= 13.3658  magn= -3.3199
     atom  17 (R=0.063)  charge=  0.5502  magn=  0.0000
     atom  18 (R=0.063)  charge=  0.5502  magn= -0.0000
     atom  19 (R=0.063)  charge=  0.5502  magn=  0.0000
     atom  20 (R=0.063)  charge=  0.5502  magn= -0.0000
     atom  21 (R=0.063)  charge=  0.5432  magn=  0.0000
     atom  22 (R=0.063)  charge=  0.5432  magn= -0.0000
     atom  23 (R=0.063)  charge=  0.5432  magn=  0.0000
     atom  24 (R=0.063)  charge=  0.5432  magn= -0.0000
     atom  25 (R=0.063)  charge=  0.5424  magn=  0.0009
     atom  26 (R=0.063)  charge=  0.5424  magn= -0.0009
     atom  27 (R=0.063)  charge=  0.5424  magn=  0.0009
     atom  28 (R=0.063)  charge=  0.5424  magn= -0.0009
     atom  29 (R=0.067)  charge=  0.3372  magn=  0.0011
     atom  30 (R=0.067)  charge=  0.3372  magn= -0.0011
     atom  31 (R=0.067)  charge=  0.3372  magn=  0.0011
     atom  32 (R=0.067)  charge=  0.3372  magn= -0.0011
     atom  33 (R=0.037)  charge=  1.9389  magn= -0.0003
     atom  34 (R=0.037)  charge=  1.9389  magn=  0.0003
     atom  35 (R=0.037)  charge=  1.9389  magn= -0.0003
     atom  36 (R=0.037)  charge=  1.9389  magn=  0.0003
     atom  37 (R=0.037)  charge=  1.9418  magn= -0.0001
     atom  38 (R=0.037)  charge=  1.9418  magn=  0.0001
     atom  39 (R=0.037)  charge=  1.9418  magn= -0.0001
     atom  40 (R=0.037)  charge=  1.9418  magn=  0.0001
     atom  41 (R=0.037)  charge=  1.9384  magn=  0.0145
     atom  42 (R=0.037)  charge=  1.9384  magn= -0.0145
     atom  43 (R=0.037)  charge=  1.9384  magn=  0.0145
     atom  44 (R=0.037)  charge=  1.9384  magn= -0.0145
     atom  45 (R=0.037)  charge=  1.9359  magn=  0.0267
     atom  46 (R=0.037)  charge=  1.9359  magn= -0.0267
     atom  47 (R=0.037)  charge=  1.9359  magn=  0.0267
     atom  48 (R=0.037)  charge=  1.9359  magn= -0.0267
     atom  49 (R=0.037)  charge=  1.9441  magn=  0.0003
     atom  50 (R=0.037)  charge=  1.9441  magn= -0.0003
     atom  51 (R=0.037)  charge=  1.9441  magn=  0.0003
     atom  52 (R=0.037)  charge=  1.9441  magn= -0.0003
     atom  53 (R=0.037)  charge=  1.9470  magn= -0.0000
     atom  54 (R=0.037)  charge=  1.9470  magn=  0.0000
     atom  55 (R=0.037)  charge=  1.9470  magn= -0.0000
     atom  56 (R=0.037)  charge=  1.9470  magn=  0.0000
     atom  57 (R=0.037)  charge=  1.9466  magn=  0.0003
     atom  58 (R=0.037)  charge=  1.9466  magn= -0.0003
     atom  59 (R=0.037)  charge=  1.9466  magn=  0.0003
     atom  60 (R=0.037)  charge=  1.9466  magn= -0.0003
     atom  61 (R=0.037)  charge=  1.9474  magn=  0.0006
     atom  62 (R=0.037)  charge=  1.9474  magn= -0.0006
     atom  63 (R=0.037)  charge=  1.9474  magn=  0.0006
     atom  64 (R=0.037)  charge=  1.9474  magn= -0.0006
     atom  65 (R=0.037)  charge=  1.9390  magn= -0.0003
     atom  66 (R=0.037)  charge=  1.9390  magn=  0.0003
     atom  67 (R=0.037)  charge=  1.9390  magn= -0.0003
     atom  68 (R=0.037)  charge=  1.9390  magn=  0.0003
     atom  69 (R=0.037)  charge=  1.9442  magn=  0.0005
     atom  70 (R=0.037)  charge=  1.9442  magn= -0.0005
     atom  71 (R=0.037)  charge=  1.9442  magn=  0.0005
     atom  72 (R=0.037)  charge=  1.9442  magn= -0.0005
     atom  73 (R=0.037)  charge=  1.9379  magn=  0.0203
     atom  74 (R=0.037)  charge=  1.9380  magn= -0.0203
     atom  75 (R=0.037)  charge=  1.9379  magn=  0.0203
     atom  76 (R=0.037)  charge=  1.9380  magn= -0.0203
     atom  77 (R=0.037)  charge=  1.9447  magn=  0.0006
     atom  78 (R=0.037)  charge=  1.9447  magn= -0.0006
     atom  79 (R=0.037)  charge=  1.9447  magn=  0.0006
     atom  80 (R=0.037)  charge=  1.9447  magn= -0.0006
     atom  81 (R=0.037)  charge=  0.4011  magn=  0.0000
     atom  82 (R=0.037)  charge=  0.4011  magn= -0.0000
     atom  83 (R=0.037)  charge=  0.4011  magn=  0.0000
     atom  84 (R=0.037)  charge=  0.4011  magn= -0.0000
     atom  85 (R=0.037)  charge=  0.4004  magn= -0.0000
     atom  86 (R=0.037)  charge=  0.4004  magn=  0.0000
     atom  87 (R=0.037)  charge=  0.4004  magn= -0.0000
     atom  88 (R=0.037)  charge=  0.4004  magn=  0.0000

     total cpu time spent up to now is    32890.3 secs

     End of self-consistent calculation

 ------ SPIN UP ------------


          k = 0.0000 0.0000 0.0000 ( 53739 PWs)   bands (ev):

   -81.6203 -77.4791 -67.8938 -67.8937 -67.8865 -67.8864 -67.8215 -67.8215
   -67.3903 -67.3903 -67.3672 -67.3669 -48.6311 -47.5160 -46.8764 -43.9450
   -43.6104 -43.3500 -34.6647 -34.6604 -34.6567 -34.6481 -34.6477 -34.6435
   -34.6357 -34.6349 -34.6339 -34.6328 -34.6238 -34.6235 -34.5828 -34.5824
   -34.5802 -34.5798 -34.5545 -34.5543 -34.1624 -34.1606 -34.1564 -34.1541
   -34.1373 -34.1367 -34.1195 -34.1189 -34.1106 -34.1092 -34.1035 -34.1016
   -23.5186 -23.5181 -23.5163 -23.5160 -15.2679 -15.2227 -14.9036 -14.8706
   -14.6367 -14.6070 -14.3527 -14.3157 -14.0901 -14.0632 -13.8256 -13.8102
   -13.6392 -13.5263 -13.5027 -13.4093 -13.3613 -13.3522 -13.2693 -13.2274
   -13.1869 -13.1657 -13.1509 -13.1483 -13.1097 -13.0965 -13.0895 -13.0674
   -13.0105 -13.0039 -12.9181 -12.8912 -12.8403 -12.7948 -12.7531 -12.6993
   -12.6954 -12.6274 -12.5250 -12.5110 -12.4809 -12.4363 -12.3599 -12.3372
   -11.6390 -11.5325 -11.4263 -11.3203  -7.0732  -7.0707  -7.0626  -7.0525
    -6.9969  -6.9937  -6.9911  -6.9840  -6.9832  -6.9822  -6.9804  -6.9757
    -4.5242  -4.4860  -3.5854  -3.5262  -3.0527  -2.9931  -2.6723  -2.5888
    -2.0592  -1.9767  -1.8904  -1.6503  -1.5546  -1.5142  -1.4449  -1.3968
    -1.3042  -1.2494  -1.1797  -1.0302  -0.9615  -0.9165  -0.9109  -0.8376
    -0.6557  -0.6255  -0.5783  -0.5749  -0.5347  -0.4685  -0.4147  -0.3948
    -0.2833  -0.2214  -0.2154  -0.1814  -0.0563   0.1546   0.1617   0.2039
     0.2204   0.3166   0.3473   0.3565   0.4125   0.4454   0.4643   0.6430
     0.6606   0.6872   0.7702   0.8453   0.8673   0.9032   0.9568   0.9916
     1.1586   1.1928   1.2195   1.2341   1.2577   1.2717   1.3105   1.3882
     1.4006   1.4450   1.4987   1.5351   1.5499   1.5579   1.7044   1.8065
     1.8275   1.8577   1.9291   1.9417   1.9699   2.0431   2.0705   2.1169
     2.1248   2.1394   2.1557   2.3097   2.3194   2.3676   2.3830   2.3874
     2.4173   2.4264   2.4648   2.4714   2.5377   2.5410   2.5674   2.5973
     2.6601   2.6725   2.7037   2.7101   2.7413   2.7521   2.7537   2.8005
     2.8353   2.8748   2.8836   2.8950   2.9643   2.9932   3.0078   3.0175
     3.0705   3.0943   3.0943   3.1165   3.1484   3.1671   3.2028   3.2135
     3.2558   3.2565   3.2737   3.3058   3.3490   3.4117   3.4165   3.4314
     3.4586   3.4847   3.5267   3.5308   3.5561   3.5932   3.6025   3.6422
     3.7063   3.7224   3.7540   3.8047   3.8777   3.9511   4.0363   4.0841
     4.8553   4.9181   6.0716   6.4456   6.6517   7.9032   8.4198   8.5337
     8.6752   9.6159  10.0903  10.1513  10.5522  10.6997  10.8374  11.1392
    11.2631  11.2942  11.4516  11.5205  11.5777  11.6043  11.8279  12.0769
    12.0854  12.1220  12.2156  12.3067  12.3436  12.5376  12.5741  12.6780
    12.7237  12.7383  12.8420  12.9428  12.9496  12.9670  13.1030  13.1095
    13.1607  13.2430  13.2479  13.3656  13.3911  13.3950  13.4461  13.4597
    13.4682  13.4918  13.5048  13.6035  13.6212  13.6455  13.6939  13.8812
    13.9118  13.9481

     occupation numbers 
     1.0000   1.0000   1.0000   1.0000   1.0000   1.0000   1.0000   1.0000
     1.0000   1.0000   1.0000   1.0000   1.0000   1.0000   1.0000   1.0000
     1.0000   1.0000   1.0000   1.0000   1.0000   1.0000   1.0000   1.0000
     1.0000   1.0000   1.0000   1.0000   1.0000   1.0000   1.0000   1.0000
     1.0000   1.0000   1.0000   1.0000   1.0000   1.0000   1.0000   1.0000
     1.0000   1.0000   1.0000   1.0000   1.0000   1.0000   1.0000   1.0000
     1.0000   1.0000   1.0000   1.0000   1.0000   1.0000   1.0000   1.0000
     1.0000   1.0000   1.0000   1.0000   1.0000   1.0000   1.0000   1.0000
     1.0000   1.0000   1.0000   1.0000   1.0000   1.0000   1.0000   1.0000
     1.0000   1.0000   1.0000   1.0000   1.0000   1.0000   1.0000   1.0000
     1.0000   1.0000   1.0000   1.0000   1.0000   1.0000   1.0000   1.0000
     1.0000   1.0000   1.0000   1.0000   1.0000   1.0000   1.0000   1.0000
     1.0000   1.0000   1.0000   1.0000   1.0000   1.0000   1.0000   1.0000
     1.0000   1.0000   1.0000   1.0000   1.0000   1.0000   1.0000   1.0000
     1.0000   1.0000   1.0000   1.0000   1.0000   1.0000   1.0000   1.0000
     1.0000   1.0000   1.0000   1.0000   1.0000   1.0000   1.0000   1.0000
     1.0000   1.0000   1.0000   1.0000   1.0000   1.0000   1.0000   1.0000
     1.0000   1.0000   1.0000   1.0000   1.0000   1.0000   1.0000   1.0000
     1.0000   1.0000   1.0000   1.0000   1.0000   1.0000   1.0000   1.0000
     1.0000   1.0000   1.0000   1.0000   1.0000   1.0000   1.0000   1.0000
     1.0000   1.0000   1.0000   1.0000   1.0000   1.0000   1.0000   1.0000
     1.0000   1.0000   1.0000   1.0000   1.0000   1.0000   1.0000   1.0000
     1.0000   1.0000   1.0000   1.0000   1.0000   1.0000   1.0000   1.0000
     1.0000   1.0000   1.0000   1.0000   1.0000   1.0000   1.0000   1.0000
     1.0000   1.0000   1.0000   1.0000   1.0000   1.0000   1.0000   1.0000
     1.0000   1.0000   1.0000   1.0000   1.0000   1.0000   1.0000   1.0000
     1.0000   1.0000   1.0000   1.0000   1.0000   1.0000   1.0000   1.0000
     1.0000   1.0000   1.0000   1.0000   1.0000   1.0000   1.0000   1.0000
     1.0000   1.0000   1.0000   1.0000   1.0000   1.0000   1.0000   1.0000
     1.0000   1.0000   1.0000   1.0000   1.0000   1.0000   1.0000   1.0000
     1.0000   1.0000   1.0000   1.0000   1.0000   1.0000   1.0000   1.0000
     1.0000   1.0000   1.0000   1.0000   1.0000   1.0000   1.0000   1.0000
     1.0000   1.0000   1.0000   1.0000   1.0000   1.0000   0.0000   0.0000
     0.0000   0.0000   0.0000   0.0000   0.0000   0.0000   0.0000   0.0000
     0.0000   0.0000   0.0000   0.0000   0.0000   0.0000   0.0000   0.0000
     0.0000   0.0000   0.0000   0.0000   0.0000   0.0000   0.0000   0.0000
     0.0000   0.0000   0.0000   0.0000   0.0000   0.0000   0.0000   0.0000
     0.0000   0.0000   0.0000   0.0000   0.0000   0.0000   0.0000   0.0000
     0.0000   0.0000   0.0000   0.0000   0.0000   0.0000   0.0000   0.0000
     0.0000   0.0000

          k = 0.0000 0.0000 0.3472 ( 53718 PWs)   bands (ev):

   -81.6203 -77.4791 -67.8938 -67.8937 -67.8865 -67.8864 -67.8215 -67.8215
   -67.3903 -67.3903 -67.3672 -67.3669 -48.6311 -47.5160 -46.8764 -43.9450
   -43.6103 -43.3500 -34.6647 -34.6604 -34.6567 -34.6481 -34.6477 -34.6435
   -34.6357 -34.6349 -34.6339 -34.6328 -34.6238 -34.6235 -34.5828 -34.5824
   -34.5802 -34.5798 -34.5545 -34.5542 -34.1624 -34.1606 -34.1564 -34.1541
   -34.1373 -34.1367 -34.1195 -34.1189 -34.1106 -34.1092 -34.1035 -34.1015
   -23.5186 -23.5181 -23.5163 -23.5160 -15.2580 -15.2332 -14.8962 -14.8784
   -14.6301 -14.6138 -14.3437 -14.3251 -14.0857 -14.0678 -13.8260 -13.8098
   -13.6319 -13.5404 -13.4972 -13.4095 -13.3606 -13.3489 -13.2667 -13.2200
   -13.1928 -13.1751 -13.1503 -13.1484 -13.1063 -13.0975 -13.0846 -13.0750
   -13.0083 -12.9983 -12.9186 -12.8942 -12.8363 -12.8033 -12.7478 -12.7011
   -12.6863 -12.6366 -12.5295 -12.5029 -12.4791 -12.4292 -12.3648 -12.3435
   -11.6384 -11.5319 -11.4271 -11.3210  -7.0733  -7.0707  -7.0627  -7.0526
    -6.9969  -6.9936  -6.9911  -6.9840  -6.9831  -6.9822  -6.9803  -6.9757
    -4.5229  -4.4875  -3.5710  -3.5411  -3.0389  -3.0085  -2.6532  -2.6108
    -2.0361  -1.9655  -1.9027  -1.6431  -1.5487  -1.5156  -1.4340  -1.4062
    -1.3034  -1.2586  -1.1738  -1.0146  -0.9557  -0.9137  -0.8905  -0.8476
    -0.6841  -0.6008  -0.5832  -0.5681  -0.5209  -0.4992  -0.4481  -0.4380
    -0.3245  -0.2443  -0.1983  -0.1553  -0.0893   0.1540   0.1585   0.1945
     0.2149   0.2772   0.3402   0.3459   0.4120   0.4717   0.4782   0.6690
     0.6919   0.6968   0.7805   0.8355   0.8947   0.9149   0.9612   0.9969
     1.1307   1.1691   1.1947   1.2322   1.2639   1.3205   1.3442   1.3856
     1.4144   1.4266   1.5277   1.5540   1.5883   1.6231   1.7727   1.8064
     1.8432   1.8732   1.9119   1.9215   1.9747   2.0343   2.0654   2.0676
     2.0885   2.1246   2.1932   2.3013   2.3172   2.3228   2.3590   2.3776
     2.3908   2.4119   2.4193   2.4957   2.5204   2.5318   2.5415   2.5563
     2.6485   2.6739   2.6910   2.7348   2.7536   2.7911   2.8019   2.8102
     2.8289   2.8522   2.8690   2.8854   2.9766   2.9835   3.0278   3.0531
     3.0688   3.0964   3.1105   3.1371   3.1438   3.1613   3.1816   3.2387
     3.2670   3.2724   3.3051   3.3143   3.3542   3.3879   3.4087   3.4223
     3.4330   3.4462   3.4720   3.5086   3.5279   3.5704   3.5852   3.6858
     3.6935   3.7222   3.7487   3.8413   3.9232   3.9714   4.0331   4.0860
     4.8532   4.9180   6.0721   6.4405   6.6537   7.9043   8.4220   8.5328
     8.9718   9.6065   9.6767  10.1039  10.5929  10.8221  10.9020  10.9911
    11.2022  11.2789  11.3277  11.6123  11.6676  11.6967  11.7225  12.1233
    12.1451  12.1904  12.2507  12.2770  12.3818  12.5699  12.5804  12.6109
    12.7812  12.8320  12.8564  12.8892  12.9549  12.9833  13.0154  13.0739
    13.1312  13.1851  13.2256  13.2669  13.3073  13.3806  13.4211  13.4473
    13.4942  13.5321  13.5677  13.6199  13.6705  13.7208  13.7445  13.7681
    13.9127  13.9260

     occupation numbers 
     1.0000   1.0000   1.0000   1.0000   1.0000   1.0000   1.0000   1.0000
     1.0000   1.0000   1.0000   1.0000   1.0000   1.0000   1.0000   1.0000
     1.0000   1.0000   1.0000   1.0000   1.0000   1.0000   1.0000   1.0000
     1.0000   1.0000   1.0000   1.0000   1.0000   1.0000   1.0000   1.0000
     1.0000   1.0000   1.0000   1.0000   1.0000   1.0000   1.0000   1.0000
     1.0000   1.0000   1.0000   1.0000   1.0000   1.0000   1.0000   1.0000
     1.0000   1.0000   1.0000   1.0000   1.0000   1.0000   1.0000   1.0000
     1.0000   1.0000   1.0000   1.0000   1.0000   1.0000   1.0000   1.0000
     1.0000   1.0000   1.0000   1.0000   1.0000   1.0000   1.0000   1.0000
     1.0000   1.0000   1.0000   1.0000   1.0000   1.0000   1.0000   1.0000
     1.0000   1.0000   1.0000   1.0000   1.0000   1.0000   1.0000   1.0000
     1.0000   1.0000   1.0000   1.0000   1.0000   1.0000   1.0000   1.0000
     1.0000   1.0000   1.0000   1.0000   1.0000   1.0000   1.0000   1.0000
     1.0000   1.0000   1.0000   1.0000   1.0000   1.0000   1.0000   1.0000
     1.0000   1.0000   1.0000   1.0000   1.0000   1.0000   1.0000   1.0000
     1.0000   1.0000   1.0000   1.0000   1.0000   1.0000   1.0000   1.0000
     1.0000   1.0000   1.0000   1.0000   1.0000   1.0000   1.0000   1.0000
     1.0000   1.0000   1.0000   1.0000   1.0000   1.0000   1.0000   1.0000
     1.0000   1.0000   1.0000   1.0000   1.0000   1.0000   1.0000   1.0000
     1.0000   1.0000   1.0000   1.0000   1.0000   1.0000   1.0000   1.0000
     1.0000   1.0000   1.0000   1.0000   1.0000   1.0000   1.0000   1.0000
     1.0000   1.0000   1.0000   1.0000   1.0000   1.0000   1.0000   1.0000
     1.0000   1.0000   1.0000   1.0000   1.0000   1.0000   1.0000   1.0000
     1.0000   1.0000   1.0000   1.0000   1.0000   1.0000   1.0000   1.0000
     1.0000   1.0000   1.0000   1.0000   1.0000   1.0000   1.0000   1.0000
     1.0000   1.0000   1.0000   1.0000   1.0000   1.0000   1.0000   1.0000
     1.0000   1.0000   1.0000   1.0000   1.0000   1.0000   1.0000   1.0000
     1.0000   1.0000   1.0000   1.0000   1.0000   1.0000   1.0000   1.0000
     1.0000   1.0000   1.0000   1.0000   1.0000   1.0000   1.0000   1.0000
     1.0000   1.0000   1.0000   1.0000   1.0000   1.0000   1.0000   1.0000
     1.0000   1.0000   1.0000   1.0000   1.0000   1.0000   1.0000   1.0000
     1.0000   1.0000   1.0000   1.0000   1.0000   1.0000   1.0000   1.0000
     1.0000   1.0000   1.0000   1.0000   1.0000   1.0000   0.0000   0.0000
     0.0000   0.0000   0.0000   0.0000   0.0000   0.0000   0.0000   0.0000
     0.0000   0.0000   0.0000   0.0000   0.0000   0.0000   0.0000   0.0000
     0.0000   0.0000   0.0000   0.0000   0.0000   0.0000   0.0000   0.0000
     0.0000   0.0000   0.0000   0.0000   0.0000   0.0000   0.0000   0.0000
     0.0000   0.0000   0.0000   0.0000   0.0000   0.0000   0.0000   0.0000
     0.0000   0.0000   0.0000   0.0000   0.0000   0.0000   0.0000   0.0000
     0.0000   0.0000

          k = 0.0000 0.3835 0.0000 ( 53739 PWs)   bands (ev):

   -81.6203 -77.4791 -67.8938 -67.8937 -67.8865 -67.8864 -67.8215 -67.8215
   -67.3903 -67.3903 -67.3672 -67.3669 -48.6311 -47.5160 -46.8764 -43.9450
   -43.6104 -43.3500 -34.6647 -34.6604 -34.6567 -34.6481 -34.6477 -34.6435
   -34.6357 -34.6349 -34.6339 -34.6327 -34.6238 -34.6235 -34.5828 -34.5824
   -34.5802 -34.5798 -34.5545 -34.5543 -34.1624 -34.1606 -34.1564 -34.1541
   -34.1373 -34.1367 -34.1195 -34.1189 -34.1106 -34.1092 -34.1035 -34.1016
   -23.5186 -23.5181 -23.5164 -23.5160 -15.2629 -15.2179 -14.9027 -14.8694
   -14.6364 -14.6066 -14.3864 -14.3453 -14.0943 -14.0678 -13.8257 -13.8104
   -13.5636 -13.4828 -13.4235 -13.4068 -13.3598 -13.3544 -13.2629 -13.2458
   -13.1875 -13.1770 -13.1711 -13.1620 -13.1531 -13.1393 -13.0923 -13.0787
   -13.0211 -13.0042 -12.9176 -12.8874 -12.8407 -12.7881 -12.7434 -12.7042
   -12.6910 -12.6323 -12.5249 -12.5095 -12.4763 -12.4356 -12.3565 -12.3372
   -11.6379 -11.5317 -11.4263 -11.3202  -7.0739  -7.0676  -7.0629  -7.0558
    -6.9962  -6.9938  -6.9888  -6.9837  -6.9831  -6.9826  -6.9824  -6.9759
    -4.4827  -4.4428  -3.5965  -3.5350  -3.0662  -3.0062  -2.8256  -2.7413
    -2.0087  -1.9526  -1.8669  -1.6978  -1.5511  -1.5034  -1.3163  -1.2900
    -1.2414  -1.1852  -1.1820  -1.0462  -0.9972  -0.9058  -0.8942  -0.8552
    -0.6688  -0.5881  -0.5650  -0.5411  -0.5200  -0.4682  -0.3907  -0.3898
    -0.3264  -0.3147  -0.2357  -0.0984  -0.0716   0.1087   0.1477   0.2090
     0.2615   0.2977   0.3087   0.3177   0.3514   0.4150   0.4837   0.6264
     0.6538   0.6732   0.7060   0.8425   0.8486   0.9451   1.0032   1.0215
     1.1389   1.1753   1.2056   1.2666   1.2779   1.3035   1.3544   1.3694
     1.4090   1.4151   1.4931   1.5126   1.5710   1.5927   1.7264   1.8288
     1.8380   1.8707   1.8837   1.9092   2.0038   2.0793   2.1247   2.1448
     2.1501   2.1717   2.1864   2.2767   2.2972   2.3006   2.3263   2.3738
     2.4052   2.4085   2.4539   2.5085   2.5340   2.5758   2.5822   2.6096
     2.6470   2.6863   2.6988   2.7191   2.7387   2.7687   2.7799   2.8275
     2.8669   2.8948   2.9093   2.9166   2.9291   2.9578   2.9726   3.0231
     3.0279   3.1103   3.1272   3.1370   3.1558   3.1867   3.2131   3.2279
     3.2308   3.2433   3.2711   3.2831   3.3066   3.3146   3.4286   3.4295
     3.4948   3.4987   3.5466   3.5541   3.5792   3.5983   3.6338   3.6409
     3.6893   3.6945   3.7221   3.7817   3.8440   3.8881   3.9265   4.0716
     4.8648   4.9116   6.0714   6.4120   6.6638   7.9032   8.4285   8.5327
     9.0618   9.5775   9.9463  10.1924  10.3927  10.6482  10.8212  11.0126
    11.2377  11.2984  11.4090  11.4770  11.5003  11.7826  11.9096  11.9580
    12.1157  12.1532  12.2024  12.2705  12.3020  12.4745  12.6377  12.7263
    12.7440  12.8070  12.8749  12.9480  12.9518  13.0031  13.0467  13.0926
    13.1379  13.1527  13.2633  13.2884  13.2938  13.3630  13.3696  13.3935
    13.4824  13.5927  13.6470  13.7423  13.8156  13.8785  13.9085  13.9171
    13.9534  14.0252

     occupation numbers 
     1.0000   1.0000   1.0000   1.0000   1.0000   1.0000   1.0000   1.0000
     1.0000   1.0000   1.0000   1.0000   1.0000   1.0000   1.0000   1.0000
     1.0000   1.0000   1.0000   1.0000   1.0000   1.0000   1.0000   1.0000
     1.0000   1.0000   1.0000   1.0000   1.0000   1.0000   1.0000   1.0000
     1.0000   1.0000   1.0000   1.0000   1.0000   1.0000   1.0000   1.0000
     1.0000   1.0000   1.0000   1.0000   1.0000   1.0000   1.0000   1.0000
     1.0000   1.0000   1.0000   1.0000   1.0000   1.0000   1.0000   1.0000
     1.0000   1.0000   1.0000   1.0000   1.0000   1.0000   1.0000   1.0000
     1.0000   1.0000   1.0000   1.0000   1.0000   1.0000   1.0000   1.0000
     1.0000   1.0000   1.0000   1.0000   1.0000   1.0000   1.0000   1.0000
     1.0000   1.0000   1.0000   1.0000   1.0000   1.0000   1.0000   1.0000
     1.0000   1.0000   1.0000   1.0000   1.0000   1.0000   1.0000   1.0000
     1.0000   1.0000   1.0000   1.0000   1.0000   1.0000   1.0000   1.0000
     1.0000   1.0000   1.0000   1.0000   1.0000   1.0000   1.0000   1.0000
     1.0000   1.0000   1.0000   1.0000   1.0000   1.0000   1.0000   1.0000
     1.0000   1.0000   1.0000   1.0000   1.0000   1.0000   1.0000   1.0000
     1.0000   1.0000   1.0000   1.0000   1.0000   1.0000   1.0000   1.0000
     1.0000   1.0000   1.0000   1.0000   1.0000   1.0000   1.0000   1.0000
     1.0000   1.0000   1.0000   1.0000   1.0000   1.0000   1.0000   1.0000
     1.0000   1.0000   1.0000   1.0000   1.0000   1.0000   1.0000   1.0000
     1.0000   1.0000   1.0000   1.0000   1.0000   1.0000   1.0000   1.0000
     1.0000   1.0000   1.0000   1.0000   1.0000   1.0000   1.0000   1.0000
     1.0000   1.0000   1.0000   1.0000   1.0000   1.0000   1.0000   1.0000
     1.0000   1.0000   1.0000   1.0000   1.0000   1.0000   1.0000   1.0000
     1.0000   1.0000   1.0000   1.0000   1.0000   1.0000   1.0000   1.0000
     1.0000   1.0000   1.0000   1.0000   1.0000   1.0000   1.0000   1.0000
     1.0000   1.0000   1.0000   1.0000   1.0000   1.0000   1.0000   1.0000
     1.0000   1.0000   1.0000   1.0000   1.0000   1.0000   1.0000   1.0000
     1.0000   1.0000   1.0000   1.0000   1.0000   1.0000   1.0000   1.0000
     1.0000   1.0000   1.0000   1.0000   1.0000   1.0000   1.0000   1.0000
     1.0000   1.0000   1.0000   1.0000   1.0000   1.0000   1.0000   1.0000
     1.0000   1.0000   1.0000   1.0000   1.0000   1.0000   1.0000   1.0000
     1.0000   1.0000   1.0000   1.0000   1.0000   1.0000   0.0000   0.0000
     0.0000   0.0000   0.0000   0.0000   0.0000   0.0000   0.0000   0.0000
     0.0000   0.0000   0.0000   0.0000   0.0000   0.0000   0.0000   0.0000
     0.0000   0.0000   0.0000   0.0000   0.0000   0.0000   0.0000   0.0000
     0.0000   0.0000   0.0000   0.0000   0.0000   0.0000   0.0000   0.0000
     0.0000   0.0000   0.0000   0.0000   0.0000   0.0000   0.0000   0.0000
     0.0000   0.0000   0.0000   0.0000   0.0000   0.0000   0.0000   0.0000
     0.0000   0.0000

          k = 0.0000 0.3835 0.3472 ( 53734 PWs)   bands (ev):

   -81.6203 -77.4791 -67.8938 -67.8937 -67.8865 -67.8864 -67.8215 -67.8215
   -67.3903 -67.3903 -67.3672 -67.3669 -48.6311 -47.5160 -46.8764 -43.9450
   -43.6104 -43.3500 -34.6647 -34.6604 -34.6567 -34.6481 -34.6477 -34.6435
   -34.6357 -34.6350 -34.6339 -34.6327 -34.6238 -34.6235 -34.5828 -34.5824
   -34.5802 -34.5799 -34.5545 -34.5543 -34.1624 -34.1606 -34.1564 -34.1541
   -34.1373 -34.1367 -34.1195 -34.1189 -34.1106 -34.1092 -34.1035 -34.1016
   -23.5186 -23.5181 -23.5164 -23.5160 -15.2528 -15.2286 -14.8954 -14.8771
   -14.6298 -14.6133 -14.3770 -14.3553 -14.0890 -14.0733 -13.8262 -13.8099
   -13.5597 -13.4776 -13.4373 -13.4071 -13.3530 -13.3519 -13.2627 -13.2418
   -13.1962 -13.1852 -13.1747 -13.1540 -13.1444 -13.1403 -13.0928 -13.0807
   -13.0186 -13.0032 -12.9178 -12.8904 -12.8349 -12.7990 -12.7381 -12.6973
   -12.6905 -12.6409 -12.5290 -12.5025 -12.4736 -12.4287 -12.3613 -12.3434
   -11.6374 -11.5311 -11.4270 -11.3208  -7.0740  -7.0676  -7.0629  -7.0559
    -6.9962  -6.9938  -6.9888  -6.9837  -6.9831  -6.9825  -6.9823  -6.9758
    -4.4786  -4.4471  -3.5815  -3.5506  -3.0521  -3.0218  -2.8056  -2.7631
    -1.9889  -1.9426  -1.8774  -1.6911  -1.5466  -1.5047  -1.3082  -1.2902
    -1.2320  -1.2027  -1.1717  -1.0327  -0.9759  -0.9243  -0.9014  -0.8472
    -0.6927  -0.5637  -0.5537  -0.5405  -0.5221  -0.4622  -0.4461  -0.4331
    -0.3529  -0.2896  -0.2591  -0.1223  -0.0892   0.1210   0.1565   0.1804
     0.2427   0.2874   0.2985   0.3097   0.3539   0.4252   0.5037   0.6343
     0.6529   0.7033   0.7249   0.7902   0.8669   0.9790   1.0158   1.0676
     1.1242   1.1799   1.2353   1.2501   1.2946   1.3173   1.3577   1.3779
     1.3888   1.4535   1.5325   1.5523   1.5821   1.6238   1.7520   1.7907
     1.8137   1.8468   1.8949   1.9685   2.0086   2.0677   2.1121   2.1180
     2.1349   2.1590   2.1819   2.2591   2.2724   2.3161   2.3316   2.3531
     2.3918   2.4114   2.4522   2.4818   2.5071   2.5369   2.5597   2.5707
     2.6453   2.6730   2.6946   2.7192   2.7740   2.7817   2.7939   2.8350
     2.8467   2.8701   2.8891   2.9188   2.9342   2.9675   2.9922   3.0023
     3.0786   3.1150   3.1430   3.1624   3.1753   3.1821   3.2141   3.2271
     3.2360   3.2599   3.2912   3.3083   3.3210   3.3390   3.3713   3.4016
     3.4358   3.4752   3.5009   3.5388   3.5859   3.5943   3.6202   3.6509
     3.6740   3.6930   3.7582   3.7894   3.8552   3.9284   3.9448   4.0752
     4.8634   4.9109   6.0718   6.4063   6.6656   7.9042   8.4281   8.5311
     9.3113   9.5697   9.9622  10.0901  10.2530  10.6977  10.7452  10.9246
    11.1281  11.3266  11.3519  11.4015  11.4684  11.7770  11.8534  11.9302
    12.1597  12.2033  12.3068  12.3540  12.5223  12.5887  12.6684  12.6737
    12.7414  12.8329  12.9159  12.9534  12.9907  13.0142  13.0499  13.1226
    13.1736  13.1901  13.2672  13.2824  13.3505  13.3631  13.4122  13.4562
    13.5003  13.5167  13.5996  13.6797  13.7213  13.7399  13.7766  13.8794
    13.9104  13.9629

     occupation numbers 
     1.0000   1.0000   1.0000   1.0000   1.0000   1.0000   1.0000   1.0000
     1.0000   1.0000   1.0000   1.0000   1.0000   1.0000   1.0000   1.0000
     1.0000   1.0000   1.0000   1.0000   1.0000   1.0000   1.0000   1.0000
     1.0000   1.0000   1.0000   1.0000   1.0000   1.0000   1.0000   1.0000
     1.0000   1.0000   1.0000   1.0000   1.0000   1.0000   1.0000   1.0000
     1.0000   1.0000   1.0000   1.0000   1.0000   1.0000   1.0000   1.0000
     1.0000   1.0000   1.0000   1.0000   1.0000   1.0000   1.0000   1.0000
     1.0000   1.0000   1.0000   1.0000   1.0000   1.0000   1.0000   1.0000
     1.0000   1.0000   1.0000   1.0000   1.0000   1.0000   1.0000   1.0000
     1.0000   1.0000   1.0000   1.0000   1.0000   1.0000   1.0000   1.0000
     1.0000   1.0000   1.0000   1.0000   1.0000   1.0000   1.0000   1.0000
     1.0000   1.0000   1.0000   1.0000   1.0000   1.0000   1.0000   1.0000
     1.0000   1.0000   1.0000   1.0000   1.0000   1.0000   1.0000   1.0000
     1.0000   1.0000   1.0000   1.0000   1.0000   1.0000   1.0000   1.0000
     1.0000   1.0000   1.0000   1.0000   1.0000   1.0000   1.0000   1.0000
     1.0000   1.0000   1.0000   1.0000   1.0000   1.0000   1.0000   1.0000
     1.0000   1.0000   1.0000   1.0000   1.0000   1.0000   1.0000   1.0000
     1.0000   1.0000   1.0000   1.0000   1.0000   1.0000   1.0000   1.0000
     1.0000   1.0000   1.0000   1.0000   1.0000   1.0000   1.0000   1.0000
     1.0000   1.0000   1.0000   1.0000   1.0000   1.0000   1.0000   1.0000
     1.0000   1.0000   1.0000   1.0000   1.0000   1.0000   1.0000   1.0000
     1.0000   1.0000   1.0000   1.0000   1.0000   1.0000   1.0000   1.0000
     1.0000   1.0000   1.0000   1.0000   1.0000   1.0000   1.0000   1.0000
     1.0000   1.0000   1.0000   1.0000   1.0000   1.0000   1.0000   1.0000
     1.0000   1.0000   1.0000   1.0000   1.0000   1.0000   1.0000   1.0000
     1.0000   1.0000   1.0000   1.0000   1.0000   1.0000   1.0000   1.0000
     1.0000   1.0000   1.0000   1.0000   1.0000   1.0000   1.0000   1.0000
     1.0000   1.0000   1.0000   1.0000   1.0000   1.0000   1.0000   1.0000
     1.0000   1.0000   1.0000   1.0000   1.0000   1.0000   1.0000   1.0000
     1.0000   1.0000   1.0000   1.0000   1.0000   1.0000   1.0000   1.0000
     1.0000   1.0000   1.0000   1.0000   1.0000   1.0000   1.0000   1.0000
     1.0000   1.0000   1.0000   1.0000   1.0000   1.0000   1.0000   1.0000
     1.0000   1.0000   1.0000   1.0000   1.0000   1.0000   0.0000   0.0000
     0.0000   0.0000   0.0000   0.0000   0.0000   0.0000   0.0000   0.0000
     0.0000   0.0000   0.0000   0.0000   0.0000   0.0000   0.0000   0.0000
     0.0000   0.0000   0.0000   0.0000   0.0000   0.0000   0.0000   0.0000
     0.0000   0.0000   0.0000   0.0000   0.0000   0.0000   0.0000   0.0000
     0.0000   0.0000   0.0000   0.0000   0.0000   0.0000   0.0000   0.0000
     0.0000   0.0000   0.0000   0.0000   0.0000   0.0000   0.0000   0.0000
     0.0000   0.0000

          k = 0.3334 0.0000 0.0590 ( 53745 PWs)   bands (ev):

   -81.6203 -77.4791 -67.8937 -67.8937 -67.8865 -67.8864 -67.8215 -67.8215
   -67.3903 -67.3903 -67.3672 -67.3669 -48.6311 -47.5160 -46.8764 -43.9450
   -43.6104 -43.3500 -34.6640 -34.6620 -34.6544 -34.6510 -34.6456 -34.6441
   -34.6356 -34.6353 -34.6335 -34.6330 -34.6237 -34.6235 -34.5828 -34.5826
   -34.5801 -34.5799 -34.5544 -34.5543 -34.1621 -34.1612 -34.1557 -34.1546
   -34.1372 -34.1368 -34.1194 -34.1191 -34.1102 -34.1095 -34.1030 -34.1020
   -23.5185 -23.5183 -23.5162 -23.5161 -15.2106 -15.1666 -15.0530 -15.0130
   -14.4844 -14.4564 -14.3692 -14.3358 -14.0665 -14.0391 -13.9434 -13.9201
   -13.5757 -13.4844 -13.4684 -13.4380 -13.3805 -13.3350 -13.3124 -13.2929
   -13.1868 -13.1670 -13.1593 -13.1212 -13.0954 -13.0777 -13.0716 -13.0664
   -12.9936 -12.9930 -12.9122 -12.8988 -12.8185 -12.7678 -12.7566 -12.7027
   -12.6736 -12.6139 -12.5918 -12.5532 -12.4626 -12.4439 -12.3461 -12.3373
   -11.6377 -11.5322 -11.4256 -11.3205  -7.0723  -7.0710  -7.0603  -7.0552
    -6.9961  -6.9945  -6.9899  -6.9868  -6.9814  -6.9807  -6.9805  -6.9774
    -4.3684  -4.3242  -3.9602  -3.9005  -2.7649  -2.6630  -2.6362  -2.5494
    -2.0576  -2.0491  -1.9091  -1.6916  -1.6665  -1.6491  -1.6050  -1.5331
    -1.1372  -1.1135  -1.0573  -0.9767  -0.9400  -0.9300  -0.9240  -0.8738
    -0.6614  -0.6360  -0.5932  -0.5623  -0.5439  -0.4666  -0.4152  -0.3925
    -0.3432  -0.2261  -0.1466  -0.1442  -0.0718  -0.0050   0.1661   0.1920
     0.2555   0.2846   0.3740   0.3899   0.4082   0.4102   0.4973   0.5528
     0.7168   0.7926   0.8247   0.8680   0.8802   0.9511   0.9740   1.0040
     1.0935   1.1497   1.1928   1.2221   1.2666   1.2999   1.3229   1.3426
     1.3605   1.4299   1.4399   1.5660   1.6520   1.6789   1.6948   1.7373
     1.8146   1.8201   1.9600   2.0157   2.0204   2.0769   2.0855   2.1228
     2.1396   2.1623   2.1818   2.2435   2.2849   2.3179   2.3797   2.3899
     2.4119   2.4333   2.4509   2.4782   2.4893   2.4916   2.5501   2.6035
     2.6116   2.6619   2.6694   2.6758   2.7161   2.7755   2.7864   2.8178
     2.8481   2.8889   2.9100   2.9309   2.9469   2.9698   2.9866   3.0120
     3.0371   3.0754   3.1019   3.1118   3.1523   3.1715   3.2121   3.2356
     3.2636   3.3030   3.3312   3.3437   3.3961   3.4117   3.4287   3.4408
     3.4668   3.4829   3.5281   3.5442   3.5790   3.5885   3.5976   3.6296
     3.6564   3.6944   3.7178   3.8129   3.8440   3.9220   3.9937   4.0340
     4.8554   4.9148   6.0721   6.4461   6.6505   7.9037   8.4232   8.5328
     8.9892   9.6164   9.7455  10.0768  10.3560  10.7580  10.9046  11.0360
    11.2783  11.4900  11.5038  11.5677  11.6474  11.7701  11.8612  12.0002
    12.1514  12.2441  12.3046  12.3273  12.3674  12.5151  12.5882  12.6288
    12.6782  12.6963  12.8105  12.8440  12.9111  12.9572  13.1168  13.1544
    13.1630  13.1880  13.2288  13.2584  13.2825  13.2873  13.3227  13.3441
    13.4078  13.5397  13.6486  13.6885  13.6999  13.7369  13.8137  13.8772
    13.9357  14.0006

     occupation numbers 
     1.0000   1.0000   1.0000   1.0000   1.0000   1.0000   1.0000   1.0000
     1.0000   1.0000   1.0000   1.0000   1.0000   1.0000   1.0000   1.0000
     1.0000   1.0000   1.0000   1.0000   1.0000   1.0000   1.0000   1.0000
     1.0000   1.0000   1.0000   1.0000   1.0000   1.0000   1.0000   1.0000
     1.0000   1.0000   1.0000   1.0000   1.0000   1.0000   1.0000   1.0000
     1.0000   1.0000   1.0000   1.0000   1.0000   1.0000   1.0000   1.0000
     1.0000   1.0000   1.0000   1.0000   1.0000   1.0000   1.0000   1.0000
     1.0000   1.0000   1.0000   1.0000   1.0000   1.0000   1.0000   1.0000
     1.0000   1.0000   1.0000   1.0000   1.0000   1.0000   1.0000   1.0000
     1.0000   1.0000   1.0000   1.0000   1.0000   1.0000   1.0000   1.0000
     1.0000   1.0000   1.0000   1.0000   1.0000   1.0000   1.0000   1.0000
     1.0000   1.0000   1.0000   1.0000   1.0000   1.0000   1.0000   1.0000
     1.0000   1.0000   1.0000   1.0000   1.0000   1.0000   1.0000   1.0000
     1.0000   1.0000   1.0000   1.0000   1.0000   1.0000   1.0000   1.0000
     1.0000   1.0000   1.0000   1.0000   1.0000   1.0000   1.0000   1.0000
     1.0000   1.0000   1.0000   1.0000   1.0000   1.0000   1.0000   1.0000
     1.0000   1.0000   1.0000   1.0000   1.0000   1.0000   1.0000   1.0000
     1.0000   1.0000   1.0000   1.0000   1.0000   1.0000   1.0000   1.0000
     1.0000   1.0000   1.0000   1.0000   1.0000   1.0000   1.0000   1.0000
     1.0000   1.0000   1.0000   1.0000   1.0000   1.0000   1.0000   1.0000
     1.0000   1.0000   1.0000   1.0000   1.0000   1.0000   1.0000   1.0000
     1.0000   1.0000   1.0000   1.0000   1.0000   1.0000   1.0000   1.0000
     1.0000   1.0000   1.0000   1.0000   1.0000   1.0000   1.0000   1.0000
     1.0000   1.0000   1.0000   1.0000   1.0000   1.0000   1.0000   1.0000
     1.0000   1.0000   1.0000   1.0000   1.0000   1.0000   1.0000   1.0000
     1.0000   1.0000   1.0000   1.0000   1.0000   1.0000   1.0000   1.0000
     1.0000   1.0000   1.0000   1.0000   1.0000   1.0000   1.0000   1.0000
     1.0000   1.0000   1.0000   1.0000   1.0000   1.0000   1.0000   1.0000
     1.0000   1.0000   1.0000   1.0000   1.0000   1.0000   1.0000   1.0000
     1.0000   1.0000   1.0000   1.0000   1.0000   1.0000   1.0000   1.0000
     1.0000   1.0000   1.0000   1.0000   1.0000   1.0000   1.0000   1.0000
     1.0000   1.0000   1.0000   1.0000   1.0000   1.0000   1.0000   1.0000
     1.0000   1.0000   1.0000   1.0000   1.0000   1.0000   0.0000   0.0000
     0.0000   0.0000   0.0000   0.0000   0.0000   0.0000   0.0000   0.0000
     0.0000   0.0000   0.0000   0.0000   0.0000   0.0000   0.0000   0.0000
     0.0000   0.0000   0.0000   0.0000   0.0000   0.0000   0.0000   0.0000
     0.0000   0.0000   0.0000   0.0000   0.0000   0.0000   0.0000   0.0000
     0.0000   0.0000   0.0000   0.0000   0.0000   0.0000   0.0000   0.0000
     0.0000   0.0000   0.0000   0.0000   0.0000   0.0000   0.0000   0.0000
     0.0000   0.0000

          k = 0.3334 0.0000 0.4062 ( 53754 PWs)   bands (ev):

   -81.6203 -77.4791 -67.8937 -67.8937 -67.8865 -67.8864 -67.8215 -67.8215
   -67.3903 -67.3903 -67.3672 -67.3669 -48.6311 -47.5160 -46.8764 -43.9450
   -43.6104 -43.3499 -34.6640 -34.6620 -34.6544 -34.6510 -34.6456 -34.6441
   -34.6356 -34.6353 -34.6335 -34.6330 -34.6237 -34.6235 -34.5828 -34.5826
   -34.5801 -34.5799 -34.5544 -34.5543 -34.1621 -34.1612 -34.1557 -34.1546
   -34.1372 -34.1368 -34.1194 -34.1191 -34.1102 -34.1095 -34.1030 -34.1020
   -23.5185 -23.5183 -23.5162 -23.5161 -15.1981 -15.1797 -15.0486 -15.0177
   -14.4765 -14.4646 -14.3608 -14.3446 -14.0616 -14.0442 -13.9396 -13.9240
   -13.5695 -13.4837 -13.4740 -13.4412 -13.3756 -13.3313 -13.3197 -13.2924
   -13.1837 -13.1637 -13.1590 -13.1179 -13.1046 -13.0814 -13.0747 -13.0614
   -12.9930 -12.9876 -12.9139 -12.9020 -12.8116 -12.7706 -12.7590 -12.7079
   -12.6592 -12.6254 -12.5874 -12.5577 -12.4549 -12.4373 -12.3526 -12.3429
   -11.6371 -11.5316 -11.4263 -11.3212  -7.0724  -7.0711  -7.0603  -7.0552
    -6.9960  -6.9945  -6.9899  -6.9868  -6.9813  -6.9807  -6.9804  -6.9774
    -4.3719  -4.3209  -3.9359  -3.9256  -2.7567  -2.6727  -2.6199  -2.5692
    -2.0394  -2.0310  -1.9217  -1.7190  -1.6608  -1.6354  -1.5893  -1.5303
    -1.1338  -1.1030  -1.0589  -0.9690  -0.9389  -0.9289  -0.9192  -0.8563
    -0.6720  -0.6417  -0.5785  -0.5647  -0.5310  -0.5137  -0.4824  -0.4344
    -0.3458  -0.2018  -0.1697  -0.1097  -0.1079   0.0229   0.1266   0.1412
     0.2733   0.2790   0.3528   0.3835   0.3949   0.4361   0.5070   0.5989
     0.7246   0.7931   0.8472   0.8611   0.8774   0.9747   0.9904   1.0249
     1.1080   1.1098   1.2050   1.2208   1.2665   1.2972   1.3415   1.3860
     1.3908   1.4056   1.4667   1.5769   1.6589   1.7017   1.7192   1.7474
     1.8065   1.9214   1.9492   1.9895   2.0249   2.0399   2.0713   2.0973
     2.1386   2.1543   2.1782   2.2374   2.2749   2.3096   2.3231   2.3831
     2.3922   2.4243   2.4359   2.4553   2.4864   2.5102   2.5620   2.5884
     2.6014   2.6262   2.6505   2.6829   2.7287   2.7778   2.8024   2.8466
     2.8624   2.8887   2.8954   2.9180   2.9399   2.9830   3.0022   3.0152
     3.0629   3.0801   3.0966   3.1116   3.1495   3.2002   3.2196   3.2334
     3.2767   3.3091   3.3269   3.3495   3.3887   3.4066   3.4182   3.4386
     3.4463   3.4736   3.4880   3.5089   3.5158   3.5759   3.5944   3.6331
     3.6442   3.6816   3.7680   3.8422   3.8837   3.9321   4.0143   4.0384
     4.8531   4.9151   6.0725   6.4412   6.6518   7.9046   8.4219   8.5324
     9.3349   9.6086   9.7769   9.8106  10.1309  10.6436  10.9542  11.1578
    11.3211  11.3935  11.4085  11.6248  11.7036  11.7587  11.8938  11.9412
    12.1194  12.2224  12.2985  12.4155  12.4503  12.4948  12.5813  12.6663
    12.7163  12.7813  12.8805  12.9394  12.9722  12.9813  13.0233  13.0482
    13.1386  13.1963  13.2125  13.2554  13.2726  13.2941  13.3040  13.3967
    13.4143  13.5195  13.5590  13.5811  13.6667  13.6899  13.7692  13.8676
    13.9004  14.0182

     occupation numbers 
     1.0000   1.0000   1.0000   1.0000   1.0000   1.0000   1.0000   1.0000
     1.0000   1.0000   1.0000   1.0000   1.0000   1.0000   1.0000   1.0000
     1.0000   1.0000   1.0000   1.0000   1.0000   1.0000   1.0000   1.0000
     1.0000   1.0000   1.0000   1.0000   1.0000   1.0000   1.0000   1.0000
     1.0000   1.0000   1.0000   1.0000   1.0000   1.0000   1.0000   1.0000
     1.0000   1.0000   1.0000   1.0000   1.0000   1.0000   1.0000   1.0000
     1.0000   1.0000   1.0000   1.0000   1.0000   1.0000   1.0000   1.0000
     1.0000   1.0000   1.0000   1.0000   1.0000   1.0000   1.0000   1.0000
     1.0000   1.0000   1.0000   1.0000   1.0000   1.0000   1.0000   1.0000
[...]
     atom   10 type  6   force =    -0.00001728   -0.00003537    0.00002166
     atom   11 type  6   force =    -0.00000000   -0.00000835    0.00000000
     atom   12 type  6   force =    -0.00000000   -0.00002071    0.00000000
     atom   13 type  6   force =    -0.00000000    0.00003561    0.00000000
     atom   14 type  6   force =    -0.00000000    0.00015069   -0.00000000
     atom   15 type  2   force =    -0.00000000   -0.00009823    0.00000000
     atom   16 type  3   force =    -0.00000000   -0.00020454    0.00000000
     atom   17 type  8   force =     0.00001505   -0.00000299    0.00001150
     atom   18 type  8   force =     0.00001642    0.00001172    0.00000866
     atom   19 type  8   force =    -0.00001505   -0.00000299   -0.00001150
     atom   20 type  8   force =    -0.00001642    0.00001172   -0.00000866
     atom   21 type  8   force =    -0.00001984    0.00000270    0.00000971
     atom   22 type  8   force =    -0.00000430   -0.00000155    0.00002250
     atom   23 type  8   force =     0.00001984    0.00000270   -0.00000971
     atom   24 type  8   force =     0.00000430   -0.00000155   -0.00002250
     atom   25 type  8   force =    -0.00001512   -0.00000004   -0.00003746
     atom   26 type  8   force =    -0.00002357   -0.00002966   -0.00000477
     atom   27 type  8   force =     0.00001512   -0.00000004    0.00003746
     atom   28 type  8   force =     0.00002357   -0.00002966    0.00000477
     atom   29 type  1   force =     0.00000872    0.00000085    0.00000920
     atom   30 type  1   force =     0.00002307    0.00000968   -0.00000868
     atom   31 type  1   force =    -0.00000872    0.00000085   -0.00000920
     atom   32 type  1   force =    -0.00002307    0.00000968    0.00000868
     atom   33 type  7   force =     0.00000541    0.00004604    0.00000576
     atom   34 type  7   force =     0.00004277    0.00005515    0.00002054
     atom   35 type  7   force =    -0.00000541    0.00004604   -0.00000576
     atom   36 type  7   force =    -0.00004277    0.00005515   -0.00002054
     atom   37 type  7   force =    -0.00001849   -0.00000744    0.00000825
     atom   38 type  7   force =    -0.00000012   -0.00000142    0.00002163
     atom   39 type  7   force =     0.00001849   -0.00000744   -0.00000825
     atom   40 type  7   force =     0.00000012   -0.00000142   -0.00002163
     atom   41 type  7   force =    -0.00006226   -0.00007172    0.00005584
     atom   42 type  7   force =    -0.00006867   -0.00012150    0.00003734
     atom   43 type  7   force =     0.00006226   -0.00007172   -0.00005584
     atom   44 type  7   force =     0.00006867   -0.00012150   -0.00003734
     atom   45 type  7   force =     0.00006721    0.00009377   -0.00011654
     atom   46 type  7   force =     0.00015605    0.00006216   -0.00010003
     atom   47 type  7   force =    -0.00006721    0.00009377    0.00011654
     atom   48 type  7   force =    -0.00015604    0.00006216    0.00010003
     atom   49 type  7   force =     0.00000537    0.00000779    0.00001716
     atom   50 type  7   force =     0.00001218    0.00003013    0.00003210
     atom   51 type  7   force =    -0.00000537    0.00000779   -0.00001716
     atom   52 type  7   force =    -0.00001218    0.00003013   -0.00003210
     atom   53 type  7   force =     0.00000726    0.00000278   -0.00000778
     atom   54 type  7   force =    -0.00000312    0.00000154   -0.00000838
     atom   55 type  7   force =    -0.00000726    0.00000278    0.00000778
     atom   56 type  7   force =     0.00000312    0.00000154    0.00000838
     atom   57 type  7   force =    -0.00000062    0.00000027    0.00001332
     atom   58 type  7   force =     0.00001195   -0.00001178    0.00001384
     atom   59 type  7   force =     0.00000062    0.00000027   -0.00001332
     atom   60 type  7   force =    -0.00001195   -0.00001178   -0.00001384
     atom   61 type  7   force =     0.00000139    0.00000100   -0.00002768
     atom   62 type  7   force =     0.00001358   -0.00000509   -0.00000542
     atom   63 type  7   force =    -0.00000139    0.00000100    0.00002768
     atom   64 type  7   force =    -0.00001358   -0.00000509    0.00000542
     atom   65 type  7   force =    -0.00001406   -0.00000499   -0.00001071
     atom   66 type  7   force =    -0.00002067   -0.00003404    0.00003403
     atom   67 type  7   force =     0.00001406   -0.00000499    0.00001071
     atom   68 type  7   force =     0.00002067   -0.00003404   -0.00003403
     atom   69 type  7   force =    -0.00002425    0.00000260   -0.00000711
     atom   70 type  7   force =     0.00002922   -0.00000025   -0.00002369
     atom   71 type  7   force =     0.00002425    0.00000260    0.00000711
     atom   72 type  7   force =    -0.00002922   -0.00000025    0.00002369
     atom   73 type  7   force =     0.00011655   -0.00002724    0.00007544
     atom   74 type  7   force =     0.00010916   -0.00005836    0.00001737
     atom   75 type  7   force =    -0.00011655   -0.00002724   -0.00007544
     atom   76 type  7   force =    -0.00010916   -0.00005836   -0.00001737
     atom   77 type  7   force =    -0.00001604    0.00002049    0.00000391
     atom   78 type  7   force =    -0.00000439    0.00004940   -0.00001039
     atom   79 type  7   force =     0.00001604    0.00002049   -0.00000391
     atom   80 type  7   force =     0.00000439    0.00004940    0.00001039
     atom   81 type  4   force =     0.00000960   -0.00000316   -0.00000511
     atom   82 type  4   force =     0.00001194   -0.00000604    0.00000233
     atom   83 type  4   force =    -0.00000960   -0.00000316    0.00000511
     atom   84 type  4   force =    -0.00001194   -0.00000604   -0.00000233
     atom   85 type  4   force =    -0.00000190    0.00000159   -0.00000003
     atom   86 type  4   force =    -0.00000097    0.00000595   -0.00000271
     atom   87 type  4   force =     0.00000190    0.00000159    0.00000003
     atom   88 type  4   force =     0.00000097    0.00000595    0.00000271

     DFT-D3 dispersion contribution to forces:
     atom    1 type  5   force =     0.00000012    0.00107879    0.00000005
     atom    2 type  5   force =    -0.00000011    0.00107879   -0.00000005
     atom    3 type  5   force =     0.00000000   -0.00098831    0.00000000
     atom    4 type  5   force =     0.00000000   -0.00098839    0.00000000
     atom    5 type  6   force =     0.00000015    0.00030367   -0.00000003
     atom    6 type  6   force =    -0.00000015    0.00030367    0.00000003
     atom    7 type  6   force =     0.00000002    0.00085878    0.00000004
     atom    8 type  6   force =    -0.00000002    0.00085878   -0.00000004
     atom    9 type  6   force =     0.00000025   -0.00122034    0.00000009
     atom   10 type  6   force =    -0.00000025   -0.00122034   -0.00000009
     atom   11 type  6   force =     0.00000000    0.00111540   -0.00000000
     atom   12 type  6   force =    -0.00000000    0.00111547   -0.00000000
     atom   13 type  6   force =     0.00000000   -0.00033463   -0.00000000
     atom   14 type  6   force =    -0.00000000   -0.00033432   -0.00000000
     atom   15 type  2   force =    -0.00000000   -0.00061609   -0.00000000
     atom   16 type  3   force =    -0.00000000   -0.00061646   -0.00000000
     atom   17 type  8   force =     0.00004437   -0.00016112   -0.00032467
     atom   18 type  8   force =     0.00004437   -0.00016112   -0.00032467
     atom   19 type  8   force =    -0.00004437   -0.00016112    0.00032467
     atom   20 type  8   force =    -0.00004437   -0.00016112    0.00032467
     atom   21 type  8   force =     0.00002467    0.00015741    0.00026463
     atom   22 type  8   force =     0.00002465    0.00015741    0.00026468
     atom   23 type  8   force =    -0.00002467    0.00015741   -0.00026463
     atom   24 type  8   force =    -0.00002465    0.00015741   -0.00026468
     atom   25 type  8   force =    -0.00010057    0.00010100   -0.00001615
     atom   26 type  8   force =    -0.00010057    0.00010097   -0.00001616
     atom   27 type  8   force =     0.00010057    0.00010100    0.00001615
     atom   28 type  8   force =     0.00010057    0.00010097    0.00001616
     atom   29 type  1   force =     0.00012447    0.00016220   -0.00107099
     atom   30 type  1   force =     0.00012441    0.00016216   -0.00107101
     atom   31 type  1   force =    -0.00012447    0.00016220    0.00107099
     atom   32 type  1   force =    -0.00012441    0.00016216    0.00107101
     atom   33 type  7   force =    -0.00002076    0.00001277    0.00043843
     atom   34 type  7   force =    -0.00002073    0.00001274    0.00043849
     atom   35 type  7   force =     0.00002076    0.00001277   -0.00043843
     atom   36 type  7   force =     0.00002073    0.00001274   -0.00043849
     atom   37 type  7   force =     0.00001526    0.00004318   -0.00038969
     atom   38 type  7   force =     0.00001522    0.00004318   -0.00038977
     atom   39 type  7   force =    -0.00001526    0.00004318    0.00038969
     atom   40 type  7   force =    -0.00001522    0.00004318    0.00038977
     atom   41 type  7   force =    -0.00004031   -0.00008156    0.00046850
     atom   42 type  7   force =    -0.00004030   -0.00008150    0.00046846
     atom   43 type  7   force =     0.00004031   -0.00008156   -0.00046850
     atom   44 type  7   force =     0.00004030   -0.00008150   -0.00046846
     atom   45 type  7   force =    -0.00002045    0.00003434    0.00005434
     atom   46 type  7   force =    -0.00002045    0.00003429    0.00005439
     atom   47 type  7   force =     0.00002045    0.00003434   -0.00005434
     atom   48 type  7   force =     0.00002045    0.00003429   -0.00005439
     atom   49 type  7   force =    -0.00018546    0.00098877    0.00031680
     atom   50 type  7   force =    -0.00018542    0.00098876    0.00031682
     atom   51 type  7   force =     0.00018546    0.00098877   -0.00031680
     atom   52 type  7   force =     0.00018542    0.00098876   -0.00031682
     atom   53 type  7   force =     0.00083800    0.00007110    0.00019913
     atom   54 type  7   force =     0.00083799    0.00007111    0.00019912
     atom   55 type  7   force =    -0.00083800    0.00007110   -0.00019913
     atom   56 type  7   force =    -0.00083799    0.00007111   -0.00019912
     atom   57 type  7   force =     0.00032611   -0.00049091    0.00005348
     atom   58 type  7   force =     0.00032602   -0.00049088    0.00005348
     atom   59 type  7   force =    -0.00032611   -0.00049091   -0.00005348
     atom   60 type  7   force =    -0.00032602   -0.00049088   -0.00005348
     atom   61 type  7   force =    -0.00018205    0.00032228   -0.00009993
     atom   62 type  7   force =    -0.00018210    0.00032230   -0.00009987
     atom   63 type  7   force =     0.00018205    0.00032227    0.00009993
     atom   64 type  7   force =     0.00018210    0.00032230    0.00009988
     atom   65 type  7   force =     0.00091889   -0.00044263    0.00040367
     atom   66 type  7   force =     0.00091894   -0.00044262    0.00040367
     atom   67 type  7   force =    -0.00091889   -0.00044263   -0.00040367
     atom   68 type  7   force =    -0.00091894   -0.00044262   -0.00040367
     atom   69 type  7   force =     0.00065306   -0.00054045   -0.00046038
     atom   70 type  7   force =     0.00065303   -0.00054042   -0.00046044
     atom   71 type  7   force =    -0.00065306   -0.00054045    0.00046038
     atom   72 type  7   force =    -0.00065304   -0.00054042    0.00046044
     atom   73 type  7   force =     0.00013981   -0.00001458   -0.00044943
     atom   74 type  7   force =     0.00013973   -0.00001458   -0.00044950
     atom   75 type  7   force =    -0.00013981   -0.00001458    0.00044943
     atom   76 type  7   force =    -0.00013973   -0.00001458    0.00044950
     atom   77 type  7   force =     0.00001337    0.00005622   -0.00051155
     atom   78 type  7   force =     0.00001338    0.00005621   -0.00051153
     atom   79 type  7   force =    -0.00001337    0.00005622    0.00051155
     atom   80 type  7   force =    -0.00001338    0.00005621    0.00051153
     atom   81 type  4   force =    -0.00002869    0.00005771   -0.00012152
     atom   82 type  4   force =    -0.00002883    0.00005781   -0.00012129
     atom   83 type  4   force =     0.00002869    0.00005771    0.00012152
     atom   84 type  4   force =     0.00002883    0.00005781    0.00012129
     atom   85 type  4   force =     0.00001950   -0.00037440   -0.00033550
     atom   86 type  4   force =     0.00001954   -0.00037437   -0.00033546
     atom   87 type  4   force =    -0.00001950   -0.00037440    0.00033550
     atom   88 type  4   force =    -0.00001954   -0.00037437    0.00033546

     Total force =     0.003360     Total SCF correction =     0.000637

     DFT-D3 dispersion Force =     0.006439
     SCF correction compared to forces is large: reduce conv_thr to get better values


     Computing stress (Cartesian axis) and pressure


     negative rho (up, down):  4.810E-04 4.811E-04
          total   stress  (Ry/bohr**3)                   (kbar)     P=       -0.12
  -0.00000098   0.00000000   0.00000013           -0.14        0.00        0.02
   0.00000000  -0.00000189   0.00000000            0.00       -0.28        0.00
   0.00000013   0.00000000   0.00000036            0.02        0.00        0.05

     kinetic stress (kbar)  20102.13      0.00     18.99
                                0.00  20020.32      0.00
                               18.99      0.00  19848.50

     local   stress (kbar) -40452.63      0.00    148.90
                                0.00 -40283.22      0.00
                              148.90      0.00  19338.23

     nonloc. stress (kbar)   3793.25      0.00      0.49
                                0.00   3795.09      0.00
                                0.49      0.00   3771.66

     hartree stress (kbar)  22801.81     -0.00    -56.28
                               -0.00  22724.95     -0.00
                              -56.28     -0.00  -6432.08

     exc-cor stress (kbar)  -2815.98      0.00     -0.09
                                0.00  -2816.37     -0.00
                               -0.09     -0.00  -2812.75

     corecor stress (kbar)  -1854.92     -0.00     -0.06
                               -0.00  -1854.43      0.00
                               -0.06      0.00  -1856.61

     ewald   stress (kbar)  -1559.28     -0.00   -112.09
                               -0.00  -1571.88     -0.00
                             -112.09     -0.00 -31845.97

     hubbard stress (kbar)      0.00      0.00      0.00
                                0.00      0.00      0.00
                                0.00      0.00      0.00

     DFT-D   stress (kbar)    -14.53     -0.00      0.16
                               -0.00    -14.75      0.00
                                0.16      0.00    -10.92

     XDM     stress (kbar)      0.00      0.00      0.00
                                0.00      0.00      0.00
                                0.00      0.00      0.00

     dft-nl  stress (kbar)      0.00      0.00      0.00
                                0.00      0.00      0.00
                                0.00      0.00      0.00

     TS-vdW  stress (kbar)      0.00      0.00      0.00
                                0.00      0.00      0.00
                                0.00      0.00      0.00

     MDB     stress (kbar)      0.00      0.00      0.00
                                0.00      0.00      0.00
                                0.00      0.00      0.00

     3D-RISM stress (kbar)      0.00      0.00      0.00
                                0.00      0.00      0.00
                                0.00      0.00      0.00


     Writing all to output data dir ./temp/phl-fe1-fe4x2.save/ :
     XML data file, charge density, pseudopotentials, collected wavefunctions

     init_run     :   1217.87s CPU   1226.91s WALL (       2 calls)
     electrons    : 165577.51s CPU 166418.15s WALL (       2 calls)
     forces       :    995.21s CPU    998.92s WALL (       2 calls)
     force_dftd3  :     16.75s CPU     16.82s WALL (       2 calls)
     stress       :   3516.24s CPU   3532.91s WALL (       2 calls)
     stres_dftd3  :     16.75s CPU     16.82s WALL (       2 calls)

     Called by init_run:
     wfcinit      :   1172.66s CPU   1178.67s WALL (       2 calls)
     wfcinit:atom :      0.99s CPU      1.68s WALL (      40 calls)
     wfcinit:wfcr :   1162.91s CPU   1167.44s WALL (      40 calls)
     potinit      :     13.16s CPU     13.49s WALL (       2 calls)
     hinit0       :      5.15s CPU      5.25s WALL (       2 calls)

     Called by electrons:
     c_bands      : 151583.15s CPU 152161.20s WALL (      78 calls)
     sum_band     :  12524.38s CPU  12691.86s WALL (      78 calls)
     v_of_rho     :     67.89s CPU     69.26s WALL (      79 calls)
     v_h          :      2.29s CPU      2.39s WALL (      79 calls)
     v_xc         :     68.84s CPU     70.34s WALL (      83 calls)
     newd         :   1011.48s CPU   1107.11s WALL (      79 calls)
     PAW_pot      :    395.94s CPU    396.06s WALL (      79 calls)
     mix_rho      :     13.63s CPU     13.98s WALL (      78 calls)
     energy_dftd3 :     13.13s CPU     13.14s WALL (       2 calls)

     Called by c_bands:
     init_us_2    :    223.65s CPU    223.86s WALL (    3240 calls)
     cegterg      : 151112.94s CPU 151690.54s WALL (    1618 calls)

     Called by sum_band:
     sum_band:wei :      0.11s CPU      0.11s WALL (      78 calls)
     sum_band:loo :  10505.71s CPU  10555.30s WALL (      78 calls)
     sum_band:buf :     28.13s CPU     28.16s WALL (    1560 calls)
     sum_band:ini :    108.17s CPU    108.20s WALL (    1560 calls)
     sum_band:cal :   8516.01s CPU   8518.93s WALL (    1560 calls)
     sum_band:bec :     10.62s CPU     10.63s WALL (    1560 calls)
     addusdens    :   2001.78s CPU   2119.03s WALL (      78 calls)
                                        0.00s GPU  (      78 calls)
     addusd:skk   :      7.76s CPU     12.91s WALL (     624 calls)
                                        0.00s GPU  (     624 calls)

     Called by *egterg:
     cdiaghg      :   4036.20s CPU   4093.15s WALL (    8924 calls)
     cegterg:over :  19990.50s CPU  19997.31s WALL (    7384 calls)
     cegterg:upda :  11286.84s CPU  11321.66s WALL (    7384 calls)
     cegterg:last :  31192.81s CPU  31206.80s WALL (    3882 calls)
     cdiaghg:chol :    113.23s CPU    113.28s WALL (    8924 calls)
     cdiaghg:inve :     98.06s CPU     98.09s WALL (    8924 calls)
     cdiaghg:para :   1951.18s CPU   1965.42s WALL (   17848 calls)
     h_psi        :  56083.52s CPU  56438.74s WALL (    9042 calls)
     s_psi        :  24332.08s CPU  24336.37s WALL (    9042 calls)
     g_psi        :     54.07s CPU     54.10s WALL (    7384 calls)

     Called by h_psi:
     h_psi:calbec :  23755.94s CPU  23767.95s WALL (    9042 calls)
     vloc_psi     :   7921.86s CPU   8215.79s WALL (    9042 calls)
     add_vuspsi   :  24357.59s CPU  24363.12s WALL (    9042 calls)

     General routines
     calbec       :  33436.19s CPU  33451.87s WALL (   10802 calls)
     fft          :     37.55s CPU     39.65s WALL (    2053 calls)
     ffts         :      1.62s CPU      1.77s WALL (     314 calls)
     fftw         :   6191.57s CPU   6421.76s WALL ( 3214904 calls)
     interpolate  :      4.47s CPU      4.69s WALL (     158 calls)

     Parallel routines

     PAW routines
     PAW_pot      :    395.94s CPU    396.06s WALL (      79 calls)
     PAW_symme    :      0.11s CPU      0.12s WALL (     156 calls)

     PWSCF        :   1d23h35m CPU   1d23h50m WALL


   This run was terminated on:  10:58: 2  11Jan2025            

=------------------------------------------------------------------------------=
   JOB DONE.
=------------------------------------------------------------------------------=
