
     Program PWSCF v.7.3.1 starts on 16Jan2025 at 16: 3:12 

     This program is part of the open-source Quantum ESPRESSO suite
     for quantum simulation of materials; please cite
         "P. Giannozzi et al., J. Phys.:Condens. Matter 21 395502 (2009);
         "P. Giannozzi et al., J. Phys.:Condens. Matter 29 465901 (2017);
         "P. Giannozzi et al., J. Chem. Phys. 152 154105 (2020);
          URL http://www.quantum-espresso.org", 
     in publications or presentations arising from this work. More details at
     http://www.quantum-espresso.org/quote

     Parallel version (MPI), running on     4 processors

     MPI processes distributed on     1 nodes
     14023 MiB available memory on the printing compute node when the environment starts

     Reading input from vc_relax.in

     Current dimensions of program PWSCF are:
     Max number of different atomic species (ntypx) = 10
     Max number of k-points (npk) =  40000
     Max angular momentum in pseudopotentials (lmaxx) =  4
     file Al.pbe-n-kjpaw_psl.1.0.0.UPF: wavefunction(s)  3S 3P renormalized
     file Fe.pbe-spn-kjpaw_psl.1.0.0.UPF: wavefunction(s)  3P 3D renormalized
     file H.pbe-kjpaw_psl.1.0.0.UPF: wavefunction(s)  1S renormalized
     file K.pbe-spn-kjpaw_psl.1.0.0.UPF: wavefunction(s)  3S renormalized
     file Mg.pbe-spnl-kjpaw_psl.1.0.0.UPF: wavefunction(s)  2P renormalized
     file O.pbe-n-kjpaw_psl.1.0.0.UPF: wavefunction(s)  2S 2P renormalized
     file Si.pbe-n-kjpaw_psl.1.0.0.UPF: wavefunction(s)  3S 3P renormalized

     R & G space division:  proc/nbgrp/npool/nimage =       4
     Subspace diagonalization in iterative solution of the eigenvalue problem:
     one sub-group per band group will be used
     custom distributed-memory algorithm (size of sub-group:  2*  2 procs)


     Parallelization info
     --------------------
     sticks:   dense  smooth     PW     G-vecs:    dense   smooth      PW
     Min        1658     832    225               146616    51868    7377
     Max        1659     833    227               146617    51870    7378
     Sum        6633    3329    905               586467   207475   29511

     Using Slab Decomposition



     bravais-lattice index     =          -12
     lattice parameter (alat)  =      10.0136  a.u.
     unit-cell volume          =    3303.4414 (a.u.)^3
     number of atoms/cell      =           44
     number of atomic types    =            7
     number of electrons       =       262.00
     number of Kohn-Sham states=          157
     kinetic-energy cutoff     =      60.0000  Ry
     charge density cutoff     =     480.0000  Ry
     scf convergence threshold =      1.0E-06
     mixing beta               =       0.7000
     number of iterations used =            8  plain     mixing
     energy convergence thresh.=      1.0E-04
     force convergence thresh. =      1.0E-03
     press convergence thresh. =      5.0E-01
     Exchange-correlation= SLA  PW   PBX  PBC
                           (   1   4   3   4   0   0   0)
     nstep                     =           50


     celldm(1)=  10.013640  celldm(2)=   1.735306  celldm(3)=   1.926511
     celldm(4)=   0.000000  celldm(5)=  -0.177565  celldm(6)=   0.000000

     crystal axes: (cart. coord. in units of alat)
               a(1) = (   1.000000   0.000000   0.000000 )  
               a(2) = (   0.000000   1.735306   0.000000 )  
               a(3) = (  -0.342081   0.000000   1.895896 )  

     reciprocal axes: (cart. coord. in units 2 pi/alat)
               b(1) = (  1.000000 -0.000000  0.180432 )  
               b(2) = (  0.000000  0.576267 -0.000000 )  
               b(3) = (  0.000000  0.000000  0.527455 )  


     PseudoPot. # 1 for Al read from file:
     ./../../../pseudos/Al.pbe-n-kjpaw_psl.1.0.0.UPF
     MD5 check sum: 502b6b27b9c6270cab5dd1084b96fa6d
     Pseudo is Projector augmented-wave + core cor, Zval =  3.0
     Generated using &quot;atomic&quot; code by A. Dal Corso  v.6.3
     Shape of augmentation charge: PSQ
     Using radial grid of 1135 points,  6 beta functions with: 
                l(1) =   0
                l(2) =   0
                l(3) =   1
                l(4) =   1
                l(5) =   2
                l(6) =   2
     Q(r) pseudized with 0 coefficients 


     PseudoPot. # 2 for Fe read from file:
     ./../../../pseudos/Fe.pbe-spn-kjpaw_psl.1.0.0.UPF
     MD5 check sum: fc81f059e5c5069939230b1155715ae8
     Pseudo is Projector augmented-wave + core cor, Zval = 16.0
     Generated using &quot;atomic&quot; code by A. Dal Corso  v.6.3
     Shape of augmentation charge: PSQ
     Using radial grid of 1191 points,  6 beta functions with: 
                l(1) =   0
                l(2) =   0
                l(3) =   1
                l(4) =   1
                l(5) =   2
                l(6) =   2
     Q(r) pseudized with 0 coefficients 


     PseudoPot. # 3 for H  read from file:
     ./../../../pseudos/H.pbe-kjpaw_psl.1.0.0.UPF
     MD5 check sum: d81a744832360e4a8af0b0b5b123bc2a
     Pseudo is Projector augmented-wave, Zval =  1.0
     Generated using &quot;atomic&quot; code by A. Dal Corso  v.6.3MaX
     Shape of augmentation charge: PSQ
     Using radial grid of  929 points,  2 beta functions with: 
                l(1) =   0
                l(2) =   0
     Q(r) pseudized with 0 coefficients 


     PseudoPot. # 4 for K  read from file:
     ./../../../pseudos/K.pbe-spn-kjpaw_psl.1.0.0.UPF
     MD5 check sum: 34cc42130a09071ebe376fd42eb21491
     Pseudo is Projector augmented-wave + core cor, Zval =  9.0
     Generated using &quot;atomic&quot; code by A. Dal Corso  v.6.2.2
     Shape of augmentation charge: PSQ
     Using radial grid of 1165 points,  6 beta functions with: 
                l(1) =   0
                l(2) =   0
                l(3) =   1
                l(4) =   1
                l(5) =   2
                l(6) =   2
     Q(r) pseudized with 0 coefficients 


     PseudoPot. # 5 for Mg read from file:
     ./../../../pseudos/Mg.pbe-spnl-kjpaw_psl.1.0.0.UPF
     MD5 check sum: fda14e0d92a6a9a5ebed782e5a4b3067
     Pseudo is Projector augmented-wave + core cor, Zval = 10.0
     Generated using &quot;atomic&quot; code by A. Dal Corso  v.6.3
     Shape of augmentation charge: PSQ
     Using radial grid of 1129 points,  4 beta functions with: 
                l(1) =   0
                l(2) =   0
                l(3) =   1
                l(4) =   1
     Q(r) pseudized with 0 coefficients 


     PseudoPot. # 6 for O  read from file:
     ./../../../pseudos/O.pbe-n-kjpaw_psl.1.0.0.UPF
     MD5 check sum: e99d9cef9b487d1ca56f5b95ecd0fd7a
     Pseudo is Projector augmented-wave + core cor, Zval =  6.0
     Generated using &quot;atomic&quot; code by A. Dal Corso  v.6.3
     Shape of augmentation charge: PSQ
     Using radial grid of 1095 points,  4 beta functions with: 
                l(1) =   0
                l(2) =   0
                l(3) =   1
                l(4) =   1
     Q(r) pseudized with 0 coefficients 


     PseudoPot. # 7 for Si read from file:
     ./../../../pseudos/Si.pbe-n-kjpaw_psl.1.0.0.UPF
     MD5 check sum: c39c59da582df4a0d9f10159256ea34e
     Pseudo is Projector augmented-wave + core cor, Zval =  4.0
     Generated using &quot;atomic&quot; code by A. Dal Corso  v.6.3
     Shape of augmentation charge: PSQ
     Using radial grid of 1141 points,  6 beta functions with: 
                l(1) =   0
                l(2) =   0
                l(3) =   1
                l(4) =   1
                l(5) =   2
                l(6) =   2
     Q(r) pseudized with 0 coefficients 


     atomic species   valence    mass     pseudopotential
     Al                3.00    26.98154     Al( 1.00)
     Fe               16.00    55.84500     Fe( 1.00)
     H                 1.00     1.00794     H ( 1.00)
     K                 9.00    39.09830     K ( 1.00)
     Mg               10.00    24.30500     Mg( 1.00)
     O                 6.00    15.99940     O ( 1.00)
     Si                4.00    28.08550     Si( 1.00)

     Starting magnetic structure 
     atomic species   magnetization
     Al              0.000
     Fe              0.300
     H               0.000
     K               0.000
     Mg              0.000
     O               0.000
     Si              0.000

      2 Sym. Ops. (no inversion) found


                                    s                        frac. trans.

      isym =  1     identity                                     

 cryst.   s( 1) = (     1          0          0      )
                  (     0          1          0      )
                  (     0          0          1      )

 cart.    s( 1) = (  1.0000000  0.0000000 -0.0000000 )
                  (  0.0000000  1.0000000  0.0000000 )
                  (  0.0000000  0.0000000  1.0000000 )


      isym =  2     180 deg rotation - cart. axis [0,1,0]        

 cryst.   s( 2) = (    -1          0          0      )
                  (     0          1          0      )
                  (     0          0         -1      )

 cart.    s( 2) = ( -1.0000000  0.0000000  0.0000000 )
                  (  0.0000000  1.0000000  0.0000000 )
                  (  0.0000000  0.0000000 -1.0000000 )


     point group C_2  (2)   
     there are  2 classes
     the character table:

       E     C2   
A      1.00  1.00
B      1.00 -1.00

     the symmetry operations in each class and the name of the first element:

     E        1
          identity                                               
     C2       2
          180 deg rotation - cart. axis [0,1,0]                  

   Cartesian axes

     site n.     atom                  positions (alat units)
         1        K      tau(   1) = (   0.0000000   0.8568164   0.0000000  )
         2        K      tau(   2) = (   0.5000000   0.0051438   0.0000000  )
         3        Mg     tau(   3) = (  -0.1710407   0.5782189   0.9479482  )
         4        Mg     tau(   4) = (  -0.1710407   1.1534208   0.9479482  )
         5        Mg     tau(   5) = (   0.3289593   0.8553594   0.9479482  )
         6        Mg     tau(   6) = (   0.3289593   1.4439657   0.9479482  )
         7        Mg     tau(   7) = (   0.3289593   0.3034278   0.9479482  )
         8        Si     tau(   8) = (   0.0096371   0.2880685   0.4183861  )
         9        Si     tau(   9) = (   0.6482816   0.2880685   1.4775103  )
        10        Si     tau(  10) = (   0.6692013   1.4463648   1.4645156  )
        11        Si     tau(  11) = (  -0.0112827   1.4463648   0.4313808  )
        12        Si     tau(  12) = (   0.4869722   1.1564223   0.4264417  )
        13        Si     tau(  13) = (   0.1709465   1.1564223   1.4694547  )
        14        Al     tau(  14) = (   0.1488663   0.5747376   1.4741733  )
        15        Al     tau(  15) = (   0.5090524   0.5747376   0.4217230  )
        16        O      tau(  16) = (   0.0018911   0.2942505   0.7264748  )
        17        O      tau(  17) = (   0.6560275   0.2942505   1.1694217  )
        18        O      tau(  18) = (   0.6605362   1.4359923   1.1596455  )
        19        O      tau(  19) = (  -0.0026175   1.4359923   0.7362509  )
        20        O      tau(  20) = (   0.4928860   1.1608160   0.7332181  )
        21        O      tau(  21) = (   0.1650326   1.1608160   1.1626784  )
        22        O      tau(  22) = (   0.1539971   0.5781441   1.1475620  )
        23        O      tau(  23) = (   0.5039216   0.5781441   0.7483344  )
        24        O      tau(  24) = (   0.2887372   0.3512858   0.3077595  )
        25        O      tau(  25) = (   0.3691815   0.3512858   1.5881368  )
        26        O      tau(  26) = (   0.9381934   1.7307306   0.3196866  )
        27        O      tau(  27) = (  -0.2802748   1.7307306   1.5762098  )
        28        O      tau(  28) = (   0.3973901   1.3456539   1.5804573  )
        29        O      tau(  29) = (   0.2605286   1.3456539   0.3154391  )
        30        O      tau(  30) = (   0.7587868   1.2702435   0.3152007  )
        31        O      tau(  31) = (  -0.1008681   1.2702435   1.5806957  )
        32        O      tau(  32) = (   0.4408032   0.8811753   0.3033788  )
        33        O      tau(  33) = (   0.2171154   0.8811753   1.5925176  )
        34        O      tau(  34) = (  -0.1459717   0.4806286   1.5983018  )
        35        O      tau(  35) = (   0.8038904   0.4806286   0.2975946  )
        36        O      tau(  36) = (  -0.0035216   0.8741027   0.7476076  )
        37        O      tau(  37) = (   0.6614403   0.8741027   1.1482888  )
        38        O      tau(  38) = (   0.4912894   1.7343221   0.7541263  )
        39        O      tau(  39) = (   0.1666293   1.7343221   1.1417700  )
        40        H      tau(  40) = (  -0.0022387   0.8583080   0.5661678  )
        41        H      tau(  41) = (   0.6601575   0.8583080   1.3297286  )
        42        H      tau(  42) = (   0.4995899   0.0245066   0.5734870  )
        43        H      tau(  43) = (   0.1583288   0.0245066   1.3224093  )
        44        Fe     tau(  44) = (  -0.1710407   0.0088678   0.9479482  )

     --------------------------------------------
     DFT-D3 Dispersion Correction (3-body terms):
     --------------------------------------------
       Reference C6 values for interpolation: 

         atom   Coordination number   C6
         H          0.912             6.05
         H          0.000            15.18
         O          0.000            31.01
         O          0.993            25.63
         O          1.989            20.74
         Mg         0.000          1366.75
         Mg         0.963           902.54
         Mg         1.950           351.12
         Al         0.000          1081.08
         Al         0.965           875.51
         Al         1.931           513.50
         Al         2.915           307.19
         Si         0.000           635.71
         Si         0.951           540.53
         Si         1.944           466.25
         Si         2.941           443.01
         Si         3.868           299.55
         K          0.000          9967.00
         K          0.977           676.04
         Fe         0.000           982.67
         Fe         1.648           409.99
         Fe         9.138           219.01

       Values used:

         atom   Coordination number  R0_AB[au]  C6      C8
         K         13.863            4.007    676.04 129074.98
         K         13.977            4.007    676.04 129074.98
         Mg        11.928            3.292    351.12  31436.69
         Mg        11.433            3.292    351.12  31436.69
         Mg        12.053            3.292    351.12  31436.69
         Mg        11.050            3.292    351.12  31436.69
         Mg        11.543            3.292    351.12  31436.69
         Si         6.789            3.583    299.55  21425.58
         Si         6.789            3.583    299.55  21425.58
         Si         6.368            3.583    299.55  21425.58
         Si         6.368            3.583    299.55  21425.58
         Si         6.620            3.583    299.55  21425.58
         Si         6.620            3.583    299.55  21425.58
         Al         7.848            3.789    307.19  29441.29
         Al         7.848            3.789    307.19  29441.29
         O          3.664            2.345     20.74    418.58
         O          3.664            2.345     20.74    418.58
         O          3.585            2.345     20.74    418.58
         O          3.585            2.345     20.74    418.58
         O          3.904            2.345     20.74    418.58
         O          3.904            2.345     20.74    418.58
         O          3.987            2.345     20.74    418.58
         O          3.987            2.345     20.74    418.58
         O          3.192            2.345     20.74    418.58
         O          3.192            2.345     20.74    418.58
         O          3.135            2.345     20.74    418.58
         O          3.135            2.345     20.74    418.58
         O          3.104            2.345     20.74    418.58
         O          3.104            2.345     20.74    418.58
         O          3.101            2.345     20.74    418.58
         O          3.101            2.345     20.74    418.58
         O          3.209            2.345     20.74    418.58
         O          3.209            2.345     20.74    418.58
         O          3.256            2.345     20.74    418.58
         O          3.256            2.345     20.74    418.58
         O          4.006            2.345     20.74    418.58
         O          4.006            2.345     20.74    418.58
         O          3.799            2.345     20.74    418.58
         O          3.799            2.345     20.74    418.58
         H          1.326            2.062      6.07     73.32
         H          1.326            2.062      6.07     73.32
         H          1.269            2.062      6.07     73.39
         H          1.269            2.062      6.07     73.39
         Fe         7.322            3.252    219.01  20487.87

         Molecular C6 ( Ry / a.u.^6 ) =    165305.42


   Crystallographic axes

     site n.     atom                  positions (cryst. coord.)
         1        K      tau(   1) = (  0.0000000  0.4937552  0.0000000  )
         2        K      tau(   2) = (  0.5000000  0.0029642  0.0000000  )
         3        Mg     tau(   3) = (  0.0000000  0.3332086  0.5000000  )
         4        Mg     tau(   4) = (  0.0000000  0.6646786  0.5000000  )
         5        Mg     tau(   5) = (  0.5000000  0.4929156  0.5000000  )
         6        Mg     tau(   6) = (  0.5000000  0.8321100  0.5000000  )
         7        Mg     tau(   7) = (  0.5000000  0.1748555  0.5000000  )
         8        Si     tau(   8) = (  0.0851275  0.1660044  0.2206798  )
         9        Si     tau(   9) = (  0.9148725  0.1660044  0.7793202  )
        10        Si     tau(  10) = (  0.9334475  0.8334926  0.7724661  )
        11        Si     tau(  11) = (  0.0665524  0.8334926  0.2275339  )
        12        Si     tau(  12) = (  0.5639161  0.6664082  0.2249288  )
        13        Si     tau(  13) = (  0.4360839  0.6664082  0.7750712  )
        14        Al     tau(  14) = (  0.4148551  0.3312024  0.7775601  )
        15        Al     tau(  15) = (  0.5851449  0.3312024  0.2224399  )
        16        O      tau(  16) = (  0.1329708  0.1695669  0.3831827  )
        17        O      tau(  17) = (  0.8670292  0.1695669  0.6168173  )
        18        O      tau(  18) = (  0.8697739  0.8275152  0.6116608  )
        19        O      tau(  19) = (  0.1302261  0.8275152  0.3883392  )
        20        O      tau(  20) = (  0.6251824  0.6689402  0.3867395  )
        21        O      tau(  21) = (  0.3748176  0.6689402  0.6132605  )
        22        O      tau(  22) = (  0.3610546  0.3331655  0.6052873  )
        23        O      tau(  23) = (  0.6389455  0.3331655  0.3947127  )
        24        O      tau(  24) = (  0.3442670  0.2024345  0.1623293  )
        25        O      tau(  25) = (  0.6557330  0.2024345  0.8376707  )
        26        O      tau(  26) = (  0.9958753  0.9973633  0.1686203  )
        27        O      tau(  27) = (  0.0041247  0.9973633  0.8313797  )
        28        O      tau(  28) = (  0.6825560  0.7754562  0.8336201  )
        29        O      tau(  29) = (  0.3174441  0.7754562  0.1663799  )
        30        O      tau(  30) = (  0.8156593  0.7319996  0.1662542  )
        31        O      tau(  31) = (  0.1843407  0.7319996  0.8337458  )
        32        O      tau(  32) = (  0.4955426  0.5077924  0.1600187  )
        33        O      tau(  33) = (  0.5044573  0.5077924  0.8399813  )
        34        O      tau(  34) = (  0.1424139  0.2769705  0.8430322  )
        35        O      tau(  35) = (  0.8575861  0.2769705  0.1569678  )
        36        O      tau(  36) = (  0.1313711  0.5037167  0.3943294  )
        37        O      tau(  37) = (  0.8686289  0.5037167  0.6056706  )
        38        O      tau(  38) = (  0.6273583  0.9994329  0.3977677  )
        39        O      tau(  39) = (  0.3726417  0.9994329  0.6022323  )
        40        H      tau(  40) = (  0.0999163  0.4946147  0.2986280  )
        41        H      tau(  41) = (  0.9000837  0.4946147  0.7013720  )
        42        H      tau(  42) = (  0.6030656  0.0141223  0.3024886  )
        43        H      tau(  43) = (  0.3969344  0.0141223  0.6975114  )
        44        Fe     tau(  44) = (  0.0000000  0.0051102  0.5000000  )

     number of k points=    20  Gaussian smearing, width (Ry)=  0.0010
                       cart. coord. in units 2pi/alat
        k(    1) = (   0.0000000   0.0000000   0.0000000), wk =   0.0185185
        k(    2) = (   0.0000000   0.0000000   0.1758183), wk =   0.0370370
        k(    3) = (   0.0000000   0.1920891   0.0000000), wk =   0.0370370
        k(    4) = (   0.0000000   0.1920891   0.1758183), wk =   0.0740741
        k(    5) = (   0.1666667   0.0000000   0.0300721), wk =   0.0370370
        k(    6) = (   0.1666667   0.0000000   0.2058904), wk =   0.0370370
        k(    7) = (   0.1666667   0.0000000  -0.1457462), wk =   0.0370370
        k(    8) = (   0.1666667   0.1920891   0.0300721), wk =   0.0740741
        k(    9) = (   0.1666667   0.1920891   0.2058904), wk =   0.0740741
        k(   10) = (   0.1666667   0.1920891  -0.1457462), wk =   0.0740741
        k(   11) = (   0.3333333   0.0000000   0.0601442), wk =   0.0370370
        k(   12) = (   0.3333333   0.0000000   0.2359625), wk =   0.0370370
        k(   13) = (   0.3333333   0.0000000  -0.1156742), wk =   0.0370370
        k(   14) = (   0.3333333   0.1920891   0.0601442), wk =   0.0740741
        k(   15) = (   0.3333333   0.1920891   0.2359625), wk =   0.0740741
        k(   16) = (   0.3333333   0.1920891  -0.1156742), wk =   0.0740741
        k(   17) = (  -0.5000000   0.0000000  -0.0902162), wk =   0.0185185
        k(   18) = (  -0.5000000   0.0000000   0.0856021), wk =   0.0370370
        k(   19) = (  -0.5000000   0.1920891  -0.0902162), wk =   0.0370370
        k(   20) = (  -0.5000000   0.1920891   0.0856021), wk =   0.0740741

                       cryst. coord.
        k(    1) = (   0.0000000   0.0000000   0.0000000), wk =   0.0185185
        k(    2) = (   0.0000000   0.0000000   0.3333333), wk =   0.0370370
        k(    3) = (   0.0000000   0.3333333   0.0000000), wk =   0.0370370
        k(    4) = (   0.0000000   0.3333333   0.3333333), wk =   0.0740741
        k(    5) = (   0.1666667   0.0000000  -0.0000000), wk =   0.0370370
        k(    6) = (   0.1666667   0.0000000   0.3333333), wk =   0.0370370
        k(    7) = (   0.1666667   0.0000000  -0.3333333), wk =   0.0370370
        k(    8) = (   0.1666667   0.3333333  -0.0000000), wk =   0.0740741
        k(    9) = (   0.1666667   0.3333333   0.3333333), wk =   0.0740741
        k(   10) = (   0.1666667   0.3333333  -0.3333333), wk =   0.0740741
        k(   11) = (   0.3333333   0.0000000  -0.0000000), wk =   0.0370370
        k(   12) = (   0.3333333   0.0000000   0.3333333), wk =   0.0370370
        k(   13) = (   0.3333333   0.0000000  -0.3333333), wk =   0.0370370
        k(   14) = (   0.3333333   0.3333333  -0.0000000), wk =   0.0740741
        k(   15) = (   0.3333333   0.3333333   0.3333333), wk =   0.0740741
        k(   16) = (   0.3333333   0.3333333  -0.3333333), wk =   0.0740741
        k(   17) = (  -0.5000000   0.0000000   0.0000000), wk =   0.0185185
        k(   18) = (  -0.5000000   0.0000000   0.3333333), wk =   0.0370370
        k(   19) = (  -0.5000000   0.3333333   0.0000000), wk =   0.0370370
        k(   20) = (  -0.5000000   0.3333333   0.3333333), wk =   0.0740741

     Dense  grid:   586467 G-vectors     FFT dimensions: (  72, 125, 135)

     Smooth grid:   207475 G-vectors     FFT dimensions: (  50,  90,  96)

     Dynamical RAM for                 wfc:      15.53 MB

     Dynamical RAM for     wfc (w. buffer):     636.57 MB

     Dynamical RAM for           str. fact:      15.66 MB

     Dynamical RAM for           local pot:       0.00 MB

     Dynamical RAM for          nlocal pot:      43.31 MB

     Dynamical RAM for                qrad:      24.61 MB

     Dynamical RAM for          rho,v,vnew:      27.43 MB

     Dynamical RAM for               rhoin:       9.14 MB

     Dynamical RAM for            rho*nmix:      71.59 MB

     Dynamical RAM for           G-vectors:       8.79 MB

     Dynamical RAM for          h,s,v(r/c):       1.13 MB

     Dynamical RAM for          <psi|beta>:       1.05 MB

     Dynamical RAM for                 psi:      31.05 MB

     Dynamical RAM for                hpsi:      31.05 MB

     Dynamical RAM for                spsi:      31.05 MB

     Dynamical RAM for      wfcinit/wfcrot:      31.62 MB

     Dynamical RAM for           addusdens:     472.05 MB

     Dynamical RAM for          addusforce:     575.15 MB

     Dynamical RAM for         addusstress:     453.03 MB

     Estimated static dynamical RAM per process >     797.42 MB

     Estimated max dynamical RAM per process >       1.41 GB

     Estimated total dynamical RAM >       5.64 GB

     Atomic positions and unit cell read from directory:
     ./temp/phl-fe1-fe1.save/
     Atomic positions from file used, from input discarded


     Check: negative core charge=   -0.000004
     Generating pointlists ...
     new r_m :   0.1351 (alat units)  1.3533 (a.u.) for type    1
     new r_m :   0.1606 (alat units)  1.6084 (a.u.) for type    2
     new r_m :   0.0752 (alat units)  0.7526 (a.u.) for type    3
     new r_m :   0.2158 (alat units)  2.1614 (a.u.) for type    4
     new r_m :   0.1580 (alat units)  1.5820 (a.u.) for type    5
     new r_m :   0.0752 (alat units)  0.7526 (a.u.) for type    6
     new r_m :   0.1261 (alat units)  1.2624 (a.u.) for type    7

     The initial density is read from file :
     ./temp/phl-fe1-fe1.save/charge-density


     starting charge     262.0452, renormalised to     262.0000

     negative rho (up, down):  0.000E+00 1.371E-04
     Cannot read wfcs: file not found
     Starting wfcs are  183 randomized atomic wfcs
     Checking if some PAW data can be deallocated... 
       PAW data deallocated on    3 nodes for type:  1
       PAW data deallocated on    3 nodes for type:  2
       PAW data deallocated on    3 nodes for type:  3
       PAW data deallocated on    3 nodes for type:  4
       PAW data deallocated on    3 nodes for type:  5
       PAW data deallocated on    1 nodes for type:  6
       PAW data deallocated on    2 nodes for type:  7

     total cpu time spent up to now is      226.5 secs

     Self-consistent Calculation

     iteration #  1     ecut=    60.00 Ry     beta= 0.70
     Davidson diagonalization with overlap

---- Real-time Memory Report at c_bands before calling an iterative solver
           862 MiB given to the printing process from OS
             0 MiB allocation reported by mallinfo(arena+hblkhd)
         10607 MiB available memory on the node where the printing process lives
------------------
     c_bands:  2 eigenvalues not converged
     c_bands:  2 eigenvalues not converged
     c_bands:  1 eigenvalues not converged
     c_bands:  2 eigenvalues not converged
     c_bands:  2 eigenvalues not converged
     c_bands:  2 eigenvalues not converged
     c_bands:  1 eigenvalues not converged
     c_bands:  2 eigenvalues not converged
     c_bands:  1 eigenvalues not converged
     c_bands:  1 eigenvalues not converged
     c_bands:  1 eigenvalues not converged
     c_bands:  2 eigenvalues not converged
     c_bands:  1 eigenvalues not converged
     c_bands:  1 eigenvalues not converged
     c_bands:  2 eigenvalues not converged
     c_bands:  3 eigenvalues not converged
     c_bands:  3 eigenvalues not converged
     c_bands:  1 eigenvalues not converged
     c_bands:  4 eigenvalues not converged
     c_bands:  2 eigenvalues not converged
     c_bands:  1 eigenvalues not converged
     c_bands:  1 eigenvalues not converged
     c_bands:  2 eigenvalues not converged
     c_bands:  3 eigenvalues not converged
     c_bands:  1 eigenvalues not converged
     c_bands:  1 eigenvalues not converged
     c_bands:  3 eigenvalues not converged
     c_bands:  1 eigenvalues not converged
     c_bands:  2 eigenvalues not converged
     c_bands:  3 eigenvalues not converged
     c_bands:  2 eigenvalues not converged
     c_bands:  1 eigenvalues not converged
     c_bands:  3 eigenvalues not converged
     c_bands:  1 eigenvalues not converged
     c_bands:  2 eigenvalues not converged
     c_bands:  3 eigenvalues not converged
     c_bands:  2 eigenvalues not converged
     c_bands:  3 eigenvalues not converged
     c_bands:  2 eigenvalues not converged
     ethr =  1.00E-05,  avg # of iterations = 40.0

     negative rho (up, down):  0.000E+00 1.367E-04

     total cpu time spent up to now is     6054.8 secs

     total energy              =   -2631.24372716 Ry
     estimated scf accuracy    <       0.01024431 Ry

     total magnetization       =     4.00 Bohr mag/cell
     absolute magnetization    =     4.04 Bohr mag/cell

     iteration #  2     ecut=    60.00 Ry     beta= 0.70
     Davidson diagonalization with overlap

---- Real-time Memory Report at c_bands before calling an iterative solver
          1304 MiB given to the printing process from OS
             0 MiB allocation reported by mallinfo(arena+hblkhd)
         10001 MiB available memory on the node where the printing process lives
------------------
     c_bands:  1 eigenvalues not converged
     c_bands:  1 eigenvalues not converged
     c_bands:  1 eigenvalues not converged
     c_bands:  2 eigenvalues not converged
     c_bands:  2 eigenvalues not converged
     c_bands:  2 eigenvalues not converged
     c_bands:  1 eigenvalues not converged
     c_bands:  3 eigenvalues not converged
     c_bands:  1 eigenvalues not converged
     c_bands:  1 eigenvalues not converged
     c_bands:  1 eigenvalues not converged
     c_bands:  1 eigenvalues not converged
     c_bands:  2 eigenvalues not converged
     c_bands:  1 eigenvalues not converged
     c_bands:  2 eigenvalues not converged
     c_bands:  2 eigenvalues not converged
     c_bands:  2 eigenvalues not converged
     c_bands:  2 eigenvalues not converged
     c_bands:  1 eigenvalues not converged
     c_bands:  1 eigenvalues not converged
     c_bands:  1 eigenvalues not converged
     c_bands:  2 eigenvalues not converged
     c_bands:  3 eigenvalues not converged
     ethr =  3.91E-06,  avg # of iterations = 18.1

     negative rho (up, down):  0.000E+00 1.418E-04

     total cpu time spent up to now is     7023.1 secs

     total energy              =   -2631.24646376 Ry
     estimated scf accuracy    <       0.00355510 Ry

     total magnetization       =     4.00 Bohr mag/cell
     absolute magnetization    =     4.05 Bohr mag/cell

     iteration #  3     ecut=    60.00 Ry     beta= 0.70
     Davidson diagonalization with overlap

---- Real-time Memory Report at c_bands before calling an iterative solver
          1307 MiB given to the printing process from OS
             0 MiB allocation reported by mallinfo(arena+hblkhd)
          9974 MiB available memory on the node where the printing process lives
------------------
     c_bands:  1 eigenvalues not converged
     c_bands:  1 eigenvalues not converged
     c_bands:  1 eigenvalues not converged
     c_bands:  1 eigenvalues not converged
     c_bands:  1 eigenvalues not converged
     c_bands:  2 eigenvalues not converged
     c_bands:  2 eigenvalues not converged
     c_bands:  1 eigenvalues not converged
     ethr =  1.36E-06,  avg # of iterations = 14.2

     negative rho (up, down):  0.000E+00 1.424E-04

     total cpu time spent up to now is     7795.2 secs

     total energy              =   -2631.24740852 Ry
     estimated scf accuracy    <       0.00012961 Ry

     total magnetization       =     4.00 Bohr mag/cell
     absolute magnetization    =     4.04 Bohr mag/cell

     iteration #  4     ecut=    60.00 Ry     beta= 0.70
     Davidson diagonalization with overlap

---- Real-time Memory Report at c_bands before calling an iterative solver
          1310 MiB given to the printing process from OS
             0 MiB allocation reported by mallinfo(arena+hblkhd)
          9961 MiB available memory on the node where the printing process lives
------------------
     ethr =  4.95E-08,  avg # of iterations =  7.7

     negative rho (up, down):  0.000E+00 1.447E-04

     total cpu time spent up to now is     9226.4 secs

     total energy              =   -2631.24759170 Ry
     estimated scf accuracy    <       0.00004736 Ry

     total magnetization       =     4.00 Bohr mag/cell
     absolute magnetization    =     4.04 Bohr mag/cell

     iteration #  5     ecut=    60.00 Ry     beta= 0.70
     Davidson diagonalization with overlap

---- Real-time Memory Report at c_bands before calling an iterative solver
          1314 MiB given to the printing process from OS
             0 MiB allocation reported by mallinfo(arena+hblkhd)
          9944 MiB available memory on the node where the printing process lives
------------------
     c_bands:  1 eigenvalues not converged
     ethr =  1.81E-08,  avg # of iterations =  6.0

     negative rho (up, down):  0.000E+00 1.443E-04

     total cpu time spent up to now is     9980.5 secs

     total energy              =   -2631.24760527 Ry
     estimated scf accuracy    <       0.00001128 Ry

     total magnetization       =     4.00 Bohr mag/cell
     absolute magnetization    =     4.04 Bohr mag/cell

     iteration #  6     ecut=    60.00 Ry     beta= 0.70
     Davidson diagonalization with overlap

---- Real-time Memory Report at c_bands before calling an iterative solver
          1317 MiB given to the printing process from OS
             0 MiB allocation reported by mallinfo(arena+hblkhd)
          9933 MiB available memory on the node where the printing process lives
------------------
     ethr =  4.31E-09,  avg # of iterations =  6.4

     negative rho (up, down):  0.000E+00 1.450E-04

     total cpu time spent up to now is    11045.3 secs

     total energy              =   -2631.24761277 Ry
     estimated scf accuracy    <       0.00000287 Ry

     total magnetization       =     4.00 Bohr mag/cell
     absolute magnetization    =     4.04 Bohr mag/cell

     iteration #  7     ecut=    60.00 Ry     beta= 0.70
     Davidson diagonalization with overlap

---- Real-time Memory Report at c_bands before calling an iterative solver
          1321 MiB given to the printing process from OS
             0 MiB allocation reported by mallinfo(arena+hblkhd)
          9920 MiB available memory on the node where the printing process lives
------------------
     ethr =  1.09E-09,  avg # of iterations =  6.3

     negative rho (up, down):  0.000E+00 1.452E-04

     Magnetic moment per site  (integrated on atomic sphere of radius R)
     atom   1 (R=0.216)  charge=  7.5370  magn=  0.0000
     atom   2 (R=0.216)  charge=  7.5402  magn=  0.0001
     atom   3 (R=0.158)  charge=  8.1101  magn= -0.0001
     atom   4 (R=0.158)  charge=  8.1060  magn= -0.0000
     atom   5 (R=0.158)  charge=  8.1072  magn= -0.0000
     atom   6 (R=0.158)  charge=  8.1053  magn=  0.0004
     atom   7 (R=0.158)  charge=  8.1122  magn=  0.0004
     atom   8 (R=0.126)  charge=  0.5494  magn=  0.0010
     atom   9 (R=0.126)  charge=  0.5494  magn=  0.0010
     atom  10 (R=0.126)  charge=  0.5428  magn=  0.0008
     atom  11 (R=0.126)  charge=  0.5428  magn=  0.0008
     atom  12 (R=0.126)  charge=  0.5413  magn= -0.0000
     atom  13 (R=0.126)  charge=  0.5413  magn= -0.0000
     atom  14 (R=0.135)  charge=  0.3346  magn= -0.0000
     atom  15 (R=0.135)  charge=  0.3346  magn= -0.0000
     atom  16 (R=0.075)  charge=  1.9334  magn=  0.0196
     atom  17 (R=0.075)  charge=  1.9334  magn=  0.0196
     atom  18 (R=0.075)  charge=  1.9338  magn=  0.0166
     atom  19 (R=0.075)  charge=  1.9338  magn=  0.0166
     atom  20 (R=0.075)  charge=  1.9352  magn=  0.0002
     atom  21 (R=0.075)  charge=  1.9352  magn=  0.0002
     atom  22 (R=0.075)  charge=  1.9331  magn=  0.0002
     atom  23 (R=0.075)  charge=  1.9331  magn=  0.0002
     atom  24 (R=0.075)  charge=  1.9368  magn=  0.0011
     atom  25 (R=0.075)  charge=  1.9368  magn=  0.0011
     atom  26 (R=0.075)  charge=  1.9435  magn= -0.0001
     atom  27 (R=0.075)  charge=  1.9435  magn= -0.0001
     atom  28 (R=0.075)  charge=  1.9412  magn=  0.0008
     atom  29 (R=0.075)  charge=  1.9412  magn=  0.0008
     atom  30 (R=0.075)  charge=  1.9430  magn=  0.0004
     atom  31 (R=0.075)  charge=  1.9430  magn=  0.0004
     atom  32 (R=0.075)  charge=  1.9358  magn=  0.0000
     atom  33 (R=0.075)  charge=  1.9358  magn=  0.0000
     atom  34 (R=0.075)  charge=  1.9396  magn=  0.0007
     atom  35 (R=0.075)  charge=  1.9396  magn=  0.0007
     atom  36 (R=0.075)  charge=  1.9376  magn=  0.0004
     atom  37 (R=0.075)  charge=  1.9376  magn=  0.0004
     atom  38 (R=0.075)  charge=  1.9344  magn=  0.0236
     atom  39 (R=0.075)  charge=  1.9344  magn=  0.0236
     atom  40 (R=0.075)  charge=  0.4006  magn= -0.0000
     atom  41 (R=0.075)  charge=  0.4006  magn= -0.0000
     atom  42 (R=0.075)  charge=  0.3970  magn=  0.0016
     atom  43 (R=0.075)  charge=  0.3970  magn=  0.0016
     atom  44 (R=0.161)  charge= 13.3661  magn=  3.3285

     total cpu time spent up to now is    11915.9 secs

     End of self-consistent calculation

 ------ SPIN UP ------------


          k = 0.0000 0.0000 0.0000 ( 25927 PWs)   bands (ev):

   -82.0153 -67.9932 -67.8870 -67.4868 -67.4013 -67.3335 -49.0344 -47.8809
   -47.2966 -34.7563 -34.7422 -34.7349 -34.6500 -34.6390 -34.6232 -34.2412
   -34.2407 -34.2319 -34.1694 -34.1463 -34.1429 -34.1057 -34.0924 -34.0524
   -23.5280 -23.5023 -15.2946 -15.2503 -14.3854 -14.3474 -13.8485 -13.8362
   -13.7783 -13.6055 -13.5500 -13.4244 -13.3752 -13.1021 -13.1018 -13.0798
   -13.0725 -12.9467 -12.7309 -12.6728 -12.5727 -12.5434 -12.5143 -12.4492
   -11.3793 -11.1583  -7.0719  -7.0449  -7.0111  -6.9980  -6.9722  -6.9645
    -4.5466  -4.5139  -2.7072  -2.6277  -2.2257  -1.7459  -1.4233  -1.4133
    -1.3208  -1.2685  -0.9729  -0.9458  -0.7365  -0.7192  -0.6272  -0.5156
    -0.2484  -0.1666  -0.0197  -0.0132   0.3065   0.3241   0.3906   0.5630
     0.5818   0.8647   1.0042   1.0093   1.1314   1.2077   1.2630   1.3542
     1.3819   1.5350   1.6106   1.7402   1.8157   1.8550   1.8561   2.0227
     2.0815   2.0965   2.1333   2.1972   2.3258   2.3651   2.4080   2.4724
     2.5059   2.5682   2.6657   2.7109   2.8281   2.8607   3.0266   3.0357
     3.0945   3.1870   3.2102   3.2602   3.2652   3.3092   3.4179   3.4774
     3.5380   3.6221   3.6538   3.7128   3.7948   3.8613   4.1123   4.2368
     4.3535   4.6436   5.6636   6.1020   6.1547   8.6228  10.1053  10.7352
    11.0973  11.3692  11.5815  11.7905  12.0302  12.1833  12.5170  12.5661
    12.6682  12.9285  12.9358  13.0752  13.1875  13.2291  13.3284  13.4331
    13.4456  13.4499  13.5222  13.5867  13.8541

     occupation numbers 
     1.0000   1.0000   1.0000   1.0000   1.0000   1.0000   1.0000   1.0000
     1.0000   1.0000   1.0000   1.0000   1.0000   1.0000   1.0000   1.0000
     1.0000   1.0000   1.0000   1.0000   1.0000   1.0000   1.0000   1.0000
     1.0000   1.0000   1.0000   1.0000   1.0000   1.0000   1.0000   1.0000
     1.0000   1.0000   1.0000   1.0000   1.0000   1.0000   1.0000   1.0000
     1.0000   1.0000   1.0000   1.0000   1.0000   1.0000   1.0000   1.0000
     1.0000   1.0000   1.0000   1.0000   1.0000   1.0000   1.0000   1.0000
     1.0000   1.0000   1.0000   1.0000   1.0000   1.0000   1.0000   1.0000
     1.0000   1.0000   1.0000   1.0000   1.0000   1.0000   1.0000   1.0000
     1.0000   1.0000   1.0000   1.0000   1.0000   1.0000   1.0000   1.0000
     1.0000   1.0000   1.0000   1.0000   1.0000   1.0000   1.0000   1.0000
     1.0000   1.0000   1.0000   1.0000   1.0000   1.0000   1.0000   1.0000
     1.0000   1.0000   1.0000   1.0000   1.0000   1.0000   1.0000   1.0000
     1.0000   1.0000   1.0000   1.0000   1.0000   1.0000   1.0000   1.0000
     1.0000   1.0000   1.0000   1.0000   1.0000   1.0000   1.0000   1.0000
     1.0000   1.0000   1.0000   1.0000   1.0000   1.0000   1.0000   1.0000
     1.0000   1.0000   1.0000   1.0000   1.0000   0.0000   0.0000   0.0000
     0.0000   0.0000   0.0000   0.0000   0.0000   0.0000   0.0000   0.0000
     0.0000   0.0000   0.0000   0.0000   0.0000   0.0000   0.0000   0.0000
     0.0000   0.0000   0.0000   0.0000   0.0000

          k = 0.0000 0.0000 0.1718 ( 25971 PWs)   bands (ev):

   -82.0153 -67.9932 -67.8870 -67.4868 -67.4013 -67.3335 -49.0344 -47.8809
   -47.2966 -34.7564 -34.7422 -34.7350 -34.6500 -34.6390 -34.6232 -34.2412
   -34.2407 -34.2320 -34.1694 -34.1464 -34.1430 -34.1057 -34.0924 -34.0524
   -23.5280 -23.5023 -15.2852 -15.2603 -14.3764 -14.3567 -13.8505 -13.8339
   -13.7772 -13.5965 -13.5615 -13.4254 -13.3723 -13.1074 -13.0940 -13.0851
   -13.0676 -12.9498 -12.7260 -12.6774 -12.5703 -12.5365 -12.5173 -12.4547
   -11.3790 -11.1588  -7.0719  -7.0449  -7.0111  -6.9979  -6.9722  -6.9645
    -4.5482  -4.5125  -2.6891  -2.6485  -2.2113  -1.7258  -1.4406  -1.4018
    -1.3195  -1.2779  -0.9834  -0.9194  -0.7585  -0.6923  -0.6359  -0.5883
    -0.2267  -0.1540  -0.0651  -0.0577   0.3012   0.3179   0.4151   0.5618
     0.6226   0.9332   0.9588   1.0094   1.1526   1.2138   1.2972   1.3098
     1.4491   1.5196   1.6502   1.8076   1.8178   1.8644   1.8952   1.9736
     2.0490   2.0871   2.1083   2.1545   2.2752   2.3454   2.4430   2.4614
     2.4981   2.5389   2.7202   2.7358   2.7799   2.8650   2.9816   3.0731
     3.0952   3.1628   3.2229   3.2708   3.2944   3.3349   3.3813   3.4205
     3.5348   3.6269   3.6800   3.7365   3.7939   3.8416   4.1111   4.2428
     4.3504   4.6431   5.6636   6.0942   6.1575   8.9233   9.6242  10.8310
    11.1517  11.2177  11.6524  11.6984  12.2261  12.3062  12.5652  12.5903
    12.7903  12.8546  12.9217  12.9698  13.0817  13.2579  13.3460  13.3934
    13.4273  13.4945  13.6109  13.6706  13.7035

     occupation numbers 
     1.0000   1.0000   1.0000   1.0000   1.0000   1.0000   1.0000   1.0000
     1.0000   1.0000   1.0000   1.0000   1.0000   1.0000   1.0000   1.0000
     1.0000   1.0000   1.0000   1.0000   1.0000   1.0000   1.0000   1.0000
     1.0000   1.0000   1.0000   1.0000   1.0000   1.0000   1.0000   1.0000
     1.0000   1.0000   1.0000   1.0000   1.0000   1.0000   1.0000   1.0000
     1.0000   1.0000   1.0000   1.0000   1.0000   1.0000   1.0000   1.0000
     1.0000   1.0000   1.0000   1.0000   1.0000   1.0000   1.0000   1.0000
     1.0000   1.0000   1.0000   1.0000   1.0000   1.0000   1.0000   1.0000
     1.0000   1.0000   1.0000   1.0000   1.0000   1.0000   1.0000   1.0000
     1.0000   1.0000   1.0000   1.0000   1.0000   1.0000   1.0000   1.0000
     1.0000   1.0000   1.0000   1.0000   1.0000   1.0000   1.0000   1.0000
     1.0000   1.0000   1.0000   1.0000   1.0000   1.0000   1.0000   1.0000
     1.0000   1.0000   1.0000   1.0000   1.0000   1.0000   1.0000   1.0000
     1.0000   1.0000   1.0000   1.0000   1.0000   1.0000   1.0000   1.0000
     1.0000   1.0000   1.0000   1.0000   1.0000   1.0000   1.0000   1.0000
     1.0000   1.0000   1.0000   1.0000   1.0000   1.0000   1.0000   1.0000
     1.0000   1.0000   1.0000   1.0000   1.0000   0.0000   0.0000   0.0000
     0.0000   0.0000   0.0000   0.0000   0.0000   0.0000   0.0000   0.0000
     0.0000   0.0000   0.0000   0.0000   0.0000   0.0000   0.0000   0.0000
     0.0000   0.0000   0.0000   0.0000   0.0000

          k = 0.0000 0.1906 0.0000 ( 25933 PWs)   bands (ev):

   -82.0153 -67.9932 -67.8870 -67.4868 -67.4013 -67.3335 -49.0344 -47.8809
   -47.2966 -34.7563 -34.7422 -34.7349 -34.6500 -34.6390 -34.6232 -34.2412
   -34.2407 -34.2319 -34.1694 -34.1463 -34.1430 -34.1057 -34.0924 -34.0524
   -23.5280 -23.5023 -15.2896 -15.2455 -14.4174 -14.3759 -13.8486 -13.8362
   -13.7709 -13.5195 -13.4686 -13.4080 -13.3750 -13.1941 -13.1845 -13.0730
   -13.0710 -12.9446 -12.7277 -12.6678 -12.5645 -12.5433 -12.5133 -12.4467
   -11.3780 -11.1578  -7.0700  -7.0469  -7.0109  -6.9972  -6.9726  -6.9649
    -4.5061  -4.4717  -2.8539  -2.7729  -2.2030  -1.7277  -1.3400  -1.3116
    -1.2679  -1.2188  -1.0547  -1.0172  -0.7384  -0.6158  -0.5976  -0.4789
    -0.3530  -0.1264  -0.1185   0.0830   0.2596   0.2599   0.3993   0.5525
     0.6186   0.8152   0.9172   0.9794   1.1463   1.2413   1.3280   1.3878
     1.4260   1.6178   1.6231   1.7700   1.8033   1.8721   1.8722   2.0669
     2.0690   2.0995   2.1742   2.1830   2.2595   2.3592   2.3937   2.5039
     2.5354   2.5829   2.7008   2.7512   2.7947   2.8165   2.9695   3.0932
     3.1042   3.1276   3.1918   3.2228   3.2630   3.3036   3.4215   3.5172
     3.5476   3.6118   3.6299   3.6863   3.8052   3.8503   3.9385   4.2292
     4.3574   4.6283   5.6733   6.0751   6.1624   9.0173   9.9422  10.3405
    10.9310  11.3474  11.7759  12.0645  12.1453  12.2684  12.4674  12.6146
    12.6785  12.8330  12.9753  13.0002  13.0550  13.2375  13.2431  13.3165
    13.3584  13.4179  13.7083  13.8601  13.8649

     occupation numbers 
     1.0000   1.0000   1.0000   1.0000   1.0000   1.0000   1.0000   1.0000
     1.0000   1.0000   1.0000   1.0000   1.0000   1.0000   1.0000   1.0000
     1.0000   1.0000   1.0000   1.0000   1.0000   1.0000   1.0000   1.0000
     1.0000   1.0000   1.0000   1.0000   1.0000   1.0000   1.0000   1.0000
     1.0000   1.0000   1.0000   1.0000   1.0000   1.0000   1.0000   1.0000
     1.0000   1.0000   1.0000   1.0000   1.0000   1.0000   1.0000   1.0000
     1.0000   1.0000   1.0000   1.0000   1.0000   1.0000   1.0000   1.0000
     1.0000   1.0000   1.0000   1.0000   1.0000   1.0000   1.0000   1.0000
     1.0000   1.0000   1.0000   1.0000   1.0000   1.0000   1.0000   1.0000
     1.0000   1.0000   1.0000   1.0000   1.0000   1.0000   1.0000   1.0000
     1.0000   1.0000   1.0000   1.0000   1.0000   1.0000   1.0000   1.0000
     1.0000   1.0000   1.0000   1.0000   1.0000   1.0000   1.0000   1.0000
     1.0000   1.0000   1.0000   1.0000   1.0000   1.0000   1.0000   1.0000
     1.0000   1.0000   1.0000   1.0000   1.0000   1.0000   1.0000   1.0000
     1.0000   1.0000   1.0000   1.0000   1.0000   1.0000   1.0000   1.0000
     1.0000   1.0000   1.0000   1.0000   1.0000   1.0000   1.0000   1.0000
     1.0000   1.0000   1.0000   1.0000   1.0000   0.0000   0.0000   0.0000
     0.0000   0.0000   0.0000   0.0000   0.0000   0.0000   0.0000   0.0000
     0.0000   0.0000   0.0000   0.0000   0.0000   0.0000   0.0000   0.0000
     0.0000   0.0000   0.0000   0.0000   0.0000

          k = 0.0000 0.1906 0.1718 ( 25924 PWs)   bands (ev):

   -82.0153 -67.9932 -67.8870 -67.4868 -67.4013 -67.3335 -49.0344 -47.8809
   -47.2966 -34.7564 -34.7422 -34.7349 -34.6500 -34.6390 -34.6232 -34.2412
   -34.2407 -34.2320 -34.1694 -34.1463 -34.1430 -34.1057 -34.0924 -34.0524
   -23.5280 -23.5023 -15.2800 -15.2557 -14.4085 -14.3853 -13.8505 -13.8339
   -13.7700 -13.5115 -13.4767 -13.4132 -13.3686 -13.2040 -13.1750 -13.0752
   -13.0669 -12.9478 -12.7234 -12.6723 -12.5635 -12.5344 -12.5166 -12.4522
   -11.3778 -11.1582  -7.0701  -7.0469  -7.0109  -6.9972  -6.9726  -6.9649
    -4.5046  -4.4732  -2.8346  -2.7938  -2.1916  -1.7119  -1.3302  -1.3134
    -1.2612  -1.2355  -1.0416  -1.0212  -0.7630  -0.6426  -0.5818  -0.5196
    -0.3216  -0.1828  -0.1125   0.0493   0.2550   0.2613   0.4329   0.5399
     0.6568   0.8381   0.8634   1.0208   1.2017   1.2480   1.3432   1.4088
     1.4917   1.5740   1.6512   1.7431   1.8182   1.8494   1.9352   1.9972
     2.0551   2.1216   2.1625   2.1938   2.2313   2.3208   2.3950   2.4733
     2.5146   2.5903   2.7052   2.7500   2.8013   2.8241   2.9911   3.0237
     3.1133   3.1656   3.1888   3.2246   3.2493   3.3244   3.3989   3.4927
     3.5547   3.5924   3.6484   3.7065   3.8090   3.8434   3.9548   4.2359
     4.3537   4.6254   5.6737   6.0668   6.1649   9.2795   9.9082  10.1328
    10.6220  11.3543  11.7758  12.0926  12.2747  12.4519  12.5780  12.6504
    12.7948  12.8860  12.9338  13.0002  13.0891  13.1424  13.2179  13.3386
    13.3888  13.4437  13.6779  13.7405  13.8494

     occupation numbers 
     1.0000   1.0000   1.0000   1.0000   1.0000   1.0000   1.0000   1.0000
     1.0000   1.0000   1.0000   1.0000   1.0000   1.0000   1.0000   1.0000
     1.0000   1.0000   1.0000   1.0000   1.0000   1.0000   1.0000   1.0000
     1.0000   1.0000   1.0000   1.0000   1.0000   1.0000   1.0000   1.0000
     1.0000   1.0000   1.0000   1.0000   1.0000   1.0000   1.0000   1.0000
     1.0000   1.0000   1.0000   1.0000   1.0000   1.0000   1.0000   1.0000
     1.0000   1.0000   1.0000   1.0000   1.0000   1.0000   1.0000   1.0000
     1.0000   1.0000   1.0000   1.0000   1.0000   1.0000   1.0000   1.0000
     1.0000   1.0000   1.0000   1.0000   1.0000   1.0000   1.0000   1.0000
     1.0000   1.0000   1.0000   1.0000   1.0000   1.0000   1.0000   1.0000
     1.0000   1.0000   1.0000   1.0000   1.0000   1.0000   1.0000   1.0000
     1.0000   1.0000   1.0000   1.0000   1.0000   1.0000   1.0000   1.0000
     1.0000   1.0000   1.0000   1.0000   1.0000   1.0000   1.0000   1.0000
     1.0000   1.0000   1.0000   1.0000   1.0000   1.0000   1.0000   1.0000
     1.0000   1.0000   1.0000   1.0000   1.0000   1.0000   1.0000   1.0000
     1.0000   1.0000   1.0000   1.0000   1.0000   1.0000   1.0000   1.0000
     1.0000   1.0000   1.0000   1.0000   1.0000   0.0000   0.0000   0.0000
     0.0000   0.0000   0.0000   0.0000   0.0000   0.0000   0.0000   0.0000
     0.0000   0.0000   0.0000   0.0000   0.0000   0.0000   0.0000   0.0000
     0.0000   0.0000   0.0000   0.0000   0.0000

          k = 0.1656 0.0000 0.0301 ( 25941 PWs)   bands (ev):

   -82.0153 -67.9932 -67.8870 -67.4868 -67.4013 -67.3335 -49.0343 -47.8809
   -47.2966 -34.7562 -34.7424 -34.7349 -34.6501 -34.6389 -34.6232 -34.2414
   -34.2405 -34.2319 -34.1693 -34.1463 -34.1431 -34.1053 -34.0926 -34.0527
   -23.5279 -23.5022 -15.2374 -15.1944 -14.3988 -14.3656 -13.9703 -13.9465
   -13.7559 -13.5326 -13.4763 -13.4328 -13.3474 -13.1277 -13.0906 -13.0744
   -13.0597 -12.9574 -12.7497 -12.6892 -12.6192 -12.5701 -12.5231 -12.4303
   -11.3764 -11.1629  -7.0718  -7.0478  -7.0110  -6.9969  -6.9721  -6.9627
    -4.3922  -4.3532  -2.6736  -2.5925  -2.1972  -1.7974  -1.6943  -1.5628
    -1.1680  -1.0785  -1.0477  -0.9422  -0.7323  -0.7043  -0.5982  -0.5174
    -0.2296  -0.1515  -0.0627   0.0038   0.2348   0.3402   0.3709   0.4440
     0.7848   0.8576   0.9639   1.0188   1.0747   1.1763   1.2220   1.3456
     1.4192   1.5331   1.6320   1.6642   1.8030   1.8202   1.9804   2.0026
     2.0358   2.1250   2.1565   2.2232   2.2854   2.3766   2.3995   2.4612
     2.5759   2.5890   2.6321   2.7545   2.8438   2.8756   2.9705   3.0280
     3.0486   3.0943   3.1583   3.2291   3.2812   3.3209   3.3625   3.4957
     3.5343   3.5699   3.5852   3.6657   3.7455   3.8840   4.0977   4.1538
     4.3714   4.6077   5.6677   6.1063   6.1551   8.9435  10.2809  10.8168
    11.2317  11.4067  11.6368  11.9651  12.1022  12.2011  12.5138  12.5823
    12.6748  12.7741  12.8735  13.1202  13.1512  13.2057  13.2421  13.3092
    13.3905  13.5955  13.6301  13.6856  13.8253

     occupation numbers 
     1.0000   1.0000   1.0000   1.0000   1.0000   1.0000   1.0000   1.0000
     1.0000   1.0000   1.0000   1.0000   1.0000   1.0000   1.0000   1.0000
     1.0000   1.0000   1.0000   1.0000   1.0000   1.0000   1.0000   1.0000
     1.0000   1.0000   1.0000   1.0000   1.0000   1.0000   1.0000   1.0000
     1.0000   1.0000   1.0000   1.0000   1.0000   1.0000   1.0000   1.0000
     1.0000   1.0000   1.0000   1.0000   1.0000   1.0000   1.0000   1.0000
     1.0000   1.0000   1.0000   1.0000   1.0000   1.0000   1.0000   1.0000
     1.0000   1.0000   1.0000   1.0000   1.0000   1.0000   1.0000   1.0000
     1.0000   1.0000   1.0000   1.0000   1.0000   1.0000   1.0000   1.0000
     1.0000   1.0000   1.0000   1.0000   1.0000   1.0000   1.0000   1.0000
     1.0000   1.0000   1.0000   1.0000   1.0000   1.0000   1.0000   1.0000
     1.0000   1.0000   1.0000   1.0000   1.0000   1.0000   1.0000   1.0000
     1.0000   1.0000   1.0000   1.0000   1.0000   1.0000   1.0000   1.0000
     1.0000   1.0000   1.0000   1.0000   1.0000   1.0000   1.0000   1.0000
     1.0000   1.0000   1.0000   1.0000   1.0000   1.0000   1.0000   1.0000
     1.0000   1.0000   1.0000   1.0000   1.0000   1.0000   1.0000   1.0000
     1.0000   1.0000   1.0000   1.0000   1.0000   0.0000   0.0000   0.0000
     0.0000   0.0000   0.0000   0.0000   0.0000   0.0000   0.0000   0.0000
     0.0000   0.0000   0.0000   0.0000   0.0000   0.0000   0.0000   0.0000
     0.0000   0.0000   0.0000   0.0000   0.0000

          k = 0.1656 0.0000 0.2018 ( 25961 PWs)   bands (ev):

   -82.0153 -67.9932 -67.8870 -67.4868 -67.4013 -67.3335 -49.0344 -47.8809
   -47.2966 -34.7562 -34.7424 -34.7349 -34.6501 -34.6389 -34.6232 -34.2415
   -34.2405 -34.2319 -34.1694 -34.1463 -34.1431 -34.1053 -34.0926 -34.0527
   -23.5279 -23.5022 -15.2256 -15.2069 -14.3898 -14.3750 -13.9667 -13.9503
   -13.7542 -13.5245 -13.4844 -13.4370 -13.3434 -13.1279 -13.0939 -13.0666
   -13.0620 -12.9606 -12.7454 -12.6945 -12.6129 -12.5766 -12.5132 -12.4383
   -11.3761 -11.1635  -7.0718  -7.0478  -7.0110  -6.9969  -6.9721  -6.9627
    -4.3978  -4.3477  -2.6583  -2.6108  -2.1811  -1.7738  -1.7227  -1.5479
    -1.1670  -1.0757  -1.0625  -0.9159  -0.7377  -0.6880  -0.6229  -0.5821
    -0.2011  -0.1436  -0.0944  -0.0455   0.2214   0.3450   0.3592   0.4774
     0.8228   0.9022   0.9310   1.0298   1.0752   1.2050   1.2455   1.3340
     1.4649   1.5232   1.6235   1.7044   1.7828   1.8979   1.9609   2.0129
     2.0299   2.0716   2.1333   2.2102   2.2522   2.3621   2.4009   2.4571
     2.5598   2.5770   2.6721   2.7944   2.8013   2.8531   2.9581   3.0150
     3.0599   3.0843   3.1846   3.2007   3.2675   3.3106   3.3939   3.4775
     3.5548   3.5663   3.5957   3.6994   3.7457   3.8493   4.1000   4.1709
     4.3679   4.6078   5.6677   6.0996   6.1552   9.2999   9.7345  10.9000
    11.2661  11.2857  11.7037  11.8572  12.0749  12.4185  12.5363  12.6508
    12.7527  12.9056  12.9547  12.9849  13.1500  13.2173  13.2445  13.3492
    13.3905  13.4664  13.5365  13.6612  13.8471

     occupation numbers 
     1.0000   1.0000   1.0000   1.0000   1.0000   1.0000   1.0000   1.0000
     1.0000   1.0000   1.0000   1.0000   1.0000   1.0000   1.0000   1.0000
     1.0000   1.0000   1.0000   1.0000   1.0000   1.0000   1.0000   1.0000
     1.0000   1.0000   1.0000   1.0000   1.0000   1.0000   1.0000   1.0000
     1.0000   1.0000   1.0000   1.0000   1.0000   1.0000   1.0000   1.0000
     1.0000   1.0000   1.0000   1.0000   1.0000   1.0000   1.0000   1.0000
     1.0000   1.0000   1.0000   1.0000   1.0000   1.0000   1.0000   1.0000
     1.0000   1.0000   1.0000   1.0000   1.0000   1.0000   1.0000   1.0000
     1.0000   1.0000   1.0000   1.0000   1.0000   1.0000   1.0000   1.0000
     1.0000   1.0000   1.0000   1.0000   1.0000   1.0000   1.0000   1.0000
     1.0000   1.0000   1.0000   1.0000   1.0000   1.0000   1.0000   1.0000
     1.0000   1.0000   1.0000   1.0000   1.0000   1.0000   1.0000   1.0000
     1.0000   1.0000   1.0000   1.0000   1.0000   1.0000   1.0000   1.0000
     1.0000   1.0000   1.0000   1.0000   1.0000   1.0000   1.0000   1.0000
     1.0000   1.0000   1.0000   1.0000   1.0000   1.0000   1.0000   1.0000
     1.0000   1.0000   1.0000   1.0000   1.0000   1.0000   1.0000   1.0000
     1.0000   1.0000   1.0000   1.0000   1.0000   0.0000   0.0000   0.0000
     0.0000   0.0000   0.0000   0.0000   0.0000   0.0000   0.0000   0.0000
     0.0000   0.0000   0.0000   0.0000   0.0000   0.0000   0.0000   0.0000
     0.0000   0.0000   0.0000   0.0000   0.0000

          k = 0.1656 0.0000-0.1417 ( 25956 PWs)   bands (ev):

   -82.0153 -67.9932 -67.8870 -67.4868 -67.4013 -67.3335 -49.0343 -47.8809
   -47.2966 -34.7562 -34.7424 -34.7349 -34.6501 -34.6389 -34.6232 -34.2415
   -34.2405 -34.2319 -34.1693 -34.1463 -34.1431 -34.1053 -34.0926 -34.0527
   -23.5279 -23.5022 -15.2306 -15.2016 -14.3916 -14.3731 -13.9639 -13.9533
   -13.7546 -13.5235 -13.4858 -13.4363 -13.3439 -13.1235 -13.0960 -13.0738
   -13.0570 -12.9609 -12.7424 -12.6969 -12.6053 -12.5862 -12.5122 -12.4370
   -11.3760 -11.1634  -7.0719  -7.0479  -7.0110  -6.9968  -6.9721  -6.9627
    -4.3819  -4.3638  -2.6561  -2.6119  -2.1875  -1.7834  -1.7132  -1.5503
    -1.1596  -1.0891  -1.0550  -0.9112  -0.7442  -0.6860  -0.6119  -0.5791
    -0.2280  -0.1267  -0.1005  -0.0335   0.2537   0.3411   0.3830   0.4685
     0.7865   0.8804   0.9287   1.0230   1.0748   1.2182   1.2651   1.3214
     1.4617   1.5183   1.6046   1.7227   1.7747   1.8544   1.9613   2.0085
     2.0273   2.0991   2.1685   2.2073   2.2456   2.3554   2.3954   2.4351
     2.5555   2.5902   2.6879   2.8055   2.8279   2.8722   2.9531   3.0306
     3.0795   3.1147   3.1892   3.2125   3.2420   3.3066   3.3325   3.4542
     3.5307   3.5560   3.6033   3.6910   3.7687   3.8674   4.1027   4.1683
     4.3637   4.6084   5.6678   6.0988   6.1593   9.1213   9.9690  10.9340
    11.2502  11.3403  11.7319  11.8322  12.0783  12.3774  12.5140  12.5927
    12.7776  12.8321  12.8769  12.9785  13.1168  13.1683  13.2731  13.3118
    13.3974  13.5284  13.6027  13.7197  13.8085

     occupation numbers 
     1.0000   1.0000   1.0000   1.0000   1.0000   1.0000   1.0000   1.0000
     1.0000   1.0000   1.0000   1.0000   1.0000   1.0000   1.0000   1.0000
     1.0000   1.0000   1.0000   1.0000   1.0000   1.0000   1.0000   1.0000
     1.0000   1.0000   1.0000   1.0000   1.0000   1.0000   1.0000   1.0000
     1.0000   1.0000   1.0000   1.0000   1.0000   1.0000   1.0000   1.0000
     1.0000   1.0000   1.0000   1.0000   1.0000   1.0000   1.0000   1.0000
     1.0000   1.0000   1.0000   1.0000   1.0000   1.0000   1.0000   1.0000
     1.0000   1.0000   1.0000   1.0000   1.0000   1.0000   1.0000   1.0000
     1.0000   1.0000   1.0000   1.0000   1.0000   1.0000   1.0000   1.0000
     1.0000   1.0000   1.0000   1.0000   1.0000   1.0000   1.0000   1.0000
     1.0000   1.0000   1.0000   1.0000   1.0000   1.0000   1.0000   1.0000
     1.0000   1.0000   1.0000   1.0000   1.0000   1.0000   1.0000   1.0000
     1.0000   1.0000   1.0000   1.0000   1.0000   1.0000   1.0000   1.0000
     1.0000   1.0000   1.0000   1.0000   1.0000   1.0000   1.0000   1.0000
     1.0000   1.0000   1.0000   1.0000   1.0000   1.0000   1.0000   1.0000
     1.0000   1.0000   1.0000   1.0000   1.0000   1.0000   1.0000   1.0000
     1.0000   1.0000   1.0000   1.0000   1.0000   0.0000   0.0000   0.0000
     0.0000   0.0000   0.0000   0.0000   0.0000   0.0000   0.0000   0.0000
     0.0000   0.0000   0.0000   0.0000   0.0000   0.0000   0.0000   0.0000
     0.0000   0.0000   0.0000   0.0000   0.0000

          k = 0.1656 0.1906 0.0301 ( 25937 PWs)   bands (ev):

   -82.0153 -67.9932 -67.8870 -67.4868 -67.4013 -67.3335 -49.0343 -47.8809
   -47.2966 -34.7562 -34.7424 -34.7349 -34.6501 -34.6389 -34.6232 -34.2414
   -34.2405 -34.2319 -34.1693 -34.1463 -34.1431 -34.1053 -34.0926 -34.0527
   -23.5279 -23.5022 -15.2327 -15.1899 -14.4272 -14.3905 -13.9577 -13.9366
   -13.7520 -13.4819 -13.4527 -13.3812 -13.3347 -13.1860 -13.1626 -13.0880
   -13.0631 -12.9544 -12.7473 -12.6794 -12.6113 -12.5724 -12.5212 -12.4293
   -11.3755 -11.1626  -7.0704  -7.0495  -7.0109  -6.9963  -6.9723  -6.9629
    -4.3545  -4.3146  -2.8307  -2.7496  -2.1628  -1.7230  -1.5502  -1.5166
    -1.1752  -1.0858  -1.0710  -0.9901  -0.7414  -0.6084  -0.5705  -0.4558
    -0.2896  -0.1598  -0.1239   0.0580   0.1936   0.3155   0.3570   0.4311
     0.7628   0.8140   0.9475   1.0170   1.0706   1.1816   1.2736   1.3468
     1.4443   1.5712   1.6206   1.7042   1.8026   1.8339   1.9313   2.0552
     2.0851   2.1331   2.1751   2.2420   2.2795   2.3390   2.3900   2.4833
     2.5759   2.6168   2.7083   2.7752   2.7961   2.8533   2.9313   3.0207
     3.0749   3.1307   3.1507   3.1790   3.2670   3.2891   3.4016   3.4504
     3.5130   3.5471   3.6039   3.6465   3.7442   3.8757   3.9747   4.1816
     4.3769   4.5912   5.6759   6.0798   6.1658   9.2907  10.1270  10.4956
    11.0295  11.4041  11.7709  12.1565  12.1830  12.3112  12.4748  12.5909
    12.6961  12.8289  12.8881  12.9937  13.0459  13.1915  13.2386  13.3259
    13.4410  13.5010  13.7195  13.8385  13.9659

     occupation numbers 
     1.0000   1.0000   1.0000   1.0000   1.0000   1.0000   1.0000   1.0000
     1.0000   1.0000   1.0000   1.0000   1.0000   1.0000   1.0000   1.0000
     1.0000   1.0000   1.0000   1.0000   1.0000   1.0000   1.0000   1.0000
     1.0000   1.0000   1.0000   1.0000   1.0000   1.0000   1.0000   1.0000
     1.0000   1.0000   1.0000   1.0000   1.0000   1.0000   1.0000   1.0000
     1.0000   1.0000   1.0000   1.0000   1.0000   1.0000   1.0000   1.0000
     1.0000   1.0000   1.0000   1.0000   1.0000   1.0000   1.0000   1.0000
     1.0000   1.0000   1.0000   1.0000   1.0000   1.0000   1.0000   1.0000
     1.0000   1.0000   1.0000   1.0000   1.0000   1.0000   1.0000   1.0000
     1.0000   1.0000   1.0000   1.0000   1.0000   1.0000   1.0000   1.0000
     1.0000   1.0000   1.0000   1.0000   1.0000   1.0000   1.0000   1.0000
     1.0000   1.0000   1.0000   1.0000   1.0000   1.0000   1.0000   1.0000
     1.0000   1.0000   1.0000   1.0000   1.0000   1.0000   1.0000   1.0000
     1.0000   1.0000   1.0000   1.0000   1.0000   1.0000   1.0000   1.0000
     1.0000   1.0000   1.0000   1.0000   1.0000   1.0000   1.0000   1.0000
     1.0000   1.0000   1.0000   1.0000   1.0000   1.0000   1.0000   1.0000
     1.0000   1.0000   1.0000   1.0000   1.0000   0.0000   0.0000   0.0000
     0.0000   0.0000   0.0000   0.0000   0.0000   0.0000   0.0000   0.0000
     0.0000   0.0000   0.0000   0.0000   0.0000   0.0000   0.0000   0.0000
     0.0000   0.0000   0.0000   0.0000   0.0000

          k = 0.1656 0.1906 0.2018 ( 25944 PWs)   bands (ev):

   -82.0153 -67.9932 -67.8870 -67.4868 -67.4013 -67.3335 -49.0343 -47.8809
   -47.2966 -34.7562 -34.7424 -34.7349 -34.6501 -34.6389 -34.6232 -34.2414
   -34.2405 -34.2319 -34.1693 -34.1463 -34.1431 -34.1053 -34.0926 -34.0527
   -23.5279 -23.5022 -15.2206 -15.2026 -14.4170 -14.4013 -13.9558 -13.9385
   -13.7506 -13.4765 -13.4521 -13.3946 -13.3260 -13.1942 -13.1549 -13.0875
   -13.0619 -12.9576 -12.7437 -12.6846 -12.6072 -12.5759 -12.5118 -12.4371
   -11.3752 -11.1631  -7.0705  -7.0495  -7.0109  -6.9962  -6.9722  -6.9629
    -4.3572  -4.3119  -2.8111  -2.7710  -2.1513  -1.7051  -1.5685  -1.5038
    -1.1732  -1.1010  -1.0601  -0.9688  -0.7483  -0.6681  -0.5508  -0.4855
    -0.2651  -0.2068  -0.1032   0.0164   0.1874   0.3136   0.3553   0.4503
     0.7795   0.8212   0.9271   1.0492   1.0998   1.2268   1.3007   1.3879
     1.4713   1.5405   1.5917   1.7153   1.7446   1.8955   1.9509   2.0559
     2.0813   2.1205   2.1692   2.2306   2.2495   2.3172   2.4036   2.4575
     2.5473   2.6002   2.7182   2.7482   2.8181   2.8560   2.9548   3.0061
     3.0408   3.1312   3.1511   3.1886   3.2606   3.3098   3.3639   3.4524
     3.5369   3.5619   3.5833   3.6835   3.7521   3.8485   3.9906   4.1928
     4.3723   4.5896   5.6761   6.0729   6.1660   9.5966  10.0133  10.3310
    10.7098  11.3985  11.7574  12.1719  12.2553  12.3988  12.6250  12.6954
    12.8333  12.9137  12.9463  13.0017  13.0925  13.1525  13.2269  13.3047
    13.3497  13.4820  13.5771  13.7792  13.8683

     occupation numbers 
     1.0000   1.0000   1.0000   1.0000   1.0000   1.0000   1.0000   1.0000
     1.0000   1.0000   1.0000   1.0000   1.0000   1.0000   1.0000   1.0000
     1.0000   1.0000   1.0000   1.0000   1.0000   1.0000   1.0000   1.0000
     1.0000   1.0000   1.0000   1.0000   1.0000   1.0000   1.0000   1.0000
     1.0000   1.0000   1.0000   1.0000   1.0000   1.0000   1.0000   1.0000
     1.0000   1.0000   1.0000   1.0000   1.0000   1.0000   1.0000   1.0000
     1.0000   1.0000   1.0000   1.0000   1.0000   1.0000   1.0000   1.0000
     1.0000   1.0000   1.0000   1.0000   1.0000   1.0000   1.0000   1.0000
     1.0000   1.0000   1.0000   1.0000   1.0000   1.0000   1.0000   1.0000
     1.0000   1.0000   1.0000   1.0000   1.0000   1.0000   1.0000   1.0000
     1.0000   1.0000   1.0000   1.0000   1.0000   1.0000   1.0000   1.0000
     1.0000   1.0000   1.0000   1.0000   1.0000   1.0000   1.0000   1.0000
     1.0000   1.0000   1.0000   1.0000   1.0000   1.0000   1.0000   1.0000
     1.0000   1.0000   1.0000   1.0000   1.0000   1.0000   1.0000   1.0000
     1.0000   1.0000   1.0000   1.0000   1.0000   1.0000   1.0000   1.0000
     1.0000   1.0000   1.0000   1.0000   1.0000   1.0000   1.0000   1.0000
     1.0000   1.0000   1.0000   1.0000   1.0000   0.0000   0.0000   0.0000
     0.0000   0.0000   0.0000   0.0000   0.0000   0.0000   0.0000   0.0000
     0.0000   0.0000   0.0000   0.0000   0.0000   0.0000   0.0000   0.0000
     0.0000   0.0000   0.0000   0.0000   0.0000

          k = 0.1656 0.1906-0.1417 ( 25923 PWs)   bands (ev):

   -82.0153 -67.9932 -67.8870 -67.4868 -67.4013 -67.3335 -49.0343 -47.8809
   -47.2966 -34.7562 -34.7424 -34.7349 -34.6501 -34.6389 -34.6232 -34.2414
   -34.2405 -34.2319 -34.1693 -34.1463 -34.1431 -34.1053 -34.0926 -34.0527
   -23.5279 -23.5022 -15.2258 -15.1972 -14.4198 -14.3984 -13.9515 -13.9430
   -13.7509 -13.4753 -13.4552 -13.3907 -13.3287 -13.1876 -13.1621 -13.0885
   -13.0600 -12.9578 -12.7407 -12.6866 -12.5968 -12.5887 -12.5109 -12.4359
   -11.3750 -11.1631  -7.0705  -7.0496  -7.0109  -6.9962  -6.9723  -6.9629
    -4.3417  -4.3276  -2.8113  -2.7704  -2.1558  -1.7115  -1.5659  -1.5033
    -1.1635  -1.1042  -1.0577  -0.9775  -0.7500  -0.6440  -0.5662  -0.4756
    -0.2785  -0.1953  -0.1296   0.0420   0.2106   0.3083   0.3874   0.4408
     0.7591   0.8020   0.9239   1.0388   1.0987   1.1981   1.2982   1.4079
     1.4567   1.5667   1.6065   1.6824   1.7765   1.8617   1.9416   2.0347
     2.0822   2.1227   2.1599   2.2523   2.2679   2.3326   2.4157   2.4212
     2.5495   2.5992   2.7334   2.7881   2.8106   2.8478   2.9645   3.0216
     3.0750   3.1247   3.1494   3.2018   3.2507   3.2989   3.3669   3.4469
     3.4940   3.5499   3.5716   3.6961   3.7519   3.8549   3.9898   4.1900
     4.3696   4.5921   5.6762   6.0714   6.1694   9.4580  10.1980  10.2818
    10.8084  11.4616  11.7946  12.1035  12.2278  12.4176  12.5434  12.5846
    12.7935  12.8790  12.9299  12.9835  13.0985  13.1526  13.2614  13.3182
    13.3897  13.4402  13.5552  13.8280  13.8813

     occupation numbers 
     1.0000   1.0000   1.0000   1.0000   1.0000   1.0000   1.0000   1.0000
     1.0000   1.0000   1.0000   1.0000   1.0000   1.0000   1.0000   1.0000
     1.0000   1.0000   1.0000   1.0000   1.0000   1.0000   1.0000   1.0000
     1.0000   1.0000   1.0000   1.0000   1.0000   1.0000   1.0000   1.0000
     1.0000   1.0000   1.0000   1.0000   1.0000   1.0000   1.0000   1.0000
     1.0000   1.0000   1.0000   1.0000   1.0000   1.0000   1.0000   1.0000
     1.0000   1.0000   1.0000   1.0000   1.0000   1.0000   1.0000   1.0000
     1.0000   1.0000   1.0000   1.0000   1.0000   1.0000   1.0000   1.0000
     1.0000   1.0000   1.0000   1.0000   1.0000   1.0000   1.0000   1.0000
     1.0000   1.0000   1.0000   1.0000   1.0000   1.0000   1.0000   1.0000
     1.0000   1.0000   1.0000   1.0000   1.0000   1.0000   1.0000   1.0000
     1.0000   1.0000   1.0000   1.0000   1.0000   1.0000   1.0000   1.0000
     1.0000   1.0000   1.0000   1.0000   1.0000   1.0000   1.0000   1.0000
     1.0000   1.0000   1.0000   1.0000   1.0000   1.0000   1.0000   1.0000
     1.0000   1.0000   1.0000   1.0000   1.0000   1.0000   1.0000   1.0000
     1.0000   1.0000   1.0000   1.0000   1.0000   1.0000   1.0000   1.0000
     1.0000   1.0000   1.0000   1.0000   1.0000   0.0000   0.0000   0.0000
     0.0000   0.0000   0.0000   0.0000   0.0000   0.0000   0.0000   0.0000
     0.0000   0.0000   0.0000   0.0000   0.0000   0.0000   0.0000   0.0000
     0.0000   0.0000   0.0000   0.0000   0.0000

          k = 0.3312 0.0000 0.0601 ( 25907 PWs)   bands (ev):

   -82.0153 -67.9932 -67.8870 -67.4868 -67.4013 -67.3335 -49.0343 -47.8809
   -47.2966 -34.7560 -34.7426 -34.7348 -34.6503 -34.6387 -34.6233 -34.2416
   -34.2403 -34.2318 -34.1691 -34.1461 -34.1434 -34.1044 -34.0930 -34.0532
   -23.5277 -23.5020 -15.0808 -15.0422 -14.5068 -14.4802 -14.0972 -14.0712
   -13.7113 -13.4963 -13.4123 -13.3303 -13.2821 -13.1760 -13.1058 -13.0738
   -13.0614 -12.9685 -12.8079 -12.7551 -12.6790 -12.6119 -12.5092 -12.4226
   -11.3716 -11.1726  -7.0718  -7.0539  -7.0106  -6.9949  -6.9719  -6.9589
    -3.9889  -3.9357  -2.7934  -2.6986  -2.1327  -1.9454  -1.8010  -1.5234
    -1.2992  -1.0134  -0.9773  -0.9437  -0.7417  -0.6461  -0.5178  -0.4911
    -0.3173  -0.1942  -0.0141   0.0652   0.2270   0.3229   0.3655   0.3829
     0.6994   0.8384   0.9390   1.0005   1.0743   1.1718   1.2737   1.2778
     1.3508   1.4145   1.5388   1.6589   1.7694   1.8164   1.9628   2.0168
     2.1049   2.1416   2.2481   2.2792   2.3518   2.4152   2.4538   2.5258
     2.5500   2.6145   2.6365   2.7357   2.8145   2.8805   2.8973   2.9504
     2.9607   3.0186   3.0916   3.1599   3.2474   3.3052   3.3321   3.4072
     3.4272   3.4712   3.5799   3.6426   3.6832   3.9328   4.0228   4.0886
     4.3929   4.5315   5.6742   6.1146   6.1633   9.7139  10.7031  10.9559
    11.4369  11.4725  11.7533  11.8317  12.2397  12.3044  12.3433  12.5337
    12.6428  12.7738  12.8512  13.1084  13.1397  13.1897  13.2450  13.2866
    13.4786  13.6399  13.7744  13.8560  13.9725

     occupation numbers 
     1.0000   1.0000   1.0000   1.0000   1.0000   1.0000   1.0000   1.0000
     1.0000   1.0000   1.0000   1.0000   1.0000   1.0000   1.0000   1.0000
     1.0000   1.0000   1.0000   1.0000   1.0000   1.0000   1.0000   1.0000
     1.0000   1.0000   1.0000   1.0000   1.0000   1.0000   1.0000   1.0000
     1.0000   1.0000   1.0000   1.0000   1.0000   1.0000   1.0000   1.0000
     1.0000   1.0000   1.0000   1.0000   1.0000   1.0000   1.0000   1.0000
     1.0000   1.0000   1.0000   1.0000   1.0000   1.0000   1.0000   1.0000
     1.0000   1.0000   1.0000   1.0000   1.0000   1.0000   1.0000   1.0000
     1.0000   1.0000   1.0000   1.0000   1.0000   1.0000   1.0000   1.0000
     1.0000   1.0000   1.0000   1.0000   1.0000   1.0000   1.0000   1.0000
     1.0000   1.0000   1.0000   1.0000   1.0000   1.0000   1.0000   1.0000
     1.0000   1.0000   1.0000   1.0000   1.0000   1.0000   1.0000   1.0000
     1.0000   1.0000   1.0000   1.0000   1.0000   1.0000   1.0000   1.0000
     1.0000   1.0000   1.0000   1.0000   1.0000   1.0000   1.0000   1.0000
     1.0000   1.0000   1.0000   1.0000   1.0000   1.0000   1.0000   1.0000
     1.0000   1.0000   1.0000   1.0000   1.0000   1.0000   1.0000   1.0000
     1.0000   1.0000   1.0000   1.0000   1.0000   0.0000   0.0000   0.0000
     0.0000   0.0000   0.0000   0.0000   0.0000   0.0000   0.0000   0.0000
     0.0000   0.0000   0.0000   0.0000   0.0000   0.0000   0.0000   0.0000
     0.0000   0.0000   0.0000   0.0000   0.0000

          k = 0.3312 0.0000 0.2319 ( 25948 PWs)   bands (ev):

   -82.0153 -67.9932 -67.8870 -67.4868 -67.4013 -67.3335 -49.0343 -47.8809
   -47.2966 -34.7560 -34.7427 -34.7348 -34.6503 -34.6387 -34.6233 -34.2417
   -34.2403 -34.2318 -34.1691 -34.1461 -34.1434 -34.1044 -34.0930 -34.0532
   -23.5277 -23.5020 -15.0669 -15.0567 -14.5050 -14.4820 -14.0909 -14.0779
   -13.7103 -13.4961 -13.4044 -13.3455 -13.2755 -13.1729 -13.1121 -13.0712
   -13.0590 -12.9713 -12.8025 -12.7624 -12.6687 -12.6197 -12.5001 -12.4308
   -11.3710 -11.1733  -7.0718  -7.0539  -7.0106  -6.9948  -6.9718  -6.9589
    -3.9930  -3.9315  -2.7756  -2.7186  -2.1169  -1.9676  -1.7884  -1.5109
    -1.3072  -0.9959  -0.9854  -0.9267  -0.7342  -0.6384  -0.5644  -0.5209
    -0.2787  -0.2427  -0.0184   0.0464   0.2243   0.3263   0.3475   0.4121
     0.7531   0.8478   0.9275   1.0048   1.0282   1.1821   1.2556   1.3387
     1.3900   1.4512   1.4964   1.6903   1.7624   1.8363   1.9492   1.9669
     2.0917   2.1541   2.2037   2.2888   2.3595   2.4085   2.4352   2.5073
     2.5850   2.6096   2.6328   2.7626   2.7933   2.8533   2.8849   2.9602
     3.0005   3.0088   3.0946   3.1511   3.2530   3.2981   3.3249   3.4069
     3.4345   3.4932   3.5336   3.6479   3.7118   3.9099   4.0483   4.1021
     4.3839   4.5323   5.6740   6.1091   6.1642  10.0311  10.2354  11.0163
    11.3939  11.5134  11.7135  11.8768  12.1869  12.2467  12.3621  12.4630
    12.8723  12.9011  12.9911  13.0296  13.0927  13.1696  13.2518  13.3677
    13.4315  13.4782  13.5668  13.9451  14.0238

     occupation numbers 
     1.0000   1.0000   1.0000   1.0000   1.0000   1.0000   1.0000   1.0000
     1.0000   1.0000   1.0000   1.0000   1.0000   1.0000   1.0000   1.0000
     1.0000   1.0000   1.0000   1.0000   1.0000   1.0000   1.0000   1.0000
     1.0000   1.0000   1.0000   1.0000   1.0000   1.0000   1.0000   1.0000
     1.0000   1.0000   1.0000   1.0000   1.0000   1.0000   1.0000   1.0000
     1.0000   1.0000   1.0000   1.0000   1.0000   1.0000   1.0000   1.0000
     1.0000   1.0000   1.0000   1.0000   1.0000   1.0000   1.0000   1.0000
     1.0000   1.0000   1.0000   1.0000   1.0000   1.0000   1.0000   1.0000
     1.0000   1.0000   1.0000   1.0000   1.0000   1.0000   1.0000   1.0000
     1.0000   1.0000   1.0000   1.0000   1.0000   1.0000   1.0000   1.0000
     1.0000   1.0000   1.0000   1.0000   1.0000   1.0000   1.0000   1.0000
     1.0000   1.0000   1.0000   1.0000   1.0000   1.0000   1.0000   1.0000
     1.0000   1.0000   1.0000   1.0000   1.0000   1.0000   1.0000   1.0000
     1.0000   1.0000   1.0000   1.0000   1.0000   1.0000   1.0000   1.0000
     1.0000   1.0000   1.0000   1.0000   1.0000   1.0000   1.0000   1.0000
     1.0000   1.0000   1.0000   1.0000   1.0000   1.0000   1.0000   1.0000
     1.0000   1.0000   1.0000   1.0000   1.0000   0.0000   0.0000   0.0000
     0.0000   0.0000   0.0000   0.0000   0.0000   0.0000   0.0000   0.0000
     0.0000   0.0000   0.0000   0.0000   0.0000   0.0000   0.0000   0.0000
     0.0000   0.0000   0.0000   0.0000   0.0000

          k = 0.3312 0.0000-0.1116 ( 25913 PWs)   bands (ev):

   -82.0153 -67.9932 -67.8870 -67.4868 -67.4013 -67.3335 -49.0343 -47.8809
   -47.2966 -34.7560 -34.7426 -34.7348 -34.6503 -34.6387 -34.6233 -34.2416
   -34.2403 -34.2318 -34.1691 -34.1461 -34.1434 -34.1044 -34.0930 -34.0532
   -23.5277 -23.5020 -15.0768 -15.0464 -14.4992 -14.4880 -14.0925 -14.0762
   -13.7110 -13.4959 -13.4069 -13.3417 -13.2770 -13.1704 -13.1160 -13.0651
   -13.0627 -12.9724 -12.7986 -12.7668 -12.6647 -12.6230 -12.5018 -12.4287
   -11.3709 -11.1732  -7.0719  -7.0539  -7.0106  -6.9948  -6.9718  -6.9588
    -3.9684  -3.9567  -2.7857  -2.7078  -2.1272  -1.9452  -1.8076  -1.5161
    -1.3006  -1.0002  -0.9680  -0.9444  -0.7211  -0.6524  -0.5594  -0.4997
    -0.3192  -0.2173   0.0074   0.0314   0.2532   0.3076   0.3852   0.3877
     0.7367   0.8198   0.9269   1.0207   1.0726   1.1580   1.2532   1.3309
     1.3700   1.3855   1.5514   1.6669   1.7693   1.8163   1.9496   1.9938
     2.1016   2.1345   2.2104   2.2976   2.3581   2.4229   2.4414   2.5002
     2.5584   2.5925   2.6444   2.7354   2.8124   2.8685   2.9179   2.9864
     3.0184   3.0672   3.1137   3.1547   3.2103   3.2714   3.3366   3.3838
     3.4296   3.4541   3.4984   3.6384   3.7440   3.9312   4.0347   4.1065
     4.3804   4.5318   5.6741   6.1081   6.1690   9.7651  10.5809  11.0860
    11.3210  11.5773  11.7388  11.9195  12.1718  12.2498  12.3827  12.4903
    12.6077  12.8063  12.9198  12.9422  13.1681  13.1760  13.2317  13.2414
    13.5344  13.6370  13.7011  13.8126  14.0267

     occupation numbers 
     1.0000   1.0000   1.0000   1.0000   1.0000   1.0000   1.0000   1.0000
     1.0000   1.0000   1.0000   1.0000   1.0000   1.0000   1.0000   1.0000
     1.0000   1.0000   1.0000   1.0000   1.0000   1.0000   1.0000   1.0000
     1.0000   1.0000   1.0000   1.0000   1.0000   1.0000   1.0000   1.0000
     1.0000   1.0000   1.0000   1.0000   1.0000   1.0000   1.0000   1.0000
     1.0000   1.0000   1.0000   1.0000   1.0000   1.0000   1.0000   1.0000
     1.0000   1.0000   1.0000   1.0000   1.0000   1.0000   1.0000   1.0000
     1.0000   1.0000   1.0000   1.0000   1.0000   1.0000   1.0000   1.0000
     1.0000   1.0000   1.0000   1.0000   1.0000   1.0000   1.0000   1.0000
     1.0000   1.0000   1.0000   1.0000   1.0000   1.0000   1.0000   1.0000
     1.0000   1.0000   1.0000   1.0000   1.0000   1.0000   1.0000   1.0000
     1.0000   1.0000   1.0000   1.0000   1.0000   1.0000   1.0000   1.0000
     1.0000   1.0000   1.0000   1.0000   1.0000   1.0000   1.0000   1.0000
     1.0000   1.0000   1.0000   1.0000   1.0000   1.0000   1.0000   1.0000
     1.0000   1.0000   1.0000   1.0000   1.0000   1.0000   1.0000   1.0000
     1.0000   1.0000   1.0000   1.0000   1.0000   1.0000   1.0000   1.0000
     1.0000   1.0000   1.0000   1.0000   1.0000   0.0000   0.0000   0.0000
     0.0000   0.0000   0.0000   0.0000   0.0000   0.0000   0.0000   0.0000
     0.0000   0.0000   0.0000   0.0000   0.0000   0.0000   0.0000   0.0000
     0.0000   0.0000   0.0000   0.0000   0.0000

          k = 0.3312 0.1906 0.0601 ( 25923 PWs)   bands (ev):

   -82.0153 -67.9932 -67.8870 -67.4868 -67.4013 -67.3335 -49.0343 -47.8809
   -47.2966 -34.7560 -34.7426 -34.7348 -34.6503 -34.6387 -34.6233 -34.2416
   -34.2403 -34.2318 -34.1692 -34.1461 -34.1434 -34.1044 -34.0930 -34.0532
   -23.5277 -23.5020 -15.0772 -15.0387 -14.5181 -14.4902 -14.0936 -14.0691
   -13.7099 -13.4972 -13.3945 -13.2962 -13.2539 -13.1965 -13.1421 -13.0945
   -13.0670 -12.9740 -12.8018 -12.7434 -12.6774 -12.6164 -12.5077 -12.4225
   -11.3711 -11.1725  -7.0714  -7.0549  -7.0107  -6.9945  -6.9716  -6.9590
    -3.9649  -3.9131  -2.8944  -2.8123  -2.0814  -1.8466  -1.7389  -1.5223
    -1.2959  -1.0462  -0.9739  -0.9089  -0.7891  -0.5740  -0.5224  -0.4160
    -0.3312  -0.2395  -0.0368   0.0830   0.2290   0.2961   0.3187   0.3668
     0.6819   0.7474   0.9815   1.0560   1.0970   1.1757   1.2349   1.3253
     1.3362   1.4208   1.5329   1.6125   1.7702   1.8506   1.9956   2.0516
     2.0952   2.1389   2.1793   2.2574   2.3134   2.4241   2.4315   2.5002
     2.5969   2.6247   2.7047   2.7622   2.8139   2.8591   2.9086   2.9483
     2.9888   3.0641   3.1127   3.1647   3.2254   3.2663   3.3313   3.3722
     3.3893   3.5079   3.5838   3.6441   3.6781   3.9257   3.9970   4.0827
     4.3977   4.5167   5.6801   6.0901   6.1758   9.9645  10.5696  10.8740
    11.2740  11.4182  11.6253  12.0302  12.1179  12.2524  12.3677  12.6511
    12.7219  12.8179  12.9098  13.0005  13.0537  13.1981  13.3074  13.4223
    13.5428  13.7105  13.7963  13.8735  13.9426

     occupation numbers 
     1.0000   1.0000   1.0000   1.0000   1.0000   1.0000   1.0000   1.0000
     1.0000   1.0000   1.0000   1.0000   1.0000   1.0000   1.0000   1.0000
     1.0000   1.0000   1.0000   1.0000   1.0000   1.0000   1.0000   1.0000
     1.0000   1.0000   1.0000   1.0000   1.0000   1.0000   1.0000   1.0000
     1.0000   1.0000   1.0000   1.0000   1.0000   1.0000   1.0000   1.0000
     1.0000   1.0000   1.0000   1.0000   1.0000   1.0000   1.0000   1.0000
     1.0000   1.0000   1.0000   1.0000   1.0000   1.0000   1.0000   1.0000
     1.0000   1.0000   1.0000   1.0000   1.0000   1.0000   1.0000   1.0000
     1.0000   1.0000   1.0000   1.0000   1.0000   1.0000   1.0000   1.0000
     1.0000   1.0000   1.0000   1.0000   1.0000   1.0000   1.0000   1.0000
     1.0000   1.0000   1.0000   1.0000   1.0000   1.0000   1.0000   1.0000
     1.0000   1.0000   1.0000   1.0000   1.0000   1.0000   1.0000   1.0000
     1.0000   1.0000   1.0000   1.0000   1.0000   1.0000   1.0000   1.0000
     1.0000   1.0000   1.0000   1.0000   1.0000   1.0000   1.0000   1.0000
     1.0000   1.0000   1.0000   1.0000   1.0000   1.0000   1.0000   1.0000
     1.0000   1.0000   1.0000   1.0000   1.0000   1.0000   1.0000   1.0000
     1.0000   1.0000   1.0000   1.0000   1.0000   0.0000   0.0000   0.0000
[...]
     atom   11 type  7   force =     0.00009610    0.00215803    0.01426446
     atom   12 type  7   force =    -0.00132352   -0.01191666    0.01070442
     atom   13 type  7   force =     0.00132352   -0.01191666   -0.01070442
     atom   14 type  1   force =    -0.00043928   -0.00218738   -0.01000105
     atom   15 type  1   force =     0.00043932   -0.00218738    0.01000099
     atom   16 type  6   force =     0.00028455    0.00128474    0.00617999
     atom   17 type  6   force =    -0.00028456    0.00128473   -0.00617999
     atom   18 type  6   force =    -0.00042961   -0.00080848   -0.00683488
     atom   19 type  6   force =     0.00042961   -0.00080848    0.00683488
     atom   20 type  6   force =     0.00008138   -0.00028798    0.00683164
     atom   21 type  6   force =    -0.00008140   -0.00028798   -0.00683163
     atom   22 type  6   force =     0.00004951    0.00012294   -0.00316874
     atom   23 type  6   force =    -0.00004950    0.00012294    0.00316876
     atom   24 type  6   force =     0.00458379   -0.00162733   -0.00594354
     atom   25 type  6   force =    -0.00458380   -0.00162733    0.00594350
     atom   26 type  6   force =    -0.00333157    0.00078164   -0.00684982
     atom   27 type  6   force =     0.00333156    0.00078164    0.00684983
     atom   28 type  6   force =    -0.00150021    0.00207257    0.00744295
     atom   29 type  6   force =     0.00150021    0.00207258   -0.00744294
     atom   30 type  6   force =     0.00069503   -0.00182326   -0.00746454
     atom   31 type  6   force =    -0.00069503   -0.00182325    0.00746457
     atom   32 type  6   force =    -0.00222518   -0.00351674   -0.00645745
     atom   33 type  6   force =     0.00222515   -0.00351674    0.00645745
     atom   34 type  6   force =     0.00125266    0.00395874    0.00646773
     atom   35 type  6   force =    -0.00125266    0.00395875   -0.00646772
     atom   36 type  6   force =    -0.00010988    0.00058349    0.01136722
     atom   37 type  6   force =     0.00010988    0.00058349   -0.01136722
     atom   38 type  6   force =    -0.00237301   -0.00137836    0.01079636
     atom   39 type  6   force =     0.00237302   -0.00137835   -0.01079634
     atom   40 type  3   force =     0.00000000    0.00000000    0.00000000
     atom   41 type  3   force =     0.00000000    0.00000000    0.00000000
     atom   42 type  3   force =     0.00000000    0.00000000    0.00000000
     atom   43 type  3   force =     0.00000000    0.00000000    0.00000000
     atom   44 type  2   force =     0.00000000    0.00146440   -0.00000000
     The Hubbard contrib.    to forces
     atom    1 type  4   force =     0.00000000    0.00000000    0.00000000
     atom    2 type  4   force =     0.00000000    0.00000000    0.00000000
     atom    3 type  5   force =     0.00000000    0.00000000    0.00000000
     atom    4 type  5   force =     0.00000000    0.00000000    0.00000000
     atom    5 type  5   force =     0.00000000    0.00000000    0.00000000
     atom    6 type  5   force =     0.00000000    0.00000000    0.00000000
     atom    7 type  5   force =     0.00000000    0.00000000    0.00000000
     atom    8 type  7   force =     0.00000000    0.00000000    0.00000000
     atom    9 type  7   force =     0.00000000    0.00000000    0.00000000
     atom   10 type  7   force =     0.00000000    0.00000000    0.00000000
     atom   11 type  7   force =     0.00000000    0.00000000    0.00000000
     atom   12 type  7   force =     0.00000000    0.00000000    0.00000000
     atom   13 type  7   force =     0.00000000    0.00000000    0.00000000
     atom   14 type  1   force =     0.00000000    0.00000000    0.00000000
     atom   15 type  1   force =     0.00000000    0.00000000    0.00000000
     atom   16 type  6   force =     0.00000000    0.00000000    0.00000000
     atom   17 type  6   force =     0.00000000    0.00000000    0.00000000
     atom   18 type  6   force =     0.00000000    0.00000000    0.00000000
     atom   19 type  6   force =     0.00000000    0.00000000    0.00000000
     atom   20 type  6   force =     0.00000000    0.00000000    0.00000000
     atom   21 type  6   force =     0.00000000    0.00000000    0.00000000
     atom   22 type  6   force =     0.00000000    0.00000000    0.00000000
     atom   23 type  6   force =     0.00000000    0.00000000    0.00000000
     atom   24 type  6   force =     0.00000000    0.00000000    0.00000000
     atom   25 type  6   force =     0.00000000    0.00000000    0.00000000
     atom   26 type  6   force =     0.00000000    0.00000000    0.00000000
     atom   27 type  6   force =     0.00000000    0.00000000    0.00000000
     atom   28 type  6   force =     0.00000000    0.00000000    0.00000000
     atom   29 type  6   force =     0.00000000    0.00000000    0.00000000
     atom   30 type  6   force =     0.00000000    0.00000000    0.00000000
     atom   31 type  6   force =     0.00000000    0.00000000    0.00000000
     atom   32 type  6   force =     0.00000000    0.00000000    0.00000000
     atom   33 type  6   force =     0.00000000    0.00000000    0.00000000
     atom   34 type  6   force =     0.00000000    0.00000000    0.00000000
     atom   35 type  6   force =     0.00000000    0.00000000    0.00000000
     atom   36 type  6   force =     0.00000000    0.00000000    0.00000000
     atom   37 type  6   force =     0.00000000    0.00000000    0.00000000
     atom   38 type  6   force =     0.00000000    0.00000000    0.00000000
     atom   39 type  6   force =     0.00000000    0.00000000    0.00000000
     atom   40 type  3   force =     0.00000000    0.00000000    0.00000000
     atom   41 type  3   force =     0.00000000    0.00000000    0.00000000
     atom   42 type  3   force =     0.00000000    0.00000000    0.00000000
     atom   43 type  3   force =     0.00000000    0.00000000    0.00000000
     atom   44 type  2   force =     0.00000000    0.00000000    0.00000000
     The SCF correction term to forces
     atom    1 type  4   force =    -0.00000000   -0.00003047    0.00000000
     atom    2 type  4   force =     0.00000000    0.00004013   -0.00000000
     atom    3 type  5   force =     0.00000000    0.00009019    0.00000000
     atom    4 type  5   force =     0.00000000   -0.00003658   -0.00000000
     atom    5 type  5   force =    -0.00000000    0.00028282   -0.00000000
     atom    6 type  5   force =    -0.00000000   -0.00006432    0.00000000
     atom    7 type  5   force =     0.00000000   -0.00024018   -0.00000000
     atom    8 type  7   force =    -0.00001249   -0.00002957    0.00001717
     atom    9 type  7   force =     0.00001249   -0.00002957   -0.00001717
     atom   10 type  7   force =     0.00001043    0.00001138   -0.00001295
     atom   11 type  7   force =    -0.00001043    0.00001138    0.00001295
     atom   12 type  7   force =     0.00000839    0.00001555    0.00003155
     atom   13 type  7   force =    -0.00000839    0.00001555   -0.00003155
     atom   14 type  1   force =    -0.00000098   -0.00000053    0.00006755
     atom   15 type  1   force =     0.00000098   -0.00000053   -0.00006755
     atom   16 type  6   force =    -0.00001415   -0.00003606   -0.00002781
     atom   17 type  6   force =     0.00001415   -0.00003606    0.00002781
     atom   18 type  6   force =    -0.00000542    0.00000825   -0.00007604
     atom   19 type  6   force =     0.00000542    0.00000825    0.00007604
     atom   20 type  6   force =    -0.00001158   -0.00000725    0.00008362
     atom   21 type  6   force =     0.00001158   -0.00000725   -0.00008362
     atom   22 type  6   force =    -0.00002136    0.00003917    0.00012103
     atom   23 type  6   force =     0.00002136    0.00003917   -0.00012103
     atom   24 type  6   force =     0.00006370    0.00005205    0.00004418
     atom   25 type  6   force =    -0.00006370    0.00005205   -0.00004418
     atom   26 type  6   force =    -0.00005123    0.00007898    0.00005437
     atom   27 type  6   force =     0.00005123    0.00007898   -0.00005437
     atom   28 type  6   force =    -0.00005004   -0.00000535   -0.00001755
     atom   29 type  6   force =     0.00005004   -0.00000535    0.00001755
     atom   30 type  6   force =    -0.00003614   -0.00003032    0.00002219
     atom   31 type  6   force =     0.00003614   -0.00003032   -0.00002219
     atom   32 type  6   force =     0.00001768   -0.00006910    0.00003636
     atom   33 type  6   force =    -0.00001768   -0.00006910   -0.00003636
     atom   34 type  6   force =     0.00006618    0.00001334   -0.00006761
     atom   35 type  6   force =    -0.00006618    0.00001334    0.00006761
     atom   36 type  6   force =    -0.00000000    0.00001832    0.00005451
     atom   37 type  6   force =     0.00000000    0.00001832   -0.00005451
     atom   38 type  6   force =     0.00008240   -0.00001470    0.00003689
     atom   39 type  6   force =    -0.00008240   -0.00001470   -0.00003689
     atom   40 type  3   force =    -0.00000045    0.00000053    0.00000050
     atom   41 type  3   force =     0.00000045    0.00000053   -0.00000050
     atom   42 type  3   force =     0.00000602   -0.00000466    0.00002889
     atom   43 type  3   force =    -0.00000602   -0.00000466   -0.00002889
     atom   44 type  2   force =    -0.00000000   -0.00005488    0.00000000

     DFT-D3 dispersion contribution to forces:
     atom    1 type  4   force =    -0.00000000    0.00111529   -0.00000000
     atom    2 type  4   force =     0.00000000   -0.00088244    0.00000000
     atom    3 type  5   force =    -0.00000000    0.00062529    0.00000000
     atom    4 type  5   force =     0.00000000   -0.00106244    0.00000000
     atom    5 type  5   force =     0.00000000   -0.00061517    0.00000000
     atom    6 type  5   force =     0.00000000    0.00109667   -0.00000000
     atom    7 type  5   force =     0.00000000   -0.00012532   -0.00000000
     atom    8 type  7   force =     0.00000561   -0.00013564   -0.00012019
     atom    9 type  7   force =    -0.00000561   -0.00013564    0.00012019
     atom   10 type  7   force =     0.00008038    0.00013950    0.00003157
     atom   11 type  7   force =    -0.00008039    0.00013950   -0.00003157
     atom   12 type  7   force =    -0.00001112    0.00004969   -0.00025192
     atom   13 type  7   force =     0.00001112    0.00004969    0.00025192
     atom   14 type  1   force =     0.00003280    0.00020278   -0.00083388
     atom   15 type  1   force =    -0.00003280    0.00020278    0.00083388
     atom   16 type  6   force =    -0.00002196   -0.00000813    0.00049212
     atom   17 type  6   force =     0.00002196   -0.00000813   -0.00049212
     atom   18 type  6   force =     0.00004814    0.00004054   -0.00046252
     atom   19 type  6   force =    -0.00004814    0.00004054    0.00046252
     atom   20 type  6   force =    -0.00002383   -0.00008301    0.00042885
     atom   21 type  6   force =     0.00002383   -0.00008301   -0.00042885
     atom   22 type  6   force =    -0.00000413    0.00000795    0.00006964
     atom   23 type  6   force =     0.00000413    0.00000795   -0.00006964
     atom   24 type  6   force =    -0.00017069    0.00099162    0.00032420
     atom   25 type  6   force =     0.00017069    0.00099162   -0.00032420
     atom   26 type  6   force =     0.00085220    0.00007709    0.00020131
     atom   27 type  6   force =    -0.00085220    0.00007709   -0.00020131
     atom   28 type  6   force =     0.00033884   -0.00052975    0.00002890
     atom   29 type  6   force =    -0.00033884   -0.00052975   -0.00002890
     atom   30 type  6   force =    -0.00016866    0.00025166   -0.00009220
     atom   31 type  6   force =     0.00016866    0.00025166    0.00009220
     atom   32 type  6   force =     0.00093996   -0.00044005    0.00042944
     atom   33 type  6   force =    -0.00093996   -0.00044005   -0.00042944
     atom   34 type  6   force =     0.00066454   -0.00051345   -0.00046474
     atom   35 type  6   force =    -0.00066454   -0.00051345    0.00046474
     atom   36 type  6   force =    -0.00000454   -0.00003607   -0.00050119
     atom   37 type  6   force =     0.00000454   -0.00003607    0.00050119
     atom   38 type  6   force =     0.00011979    0.00003284   -0.00050979
     atom   39 type  6   force =    -0.00011979    0.00003284    0.00050979
     atom   40 type  3   force =     0.00000749    0.00009347   -0.00030515
     atom   41 type  3   force =    -0.00000749    0.00009347    0.00030515
     atom   42 type  3   force =    -0.00003351   -0.00037699   -0.00021422
     atom   43 type  3   force =     0.00003351   -0.00037699    0.00021422
     atom   44 type  2   force =    -0.00000000    0.00032003   -0.00000000

     Total force =     0.003255     Total SCF correction =     0.000587

     DFT-D3 dispersion Force =     0.004366
     SCF correction compared to forces is large: reduce conv_thr to get better values


     Computing stress (Cartesian axis) and pressure


     negative rho (up, down):  0.000E+00 3.658E-04
          total   stress  (Ry/bohr**3)                   (kbar)     P=       -0.14
   0.00000074   0.00000000  -0.00000110            0.11        0.00       -0.16
   0.00000000  -0.00000021   0.00000000            0.00       -0.03        0.00
  -0.00000110   0.00000000  -0.00000343           -0.16        0.00       -0.50

     kinetic stress (kbar)  19983.37      0.00    -17.07
                                0.00  20072.13      0.00
                              -17.07      0.00  19802.35

     local   stress (kbar) -40724.96      0.00    107.57
                                0.00 -39913.77     -0.00
                              107.57     -0.00  18969.15

     nonloc. stress (kbar)   3789.89      0.00      4.71
                                0.00   3781.77      0.00
                                4.71      0.00   3768.72

     hartree stress (kbar)  22919.95     -0.00    -51.59
                               -0.00  22560.83      0.00
                              -51.59      0.00  -6275.50

     exc-cor stress (kbar)  -2810.92     -0.00     -0.28
                               -0.00  -2810.85      0.00
                               -0.28      0.00  -2807.37

     corecor stress (kbar)  -1850.92      0.00      0.16
                                0.00  -1851.61     -0.00
                                0.16     -0.00  -1853.30

     ewald   stress (kbar)  -1291.78     -0.00    -43.80
                               -0.00  -1823.79      0.00
                              -43.80      0.00 -31593.71

     hubbard stress (kbar)      0.00      0.00      0.00
                                0.00      0.00      0.00
                                0.00      0.00      0.00

     DFT-D   stress (kbar)    -14.52     -0.00      0.14
                               -0.00    -14.74     -0.00
                                0.14     -0.00    -10.84

     XDM     stress (kbar)      0.00      0.00      0.00
                                0.00      0.00      0.00
                                0.00      0.00      0.00

     dft-nl  stress (kbar)      0.00      0.00      0.00
                                0.00      0.00      0.00
                                0.00      0.00      0.00

     TS-vdW  stress (kbar)      0.00      0.00      0.00
                                0.00      0.00      0.00
                                0.00      0.00      0.00

     MDB     stress (kbar)      0.00      0.00      0.00
                                0.00      0.00      0.00
                                0.00      0.00      0.00

     3D-RISM stress (kbar)      0.00      0.00      0.00
                                0.00      0.00      0.00
                                0.00      0.00      0.00


     Writing all to output data dir ./temp/phl-fe1-fe1.save/ :
     XML data file, charge density, pseudopotentials, collected wavefunctions

     init_run     :    453.97s CPU    457.24s WALL (       2 calls)
     electrons    :  34272.61s CPU  34409.24s WALL (       2 calls)
     forces       :    370.26s CPU    371.62s WALL (       2 calls)
     force_dftd3  :      7.08s CPU      7.10s WALL (       2 calls)
     stress       :   1000.22s CPU   1008.92s WALL (       2 calls)
     stres_dftd3  :      7.10s CPU      7.11s WALL (       2 calls)

     Called by init_run:
     wfcinit      :    436.91s CPU    438.55s WALL (       2 calls)
     wfcinit:atom :      0.79s CPU      0.79s WALL (      80 calls)
     wfcinit:wfcr :    429.88s CPU    431.47s WALL (      80 calls)
     potinit      :      4.34s CPU      4.63s WALL (       2 calls)
     hinit0       :      2.24s CPU      2.39s WALL (       2 calls)

     Called by electrons:
     c_bands      :  32170.66s CPU  32267.15s WALL (      28 calls)
     sum_band     :   1896.35s CPU   1920.30s WALL (      28 calls)
     v_of_rho     :     13.64s CPU     13.99s WALL (      30 calls)
     v_h          :      0.60s CPU      0.61s WALL (      30 calls)
     v_xc         :     14.75s CPU     15.19s WALL (      34 calls)
     newd         :    151.82s CPU    168.69s WALL (      30 calls)
     PAW_pot      :     44.12s CPU     44.13s WALL (      30 calls)
     mix_rho      :      2.77s CPU      2.84s WALL (      28 calls)
     energy_dftd3 :      5.70s CPU      5.70s WALL (       2 calls)

     Called by c_bands:
     init_us_2    :     57.34s CPU     57.39s WALL (    2480 calls)
     cegterg      :  32077.40s CPU  32173.48s WALL (    1202 calls)

     Called by sum_band:
     sum_band:wei :      0.02s CPU      0.02s WALL (      28 calls)
     sum_band:loo :   1597.48s CPU   1605.68s WALL (      28 calls)
     sum_band:buf :      8.00s CPU      8.00s WALL (    1120 calls)
     sum_band:ini :     26.28s CPU     26.29s WALL (    1120 calls)
     sum_band:cal :   1164.95s CPU   1165.20s WALL (    1120 calls)
     sum_band:bec :      2.01s CPU      2.01s WALL (    1120 calls)
     addusdens    :    295.48s CPU    311.09s WALL (      28 calls)
                                        0.00s GPU  (      28 calls)
     addusd:skk   :      0.91s CPU      1.32s WALL (     196 calls)
                                        0.00s GPU  (     196 calls)

     Called by *egterg:
     cdiaghg      :    622.91s CPU    629.66s WALL (   11869 calls)
     cegterg:over :   4446.82s CPU   4447.69s WALL (   10749 calls)
     cegterg:upda :   2576.96s CPU   2577.90s WALL (   10749 calls)
     cegterg:last :   7131.70s CPU   7132.57s WALL (    4304 calls)
     cdiaghg:chol :     12.71s CPU     12.74s WALL (   11869 calls)
     cdiaghg:inve :     12.04s CPU     12.06s WALL (   11869 calls)
     cdiaghg:para :    236.64s CPU    239.35s WALL (   23738 calls)
     h_psi        :  12106.53s CPU  12177.97s WALL (   12031 calls)
     s_psi        :   4850.44s CPU   4850.72s WALL (   12031 calls)
     g_psi        :     15.33s CPU     15.35s WALL (   10749 calls)

     Called by h_psi:
     h_psi:calbec :   4853.35s CPU   4854.85s WALL (   12031 calls)
     vloc_psi     :   2367.42s CPU   2427.19s WALL (   12031 calls)
     add_vuspsi   :   4861.45s CPU   4861.60s WALL (   12031 calls)

     General routines
     calbec       :   6431.44s CPU   6433.29s WALL (   13551 calls)
     fft          :      9.30s CPU      9.86s WALL (     826 calls)
     ffts         :      0.49s CPU      0.50s WALL (     116 calls)
     fftw         :   1739.51s CPU   1779.41s WALL ( 1643406 calls)
     interpolate  :      1.23s CPU      1.25s WALL (      60 calls)

     Parallel routines

     PAW routines
     PAW_pot      :     44.12s CPU     44.13s WALL (      30 calls)
     PAW_symme    :      0.01s CPU      0.02s WALL (      57 calls)

     PWSCF        :     10h 1m CPU     10h 4m WALL


   This run was terminated on:   2: 7:24  17Jan2025            

=------------------------------------------------------------------------------=
   JOB DONE.
=------------------------------------------------------------------------------=
