 INFO
nunit      1    1    1
unit   cell
celltype   primcell
shape   parapipedal
 END_INFO
 DIM-GROUP
           3           1
 PRIMVEC
   10.6564888720    0.0000000000    0.0000000000
    0.0000000000    9.2661993610    0.0000000000
   -1.9246818430    0.0000000000   10.2478045750
 CONVVEC
   10.6564888720    0.0000000000    0.0000000000
    0.0000000000    9.2661993610    0.0000000000
   -1.9246818430    0.0000000000   10.2478045750
 PRIMCOORD
          88           1
 19      0.0000000000     4.5428080810     0.0000000000     0.0000000000     0.0000350900     0.0000000000
 19      5.3282430130     4.5428205370     0.0000000000     0.0000000000     0.0000371000     0.0000000000
 19      2.6641109420     0.0536958650     0.0000027980     0.0000002000    -0.0001349900    -0.0000001900
 19      7.9923763640     0.0536958650    -0.0000027980    -0.0000002000    -0.0001349900     0.0000001900
 12     -0.9623406190     0.0571344990     5.1238997410     0.0000000000    -0.0001193900     0.0000000000
 12      4.3659023940     0.0570637920     5.1238997410     0.0000000000    -0.0000937200     0.0000000000
 12     -0.9623406190     6.1824731500     5.1238997410     0.0000000000     0.0000090500     0.0000000000
 12      4.3659023940     6.1825612380     5.1238997410     0.0000000000    -0.0000267600     0.0000000000
 12      1.7017576710     4.5949504910     5.1238893770     0.0000180200     0.0000552600     0.0000078700
 12      7.0300499730     4.5949504910     5.1239101060    -0.0000180200     0.0000552600    -0.0000078700
 12      1.7017887480     7.7420553840     5.1239037620    -0.0000030600    -0.0000150500    -0.0000030600
 12      7.0300188960     7.7420553840     5.1238957210     0.0000030600    -0.0000150500     0.0000030600
 12      1.7017722330     1.5793135040     5.1239147000     0.0000069300     0.0001222000    -0.0000041300
 12      7.0300354110     1.5793135040     5.1238847830    -0.0000069300     0.0001222000     0.0000041300
 14      0.0354624180     1.5122127790     2.3075600090     0.0000119000    -0.0000053200    -0.0000058900
 14      5.3637081400     1.5122148790     2.3075324500     0.0000062800    -0.0000059800     0.0000003500
 14      3.3680997640     1.5122148790     7.9402673510    -0.0000062800    -0.0000059800    -0.0000003500
 14      8.6963455190     1.5122127790     7.9402397910    -0.0000119000    -0.0000053200     0.0000058900
 14      3.5121515680     7.7299427510     7.8636473290     0.0000479100    -0.0000075100     0.0000294400
 14      8.8403836680     7.7299600200     7.8636858670     0.0000516000    -0.0000092800     0.0000136700
 14     -0.1085757800     7.7299600200     2.3841136260    -0.0000516000    -0.0000092800    -0.0000136700
 14      5.2196567140     7.7299427510     2.3841521640    -0.0000479100    -0.0000075100    -0.0000294400
 14      2.5553290830     6.1771456910     2.3694450620    -0.0000646500     0.0000226800    -0.0000116100
 14      7.8835586680     6.1771392630     2.3694189150    -0.0000556700     0.0000209900    -0.0000047600
 14      0.8482492940     6.1771392630     7.8783805780     0.0000556700     0.0000209900     0.0000047600
 14      6.1764788790     6.1771456910     7.8783544310     0.0000646500     0.0000226800     0.0000116100
 13      0.7017405640     3.0647031840     7.9099249110    -0.0000363100    -0.0000300100     0.0000691200
 13      6.0299866420     3.0647067230     7.9099633730    -0.0000350100    -0.0000350700     0.0000532800
 13      2.7018216690     3.0647067230     2.3378359660     0.0000350100    -0.0000350700    -0.0000532800
 13      8.0300675870     3.0647031840     2.3378744280     0.0000363100    -0.0000300100    -0.0000691200
  8     -0.0191746830     1.4612153800     3.9364938000    -0.0000018700    -0.0000268700    -0.0000608900
  8      5.3090931880     1.4611430830     3.9364640950    -0.0000165600     0.0000062400    -0.0000478500
  8      3.4227146580     1.4611430830     6.3113360130     0.0000165600     0.0000062400     0.0000478500
  8      8.7509827740     1.4612153800     6.3113063080     0.0000018700    -0.0000268700     0.0000608900
  8      3.4925624800     7.7333964040     6.2430303960    -0.0000404500     0.0000153500     0.0000407600
  8      8.8207724230     7.7334694740     6.2430620760    -0.0000247200    -0.0000105000     0.0000315600
  8     -0.0889638880     7.7334694740     4.0047377150     0.0000247200    -0.0000105000    -0.0000315600
  8      5.2392457450     7.7333964040     4.0047693950     0.0000404500     0.0000153500    -0.0000407600
  8      2.5839543010     6.2066641680     3.9978727760    -0.0000045100    -0.0000339100    -0.0000357700
  8      7.9121689370     6.2066369530     3.9978501650     0.0000116600    -0.0000257000    -0.0000285500
  8      0.8196384900     6.2066369530     6.2499496260    -0.0000116600    -0.0000257000     0.0000285500
  8      6.1478532850     6.2066641680     6.2499270140     0.0000045100    -0.0000339100     0.0000357700
  8      0.7652881440     3.0880878790     6.1630699700     0.0000374300     0.0000087500     0.0000838800
  8      6.0936509970     3.0880617080     6.1630929020    -0.0000162300     0.0000131800     0.0000736000
  8      2.6381574000     3.0880617080     4.0847059760     0.0000162300     0.0000131800    -0.0000736000
  8      7.9665197740     3.0880878790     4.0847289080    -0.0000374300     0.0000087500    -0.0000838800
  8      1.5118862950     1.8996665550     1.7309900350     0.0000055700     0.0000141600    -0.0000148000
  8      6.8401383880     1.8996835650     1.7309983820     0.0000019900     0.0000092000    -0.0000155900
  8      1.8916700090     1.8996835650     8.5168004970    -0.0000019900     0.0000092000     0.0000155900
  8      7.2199216230     1.8996665550     8.5168088430    -0.0000055700     0.0000141600     0.0000148000
  8     -0.3087666120     9.2325169860     1.7389486540    -0.0000017300     0.0000119400     0.0000020000
  8      5.0194931630     9.2324985540     1.7389816850    -0.0000067600     0.0000184500    -0.0000066500
  8      3.7123151200     9.2324985540     8.5088177980     0.0000067600     0.0000184500     0.0000066500
  8      9.0405751730     9.2325169860     8.5088508290     0.0000017300     0.0000119400    -0.0000020000
  8      2.0882398570     7.1315277670     8.4636841870     0.0000436000    -0.0000055100    -0.0000182500
  8      7.4164606760     7.1315354980     8.4636917270     0.0000523100    -0.0000023800    -0.0000194500
  8      1.3153475760     7.1315354980     1.7841079190    -0.0000523100    -0.0000023800     0.0000194500
  8      6.6435680760     7.1315277670     1.7841154600    -0.0000436000    -0.0000055100     0.0000182500
  8      3.9720192310     6.8291468620     1.7730435750    -0.0000749200     0.0000320000     0.0000231400
  8      9.3002586800     6.8291512280     1.7730233800    -0.0000734800     0.0000329400     0.0000301000
  8     -0.5684506440     6.8291512280     8.4747761130     0.0000734800     0.0000329400    -0.0000301000
  8      4.7597887310     6.8291468620     8.4747559180     0.0000749200     0.0000320000    -0.0000231400
  8      2.3707795740     4.7017567520     1.7220795080    -0.0000485300    -0.0000093900     0.0000404500
  8      7.6990418330     4.7017367430     1.7220771300    -0.0000518400    -0.0000004400     0.0000372800
  8      1.0327663180     4.7017367430     8.5257222090     0.0000518400    -0.0000004400    -0.0000372800
  8      6.3610280970     4.7017567520     8.5257198320     0.0000485300    -0.0000093900    -0.0000404500
  8     -0.8572997300     2.5401909240     8.5593621450    -0.0000778000     0.0000680600    -0.0000019500
  8      4.4709152920     2.5402269430     8.5594292370    -0.0000695800     0.0000544800    -0.0000280100
  8      4.2608929500     2.5402269430     1.6883704090     0.0000695800     0.0000544800     0.0000280100
  8      9.5891076640     2.5401909240     1.6884375020     0.0000778000     0.0000680600     0.0000019500
  8     -0.0362373050     4.7407600890     4.0326224290     0.0000098100     0.0000335800    -0.0000859100
  8      5.2919356220     4.7408117720     4.0325995150     0.0000303000     0.0000010200    -0.0000842700
  8      3.4398722820     4.7408117720     6.2152002850    -0.0000303000     0.0000010200     0.0000842700
  8      8.7680452100     4.7407600890     6.2151773710    -0.0000098100     0.0000335800     0.0000859100
  8      2.6058164930     9.2619667340     4.0917224470    -0.0000532800    -0.0000266800     0.0000563500
  8      7.9339986900     9.2619893720     4.0917345620    -0.0000393400    -0.0000189900    -0.0000514000
  8      0.7978100600     9.2619893720     6.1560649310     0.0000393400    -0.0000189900     0.0000514000
  8      6.1259917890     9.2619667340     6.1560770460     0.0000532800    -0.0000266800    -0.0000563500
  1     -0.0282314000     4.5622478360     3.0831691130    -0.0000372600     0.0000009500    -0.0001181100
  1      5.2999679600     4.5621892420     3.0831579330    -0.0000380300     0.0000074800    -0.0001004300
  1      3.4318405840     4.5621892420     7.1646418680     0.0000380300     0.0000074800     0.0001004300
  1      8.7600396660     4.5622478360     7.1646306870     0.0000372600     0.0000009500     0.0001181100
  1      2.5732164280     0.1241006230     3.1343253940    -0.0000129100    -0.0000349400    -0.0000520400
  1      7.9014304720     0.1241205200     3.1342800260    -0.0000102400    -0.0000487300     0.0000535700
  1      0.8303773410     0.1241205200     7.1135194670     0.0000102400    -0.0000487300    -0.0000535700
  1      6.1585918430     0.1241006230     7.1134740990     0.0000129100    -0.0000349400     0.0000520400
 26     -0.9623406190     3.1093366820     5.1238997410     0.0000000000     0.0000220200     0.0000000000
 26      4.3659023940     3.1093627670     5.1238997410     0.0000000000     0.0000132600     0.0000000000
 CONVCOORD
          88           1
 19      0.0000000000     4.5428080810     0.0000000000
 19      5.3282430130     4.5428205370     0.0000000000
 19      2.6641109420     0.0536958650     0.0000027980
 19      7.9923763640     0.0536958650    -0.0000027980
 12     -0.9623406190     0.0571344990     5.1238997410
 12      4.3659023940     0.0570637920     5.1238997410
 12     -0.9623406190     6.1824731500     5.1238997410
 12      4.3659023940     6.1825612380     5.1238997410
 12      1.7017576710     4.5949504910     5.1238893770
 12      7.0300499730     4.5949504910     5.1239101060
 12      1.7017887480     7.7420553840     5.1239037620
 12      7.0300188960     7.7420553840     5.1238957210
 12      1.7017722330     1.5793135040     5.1239147000
 12      7.0300354110     1.5793135040     5.1238847830
 14      0.0354624180     1.5122127790     2.3075600090
 14      5.3637081400     1.5122148790     2.3075324500
 14      3.3680997640     1.5122148790     7.9402673510
 14      8.6963455190     1.5122127790     7.9402397910
 14      3.5121515680     7.7299427510     7.8636473290
 14      8.8403836680     7.7299600200     7.8636858670
 14     -0.1085757800     7.7299600200     2.3841136260
 14      5.2196567140     7.7299427510     2.3841521640
 14      2.5553290830     6.1771456910     2.3694450620
 14      7.8835586680     6.1771392630     2.3694189150
 14      0.8482492940     6.1771392630     7.8783805780
 14      6.1764788790     6.1771456910     7.8783544310
 13      0.7017405640     3.0647031840     7.9099249110
 13      6.0299866420     3.0647067230     7.9099633730
 13      2.7018216690     3.0647067230     2.3378359660
 13      8.0300675870     3.0647031840     2.3378744280
  8     -0.0191746830     1.4612153800     3.9364938000
  8      5.3090931880     1.4611430830     3.9364640950
  8      3.4227146580     1.4611430830     6.3113360130
  8      8.7509827740     1.4612153800     6.3113063080
  8      3.4925624800     7.7333964040     6.2430303960
  8      8.8207724230     7.7334694740     6.2430620760
  8     -0.0889638880     7.7334694740     4.0047377150
  8      5.2392457450     7.7333964040     4.0047693950
  8      2.5839543010     6.2066641680     3.9978727760
  8      7.9121689370     6.2066369530     3.9978501650
  8      0.8196384900     6.2066369530     6.2499496260
  8      6.1478532850     6.2066641680     6.2499270140
  8      0.7652881440     3.0880878790     6.1630699700
  8      6.0936509970     3.0880617080     6.1630929020
  8      2.6381574000     3.0880617080     4.0847059760
  8      7.9665197740     3.0880878790     4.0847289080
  8      1.5118862950     1.8996665550     1.7309900350
  8      6.8401383880     1.8996835650     1.7309983820
  8      1.8916700090     1.8996835650     8.5168004970
  8      7.2199216230     1.8996665550     8.5168088430
  8     -0.3087666120     9.2325169860     1.7389486540
  8      5.0194931630     9.2324985540     1.7389816850
  8      3.7123151200     9.2324985540     8.5088177980
  8      9.0405751730     9.2325169860     8.5088508290
  8      2.0882398570     7.1315277670     8.4636841870
  8      7.4164606760     7.1315354980     8.4636917270
  8      1.3153475760     7.1315354980     1.7841079190
  8      6.6435680760     7.1315277670     1.7841154600
  8      3.9720192310     6.8291468620     1.7730435750
  8      9.3002586800     6.8291512280     1.7730233800
  8     -0.5684506440     6.8291512280     8.4747761130
  8      4.7597887310     6.8291468620     8.4747559180
  8      2.3707795740     4.7017567520     1.7220795080
  8      7.6990418330     4.7017367430     1.7220771300
  8      1.0327663180     4.7017367430     8.5257222090
  8      6.3610280970     4.7017567520     8.5257198320
  8     -0.8572997300     2.5401909240     8.5593621450
  8      4.4709152920     2.5402269430     8.5594292370
  8      4.2608929500     2.5402269430     1.6883704090
  8      9.5891076640     2.5401909240     1.6884375020
  8     -0.0362373050     4.7407600890     4.0326224290
  8      5.2919356220     4.7408117720     4.0325995150
  8      3.4398722820     4.7408117720     6.2152002850
  8      8.7680452100     4.7407600890     6.2151773710
  8      2.6058164930     9.2619667340     4.0917224470
  8      7.9339986900     9.2619893720     4.0917345620
  8      0.7978100600     9.2619893720     6.1560649310
  8      6.1259917890     9.2619667340     6.1560770460
  1     -0.0282314000     4.5622478360     3.0831691130
  1      5.2999679600     4.5621892420     3.0831579330
  1      3.4318405840     4.5621892420     7.1646418680
  1      8.7600396660     4.5622478360     7.1646306870
  1      2.5732164280     0.1241006230     3.1343253940
  1      7.9014304720     0.1241205200     3.1342800260
  1      0.8303773410     0.1241205200     7.1135194670
  1      6.1585918430     0.1241006230     7.1134740990
 26     -0.9623406190     3.1093366820     5.1238997410
 26      4.3659023940     3.1093627670     5.1238997410
 RECIP-PRIMVEC
    0.0938395387   -0.0000000000    0.0176243853

    0.0000000000    0.1079191113   -0.0000000000

    0.0000000000    0.0000000000    0.0975818765

 RECIP-CONVVEC
    0.0938395387   -0.0000000000    0.0176243853

    0.0000000000    0.1079191113   -0.0000000000

    0.0000000000    0.0000000000    0.0975818765

 WIGNER-SEITZ-PRIMCELL
           6
 -0.5328244E+01 -0.4633100E+01  0.4303924E+01  -0.0000000E+00 -0.1000000E+01 -0.0000000E+00
 -0.5328244E+01 -0.4633100E+01 -0.4303924E+01  -0.0000000E+00 -0.1000000E+01 -0.0000000E+00
 -0.3403563E+01 -0.4633100E+01 -0.5943880E+01  -0.0000000E+00 -0.1000000E+01 -0.0000000E+00
  0.5328244E+01 -0.4633100E+01 -0.4303924E+01  -0.0000000E+00 -0.1000000E+01 -0.0000000E+00
  0.5328244E+01 -0.4633100E+01  0.4303924E+01  -0.0000000E+00 -0.1000000E+01 -0.0000000E+00
  0.3403563E+01 -0.4633100E+01  0.5943880E+01  -0.0000000E+00 -0.1000000E+01 -0.0000000E+00
           4
  0.3403563E+01 -0.4633100E+01  0.5943880E+01   0.6485610E+00  0.0000000E+00  0.7611627E+00
  0.5328244E+01 -0.4633100E+01  0.4303924E+01   0.6485610E+00  0.0000000E+00  0.7611627E+00
  0.5328244E+01  0.4633100E+01  0.4303924E+01   0.6485610E+00  0.0000000E+00  0.7611627E+00
  0.3403563E+01  0.4633100E+01  0.5943880E+01   0.6485610E+00  0.0000000E+00  0.7611627E+00
           4
 -0.5328244E+01  0.4633100E+01  0.4303924E+01  -0.1845867E+00 -0.0000000E+00  0.9828162E+00
 -0.5328244E+01 -0.4633100E+01  0.4303924E+01  -0.1845867E+00 -0.0000000E+00  0.9828162E+00
  0.3403563E+01 -0.4633100E+01  0.5943880E+01  -0.1845867E+00 -0.0000000E+00  0.9828162E+00
  0.3403563E+01  0.4633100E+01  0.5943880E+01  -0.1845867E+00 -0.0000000E+00  0.9828162E+00
           4
  0.5328244E+01 -0.4633100E+01  0.4303924E+01   0.1000000E+01  0.0000000E+00  0.0000000E+00
  0.5328244E+01 -0.4633100E+01 -0.4303924E+01   0.1000000E+01  0.0000000E+00  0.0000000E+00
  0.5328244E+01  0.4633100E+01 -0.4303924E+01   0.1000000E+01  0.0000000E+00  0.0000000E+00
  0.5328244E+01  0.4633100E+01  0.4303924E+01   0.1000000E+01  0.0000000E+00  0.0000000E+00
           4
 -0.5328244E+01  0.4633100E+01  0.4303924E+01  -0.1000000E+01 -0.0000000E+00 -0.0000000E+00
 -0.5328244E+01  0.4633100E+01 -0.4303924E+01  -0.1000000E+01 -0.0000000E+00 -0.0000000E+00
 -0.5328244E+01 -0.4633100E+01 -0.4303924E+01  -0.1000000E+01 -0.0000000E+00 -0.0000000E+00
 -0.5328244E+01 -0.4633100E+01  0.4303924E+01  -0.1000000E+01 -0.0000000E+00 -0.0000000E+00
           4
  0.5328244E+01  0.4633100E+01 -0.4303924E+01   0.1845867E+00  0.0000000E+00 -0.9828162E+00
  0.5328244E+01 -0.4633100E+01 -0.4303924E+01   0.1845867E+00  0.0000000E+00 -0.9828162E+00
 -0.3403563E+01 -0.4633100E+01 -0.5943880E+01   0.1845867E+00  0.0000000E+00 -0.9828162E+00
 -0.3403563E+01  0.4633100E+01 -0.5943880E+01   0.1845867E+00  0.0000000E+00 -0.9828162E+00
           4
 -0.3403563E+01  0.4633100E+01 -0.5943880E+01  -0.6485610E+00 -0.3032544E-15 -0.7611627E+00
 -0.3403563E+01 -0.4633100E+01 -0.5943880E+01  -0.6485610E+00 -0.3032544E-15 -0.7611627E+00
 -0.5328244E+01 -0.4633100E+01 -0.4303924E+01  -0.6485610E+00 -0.3032544E-15 -0.7611627E+00
 -0.5328244E+01  0.4633100E+01 -0.4303924E+01  -0.6485610E+00 -0.3032544E-15 -0.7611627E+00
           6
  0.3403563E+01  0.4633100E+01  0.5943880E+01   0.0000000E+00  0.1000000E+01  0.0000000E+00
  0.5328244E+01  0.4633100E+01  0.4303924E+01   0.0000000E+00  0.1000000E+01  0.0000000E+00
  0.5328244E+01  0.4633100E+01 -0.4303924E+01   0.0000000E+00  0.1000000E+01  0.0000000E+00
 -0.3403563E+01  0.4633100E+01 -0.5943880E+01   0.0000000E+00  0.1000000E+01  0.0000000E+00
 -0.5328244E+01  0.4633100E+01 -0.4303924E+01   0.0000000E+00  0.1000000E+01  0.0000000E+00
 -0.5328244E+01  0.4633100E+01  0.4303924E+01   0.0000000E+00  0.1000000E+01  0.0000000E+00
 WIGNER-SEITZ-PRIMCELL_END
 WIGNER-SEITZ-CONVCELL
           6
 -0.5328244E+01 -0.4633100E+01  0.4303924E+01  -0.0000000E+00 -0.1000000E+01 -0.0000000E+00
 -0.5328244E+01 -0.4633100E+01 -0.4303924E+01  -0.0000000E+00 -0.1000000E+01 -0.0000000E+00
 -0.3403563E+01 -0.4633100E+01 -0.5943880E+01  -0.0000000E+00 -0.1000000E+01 -0.0000000E+00
  0.5328244E+01 -0.4633100E+01 -0.4303924E+01  -0.0000000E+00 -0.1000000E+01 -0.0000000E+00
  0.5328244E+01 -0.4633100E+01  0.4303924E+01  -0.0000000E+00 -0.1000000E+01 -0.0000000E+00
  0.3403563E+01 -0.4633100E+01  0.5943880E+01  -0.0000000E+00 -0.1000000E+01 -0.0000000E+00
           4
  0.3403563E+01 -0.4633100E+01  0.5943880E+01   0.6485610E+00  0.0000000E+00  0.7611627E+00
  0.5328244E+01 -0.4633100E+01  0.4303924E+01   0.6485610E+00  0.0000000E+00  0.7611627E+00
  0.5328244E+01  0.4633100E+01  0.4303924E+01   0.6485610E+00  0.0000000E+00  0.7611627E+00
  0.3403563E+01  0.4633100E+01  0.5943880E+01   0.6485610E+00  0.0000000E+00  0.7611627E+00
           4
 -0.5328244E+01  0.4633100E+01  0.4303924E+01  -0.1845867E+00 -0.0000000E+00  0.9828162E+00
 -0.5328244E+01 -0.4633100E+01  0.4303924E+01  -0.1845867E+00 -0.0000000E+00  0.9828162E+00
  0.3403563E+01 -0.4633100E+01  0.5943880E+01  -0.1845867E+00 -0.0000000E+00  0.9828162E+00
  0.3403563E+01  0.4633100E+01  0.5943880E+01  -0.1845867E+00 -0.0000000E+00  0.9828162E+00
           4
  0.5328244E+01 -0.4633100E+01  0.4303924E+01   0.1000000E+01  0.0000000E+00  0.0000000E+00
  0.5328244E+01 -0.4633100E+01 -0.4303924E+01   0.1000000E+01  0.0000000E+00  0.0000000E+00
  0.5328244E+01  0.4633100E+01 -0.4303924E+01   0.1000000E+01  0.0000000E+00  0.0000000E+00
  0.5328244E+01  0.4633100E+01  0.4303924E+01   0.1000000E+01  0.0000000E+00  0.0000000E+00
           4
 -0.5328244E+01  0.4633100E+01  0.4303924E+01  -0.1000000E+01 -0.0000000E+00 -0.0000000E+00
 -0.5328244E+01  0.4633100E+01 -0.4303924E+01  -0.1000000E+01 -0.0000000E+00 -0.0000000E+00
 -0.5328244E+01 -0.4633100E+01 -0.4303924E+01  -0.1000000E+01 -0.0000000E+00 -0.0000000E+00
 -0.5328244E+01 -0.4633100E+01  0.4303924E+01  -0.1000000E+01 -0.0000000E+00 -0.0000000E+00
           4
  0.5328244E+01  0.4633100E+01 -0.4303924E+01   0.1845867E+00  0.0000000E+00 -0.9828162E+00
  0.5328244E+01 -0.4633100E+01 -0.4303924E+01   0.1845867E+00  0.0000000E+00 -0.9828162E+00
 -0.3403563E+01 -0.4633100E+01 -0.5943880E+01   0.1845867E+00  0.0000000E+00 -0.9828162E+00
 -0.3403563E+01  0.4633100E+01 -0.5943880E+01   0.1845867E+00  0.0000000E+00 -0.9828162E+00
           4
 -0.3403563E+01  0.4633100E+01 -0.5943880E+01  -0.6485610E+00 -0.3032544E-15 -0.7611627E+00
 -0.3403563E+01 -0.4633100E+01 -0.5943880E+01  -0.6485610E+00 -0.3032544E-15 -0.7611627E+00
 -0.5328244E+01 -0.4633100E+01 -0.4303924E+01  -0.6485610E+00 -0.3032544E-15 -0.7611627E+00
 -0.5328244E+01  0.4633100E+01 -0.4303924E+01  -0.6485610E+00 -0.3032544E-15 -0.7611627E+00
           6
  0.3403563E+01  0.4633100E+01  0.5943880E+01   0.0000000E+00  0.1000000E+01  0.0000000E+00
  0.5328244E+01  0.4633100E+01  0.4303924E+01   0.0000000E+00  0.1000000E+01  0.0000000E+00
  0.5328244E+01  0.4633100E+01 -0.4303924E+01   0.0000000E+00  0.1000000E+01  0.0000000E+00
 -0.3403563E+01  0.4633100E+01 -0.5943880E+01   0.0000000E+00  0.1000000E+01  0.0000000E+00
 -0.5328244E+01  0.4633100E+01 -0.4303924E+01   0.0000000E+00  0.1000000E+01  0.0000000E+00
 -0.5328244E+01  0.4633100E+01  0.4303924E+01   0.0000000E+00  0.1000000E+01  0.0000000E+00
 WIGNER-SEITZ-CONVCELL_END
 BRILLOUIN-ZONE-PRIMCELL
           4
 -0.5442834E-01  0.5395956E-01  0.3116655E-01  -0.9828162E+00  0.7402690E-16 -0.1845867E+00
 -0.3941120E-01  0.5395956E-01 -0.4879094E-01  -0.9828162E+00  0.7402690E-16 -0.1845867E+00
 -0.3941120E-01 -0.5395956E-01 -0.4879094E-01  -0.9828162E+00  0.7402690E-16 -0.1845867E+00
 -0.5442834E-01 -0.5395956E-01  0.3116655E-01  -0.9828162E+00  0.7402690E-16 -0.1845867E+00
           4
 -0.5442834E-01  0.5395956E-01  0.3116655E-01  -0.7611627E+00 -0.6508287E-16  0.6485610E+00
 -0.5442834E-01 -0.5395956E-01  0.3116655E-01  -0.7611627E+00 -0.6508287E-16  0.6485610E+00
 -0.3941120E-01 -0.5395956E-01  0.4879094E-01  -0.7611627E+00 -0.6508287E-16  0.6485610E+00
 -0.3941120E-01  0.5395956E-01  0.4879094E-01  -0.7611627E+00 -0.6508287E-16  0.6485610E+00
           6
  0.3941120E-01 -0.5395956E-01  0.4879094E-01  -0.0000000E+00 -0.1000000E+01  0.0000000E+00
 -0.3941120E-01 -0.5395956E-01  0.4879094E-01  -0.0000000E+00 -0.1000000E+01  0.0000000E+00
 -0.5442834E-01 -0.5395956E-01  0.3116655E-01  -0.0000000E+00 -0.1000000E+01  0.0000000E+00
 -0.3941120E-01 -0.5395956E-01 -0.4879094E-01  -0.0000000E+00 -0.1000000E+01  0.0000000E+00
  0.3941120E-01 -0.5395956E-01 -0.4879094E-01  -0.0000000E+00 -0.1000000E+01  0.0000000E+00
  0.5442834E-01 -0.5395956E-01 -0.3116655E-01  -0.0000000E+00 -0.1000000E+01  0.0000000E+00
           4
 -0.3941120E-01  0.5395956E-01 -0.4879094E-01   0.0000000E+00 -0.7959970E-16 -0.1000000E+01
  0.3941120E-01  0.5395956E-01 -0.4879094E-01   0.0000000E+00 -0.7959970E-16 -0.1000000E+01
  0.3941120E-01 -0.5395956E-01 -0.4879094E-01   0.0000000E+00 -0.7959970E-16 -0.1000000E+01
 -0.3941120E-01 -0.5395956E-01 -0.4879094E-01   0.0000000E+00 -0.7959970E-16 -0.1000000E+01
           4
 -0.3941120E-01 -0.5395956E-01  0.4879094E-01  -0.0000000E+00 -0.3979985E-16  0.1000000E+01
  0.3941120E-01 -0.5395956E-01  0.4879094E-01  -0.0000000E+00 -0.3979985E-16  0.1000000E+01
  0.3941120E-01  0.5395956E-01  0.4879094E-01  -0.0000000E+00 -0.3979985E-16  0.1000000E+01
 -0.3941120E-01  0.5395956E-01  0.4879094E-01  -0.0000000E+00 -0.3979985E-16  0.1000000E+01
           6
  0.5442834E-01  0.5395956E-01 -0.3116655E-01  -0.0000000E+00  0.1000000E+01 -0.6243623E-15
  0.3941120E-01  0.5395956E-01 -0.4879094E-01  -0.0000000E+00  0.1000000E+01 -0.6243623E-15
 -0.3941120E-01  0.5395956E-01 -0.4879094E-01  -0.0000000E+00  0.1000000E+01 -0.6243623E-15
 -0.5442834E-01  0.5395956E-01  0.3116655E-01  -0.0000000E+00  0.1000000E+01 -0.6243623E-15
 -0.3941120E-01  0.5395956E-01  0.4879094E-01  -0.0000000E+00  0.1000000E+01 -0.6243623E-15
  0.3941120E-01  0.5395956E-01  0.4879094E-01  -0.0000000E+00  0.1000000E+01 -0.6243623E-15
           4
  0.5442834E-01 -0.5395956E-01 -0.3116655E-01   0.7611627E+00 -0.1303975E-15 -0.6485610E+00
  0.3941120E-01 -0.5395956E-01 -0.4879094E-01   0.7611627E+00 -0.1303975E-15 -0.6485610E+00
  0.3941120E-01  0.5395956E-01 -0.4879094E-01   0.7611627E+00 -0.1303975E-15 -0.6485610E+00
  0.5442834E-01  0.5395956E-01 -0.3116655E-01   0.7611627E+00 -0.1303975E-15 -0.6485610E+00
           4
  0.5442834E-01 -0.5395956E-01 -0.3116655E-01   0.9828162E+00 -0.4939524E-16  0.1845867E+00
  0.5442834E-01  0.5395956E-01 -0.3116655E-01   0.9828162E+00 -0.4939524E-16  0.1845867E+00
  0.3941120E-01  0.5395956E-01  0.4879094E-01   0.9828162E+00 -0.4939524E-16  0.1845867E+00
  0.3941120E-01 -0.5395956E-01  0.4879094E-01   0.9828162E+00 -0.4939524E-16  0.1845867E+00
 BRILLOUIN-ZONE-PRIMCELL_END
 BRILLOUIN-ZONE-CONVCELL
           4
 -0.5442834E-01  0.5395956E-01  0.3116655E-01  -0.9828162E+00  0.7402690E-16 -0.1845867E+00
 -0.3941120E-01  0.5395956E-01 -0.4879094E-01  -0.9828162E+00  0.7402690E-16 -0.1845867E+00
 -0.3941120E-01 -0.5395956E-01 -0.4879094E-01  -0.9828162E+00  0.7402690E-16 -0.1845867E+00
 -0.5442834E-01 -0.5395956E-01  0.3116655E-01  -0.9828162E+00  0.7402690E-16 -0.1845867E+00
           4
 -0.5442834E-01  0.5395956E-01  0.3116655E-01  -0.7611627E+00 -0.6508287E-16  0.6485610E+00
 -0.5442834E-01 -0.5395956E-01  0.3116655E-01  -0.7611627E+00 -0.6508287E-16  0.6485610E+00
 -0.3941120E-01 -0.5395956E-01  0.4879094E-01  -0.7611627E+00 -0.6508287E-16  0.6485610E+00
 -0.3941120E-01  0.5395956E-01  0.4879094E-01  -0.7611627E+00 -0.6508287E-16  0.6485610E+00
           6
  0.3941120E-01 -0.5395956E-01  0.4879094E-01  -0.0000000E+00 -0.1000000E+01  0.0000000E+00
 -0.3941120E-01 -0.5395956E-01  0.4879094E-01  -0.0000000E+00 -0.1000000E+01  0.0000000E+00
 -0.5442834E-01 -0.5395956E-01  0.3116655E-01  -0.0000000E+00 -0.1000000E+01  0.0000000E+00
 -0.3941120E-01 -0.5395956E-01 -0.4879094E-01  -0.0000000E+00 -0.1000000E+01  0.0000000E+00
  0.3941120E-01 -0.5395956E-01 -0.4879094E-01  -0.0000000E+00 -0.1000000E+01  0.0000000E+00
  0.5442834E-01 -0.5395956E-01 -0.3116655E-01  -0.0000000E+00 -0.1000000E+01  0.0000000E+00
           4
 -0.3941120E-01  0.5395956E-01 -0.4879094E-01   0.0000000E+00 -0.7959970E-16 -0.1000000E+01
  0.3941120E-01  0.5395956E-01 -0.4879094E-01   0.0000000E+00 -0.7959970E-16 -0.1000000E+01
  0.3941120E-01 -0.5395956E-01 -0.4879094E-01   0.0000000E+00 -0.7959970E-16 -0.1000000E+01
 -0.3941120E-01 -0.5395956E-01 -0.4879094E-01   0.0000000E+00 -0.7959970E-16 -0.1000000E+01
           4
 -0.3941120E-01 -0.5395956E-01  0.4879094E-01  -0.0000000E+00 -0.3979985E-16  0.1000000E+01
  0.3941120E-01 -0.5395956E-01  0.4879094E-01  -0.0000000E+00 -0.3979985E-16  0.1000000E+01
  0.3941120E-01  0.5395956E-01  0.4879094E-01  -0.0000000E+00 -0.3979985E-16  0.1000000E+01
 -0.3941120E-01  0.5395956E-01  0.4879094E-01  -0.0000000E+00 -0.3979985E-16  0.1000000E+01
           6
  0.5442834E-01  0.5395956E-01 -0.3116655E-01  -0.0000000E+00  0.1000000E+01 -0.6243623E-15
  0.3941120E-01  0.5395956E-01 -0.4879094E-01  -0.0000000E+00  0.1000000E+01 -0.6243623E-15
 -0.3941120E-01  0.5395956E-01 -0.4879094E-01  -0.0000000E+00  0.1000000E+01 -0.6243623E-15
 -0.5442834E-01  0.5395956E-01  0.3116655E-01  -0.0000000E+00  0.1000000E+01 -0.6243623E-15
 -0.3941120E-01  0.5395956E-01  0.4879094E-01  -0.0000000E+00  0.1000000E+01 -0.6243623E-15
  0.3941120E-01  0.5395956E-01  0.4879094E-01  -0.0000000E+00  0.1000000E+01 -0.6243623E-15
           4
  0.5442834E-01 -0.5395956E-01 -0.3116655E-01   0.7611627E+00 -0.1303975E-15 -0.6485610E+00
  0.3941120E-01 -0.5395956E-01 -0.4879094E-01   0.7611627E+00 -0.1303975E-15 -0.6485610E+00
  0.3941120E-01  0.5395956E-01 -0.4879094E-01   0.7611627E+00 -0.1303975E-15 -0.6485610E+00
  0.5442834E-01  0.5395956E-01 -0.3116655E-01   0.7611627E+00 -0.1303975E-15 -0.6485610E+00
           4
  0.5442834E-01 -0.5395956E-01 -0.3116655E-01   0.9828162E+00 -0.4939524E-16  0.1845867E+00
  0.5442834E-01  0.5395956E-01 -0.3116655E-01   0.9828162E+00 -0.4939524E-16  0.1845867E+00
  0.3941120E-01  0.5395956E-01  0.4879094E-01   0.9828162E+00 -0.4939524E-16  0.1845867E+00
  0.3941120E-01 -0.5395956E-01  0.4879094E-01   0.9828162E+00 -0.4939524E-16  0.1845867E+00
 BRILLOUIN-ZONE-CONVCELL_END
 ATOMS
   19    0.0000000000    4.5428080810    0.0000000000    0.0000000000    0.0000350900    0.0000000000
   19    5.3282430130    4.5428205370    0.0000000000    0.0000000000    0.0000371000    0.0000000000
   19    2.6641109420    0.0536958650    0.0000027980    0.0000002000   -0.0001349900   -0.0000001900
   19    7.9923763640    0.0536958650   -0.0000027980   -0.0000002000   -0.0001349900    0.0000001900
   12   -0.9623406190    0.0571344990    5.1238997410    0.0000000000   -0.0001193900    0.0000000000
   12    4.3659023940    0.0570637920    5.1238997410    0.0000000000   -0.0000937200    0.0000000000
   12   -0.9623406190    6.1824731500    5.1238997410    0.0000000000    0.0000090500    0.0000000000
   12    4.3659023940    6.1825612380    5.1238997410    0.0000000000   -0.0000267600    0.0000000000
   12    1.7017576710    4.5949504910    5.1238893770    0.0000180200    0.0000552600    0.0000078700