--------------------------------------------------------------------------
PMIx was unable to find a usable compression library
on the system. We will therefore be unable to compress
large data streams. This may result in longer-than-normal
startup times and larger memory footprints. We will
continue, but strongly recommend installing zlib or
a comparable compression library for better user experience.

You can suppress this warning by adding "pcompress_base_silence_warning=1"
to your PMIx MCA default parameter file, or by adding
"PMIX_MCA_pcompress_base_silence_warning=1" to your environment.
--------------------------------------------------------------------------

     Program PWSCF v.7.3.1 starts on 21Feb2025 at 13:46:29 

     This program is part of the open-source Quantum ESPRESSO suite
     for quantum simulation of materials; please cite
         "P. Giannozzi et al., J. Phys.:Condens. Matter 21 395502 (2009);
         "P. Giannozzi et al., J. Phys.:Condens. Matter 29 465901 (2017);
         "P. Giannozzi et al., J. Chem. Phys. 152 154105 (2020);
          URL http://www.quantum-espresso.org", 
     in publications or presentations arising from this work. More details at
     http://www.quantum-espresso.org/quote

     Parallel version (MPI), running on     6 processors

     MPI processes distributed on     1 nodes
     14816 MiB available memory on the printing compute node when the environment starts

     Reading input from vc_relax.in

     Current dimensions of program PWSCF are:
     Max number of different atomic species (ntypx) = 10
     Max number of k-points (npk) =  40000
     Max angular momentum in pseudopotentials (lmaxx) =  4
     file Al.pbe-n-kjpaw_psl.1.0.0.UPF: wavefunction(s)  3S 3P renormalized
     file Fe.pbe-spn-kjpaw_psl.1.0.0.UPF: wavefunction(s)  3P 3D renormalized
     file Fe.pbe-spn-kjpaw_psl.1.0.0.UPF: wavefunction(s)  3P 3D renormalized
     file H.pbe-kjpaw_psl.1.0.0.UPF: wavefunction(s)  1S renormalized
     file K.pbe-spn-kjpaw_psl.1.0.0.UPF: wavefunction(s)  3S renormalized
     file Mg.pbe-spnl-kjpaw_psl.1.0.0.UPF: wavefunction(s)  2P renormalized
     file O.pbe-n-kjpaw_psl.1.0.0.UPF: wavefunction(s)  2S 2P renormalized
     file Si.pbe-n-kjpaw_psl.1.0.0.UPF: wavefunction(s)  3S 3P renormalized

     R & G space division:  proc/nbgrp/npool/nimage =       6
     Subspace diagonalization in iterative solution of the eigenvalue problem:
     one sub-group per band group will be used
     custom distributed-memory algorithm (size of sub-group:  2*  2 procs)


     Parallelization info
     --------------------
     sticks:   dense  smooth     PW     G-vecs:    dense   smooth      PW
     Min        2245    1122    295               202075    71450    9650
     Max        2246    1123    296               202076    71451    9652
     Sum       13475    6737   1775              1212455   428701   57909

     Using Slab Decomposition



     bravais-lattice index     =          -12
     lattice parameter (alat)  =      20.1351  a.u.
     unit-cell volume          =    6828.4878 (a.u.)^3
     number of atoms/cell      =           88
     number of atomic types    =            8
     number of electrons       =       524.00
     number of Kohn-Sham states=          314
     kinetic-energy cutoff     =      60.0000  Ry
     charge density cutoff     =     480.0000  Ry
     scf convergence threshold =      1.0E-06
     mixing beta               =       0.7000
     number of iterations used =            8  plain     mixing
     energy convergence thresh.=      1.0E-06
     force convergence thresh. =      1.0E-03
     press convergence thresh. =      5.0E-01
     Exchange-correlation= SLA  PW   PBX  PBC
                           (   1   4   3   4   0   0   0)
     nstep                     =           50


     celldm(1)=  20.135087  celldm(2)=   0.869801  celldm(3)=   0.977339
     celldm(4)=   0.000000  celldm(5)=  -0.178119  celldm(6)=   0.000000

     crystal axes: (cart. coord. in units of alat)
               a(1) = (   1.000000   0.000000   0.000000 )  
               a(2) = (   0.000000   0.869801   0.000000 )  
               a(3) = (  -0.174083   0.000000   0.961710 )  

     reciprocal axes: (cart. coord. in units 2 pi/alat)
               b(1) = (  1.000000 -0.000000  0.181014 )  
               b(2) = (  0.000000  1.149688 -0.000000 )  
               b(3) = (  0.000000  0.000000  1.039814 )  


     PseudoPot. # 1 for Al read from file:
     ./../../../pseudos/Al.pbe-n-kjpaw_psl.1.0.0.UPF
     MD5 check sum: 502b6b27b9c6270cab5dd1084b96fa6d
     Pseudo is Projector augmented-wave + core cor, Zval =  3.0
     Generated using &quot;atomic&quot; code by A. Dal Corso  v.6.3
     Shape of augmentation charge: PSQ
     Using radial grid of 1135 points,  6 beta functions with: 
                l(1) =   0
                l(2) =   0
                l(3) =   1
                l(4) =   1
                l(5) =   2
                l(6) =   2
     Q(r) pseudized with 0 coefficients 


     PseudoPot. # 2 for Fe read from file:
     ./../../../pseudos/Fe.pbe-spn-kjpaw_psl.1.0.0.UPF
     MD5 check sum: fc81f059e5c5069939230b1155715ae8
     Pseudo is Projector augmented-wave + core cor, Zval = 16.0
     Generated using &quot;atomic&quot; code by A. Dal Corso  v.6.3
     Shape of augmentation charge: PSQ
     Using radial grid of 1191 points,  6 beta functions with: 
                l(1) =   0
                l(2) =   0
                l(3) =   1
                l(4) =   1
                l(5) =   2
                l(6) =   2
     Q(r) pseudized with 0 coefficients 


     PseudoPot. # 3 for Fe read from file:
     ./../../../pseudos/Fe.pbe-spn-kjpaw_psl.1.0.0.UPF
     MD5 check sum: fc81f059e5c5069939230b1155715ae8
     Pseudo is Projector augmented-wave + core cor, Zval = 16.0
     Generated using &quot;atomic&quot; code by A. Dal Corso  v.6.3
     Shape of augmentation charge: PSQ
     Using radial grid of 1191 points,  6 beta functions with: 
                l(1) =   0
                l(2) =   0
                l(3) =   1
                l(4) =   1
                l(5) =   2
                l(6) =   2
     Q(r) pseudized with 0 coefficients 


     PseudoPot. # 4 for H  read from file:
     ./../../../pseudos/H.pbe-kjpaw_psl.1.0.0.UPF
     MD5 check sum: d81a744832360e4a8af0b0b5b123bc2a
     Pseudo is Projector augmented-wave, Zval =  1.0
     Generated using &quot;atomic&quot; code by A. Dal Corso  v.6.3MaX
     Shape of augmentation charge: PSQ
     Using radial grid of  929 points,  2 beta functions with: 
                l(1) =   0
                l(2) =   0
     Q(r) pseudized with 0 coefficients 


     PseudoPot. # 5 for K  read from file:
     ./../../../pseudos/K.pbe-spn-kjpaw_psl.1.0.0.UPF
     MD5 check sum: 34cc42130a09071ebe376fd42eb21491
     Pseudo is Projector augmented-wave + core cor, Zval =  9.0
     Generated using &quot;atomic&quot; code by A. Dal Corso  v.6.2.2
     Shape of augmentation charge: PSQ
     Using radial grid of 1165 points,  6 beta functions with: 
                l(1) =   0
                l(2) =   0
                l(3) =   1
                l(4) =   1
                l(5) =   2
                l(6) =   2
     Q(r) pseudized with 0 coefficients 


     PseudoPot. # 6 for Mg read from file:
     ./../../../pseudos/Mg.pbe-spnl-kjpaw_psl.1.0.0.UPF
     MD5 check sum: fda14e0d92a6a9a5ebed782e5a4b3067
     Pseudo is Projector augmented-wave + core cor, Zval = 10.0
     Generated using &quot;atomic&quot; code by A. Dal Corso  v.6.3
     Shape of augmentation charge: PSQ
     Using radial grid of 1129 points,  4 beta functions with: 
                l(1) =   0
                l(2) =   0
                l(3) =   1
                l(4) =   1
     Q(r) pseudized with 0 coefficients 


     PseudoPot. # 7 for O  read from file:
     ./../../../pseudos/O.pbe-n-kjpaw_psl.1.0.0.UPF
     MD5 check sum: e99d9cef9b487d1ca56f5b95ecd0fd7a
     Pseudo is Projector augmented-wave + core cor, Zval =  6.0
     Generated using &quot;atomic&quot; code by A. Dal Corso  v.6.3
     Shape of augmentation charge: PSQ
     Using radial grid of 1095 points,  4 beta functions with: 
                l(1) =   0
                l(2) =   0
                l(3) =   1
                l(4) =   1
     Q(r) pseudized with 0 coefficients 


     PseudoPot. # 8 for Si read from file:
     ./../../../pseudos/Si.pbe-n-kjpaw_psl.1.0.0.UPF
     MD5 check sum: c39c59da582df4a0d9f10159256ea34e
     Pseudo is Projector augmented-wave + core cor, Zval =  4.0
     Generated using &quot;atomic&quot; code by A. Dal Corso  v.6.3
     Shape of augmentation charge: PSQ
     Using radial grid of 1141 points,  6 beta functions with: 
                l(1) =   0
                l(2) =   0
                l(3) =   1
                l(4) =   1
                l(5) =   2
                l(6) =   2
     Q(r) pseudized with 0 coefficients 


     atomic species   valence    mass     pseudopotential
     Al                3.00    26.98154     Al( 1.00)
     Fe1              16.00    55.84500     Fe( 1.00)
     Fe2              16.00    55.84500     Fe( 1.00)
     H                 1.00     1.00794     H ( 1.00)
     K                 9.00    39.09830     K ( 1.00)
     Mg               10.00    24.30500     Mg( 1.00)
     O                 6.00    15.99940     O ( 1.00)
     Si                4.00    28.08550     Si( 1.00)

     Starting magnetic structure 
     atomic species   magnetization
     Al              0.000
     Fe1             0.300
     Fe2            -0.300
     H               0.000
     K               0.000
     Mg              0.000
     O               0.000
     Si              0.000

      2 Sym. Ops. (no inversion) found


                                    s                        frac. trans.

      isym =  1     identity                                     

 cryst.   s( 1) = (     1          0          0      )
                  (     0          1          0      )
                  (     0          0          1      )

 cart.    s( 1) = (  1.0000000  0.0000000  0.0000000 )
                  (  0.0000000  1.0000000  0.0000000 )
                  (  0.0000000  0.0000000  1.0000000 )


      isym =  2     180 deg rotation - cart. axis [0,1,0]        

 cryst.   s( 2) = (    -1          0          0      )
                  (     0          1          0      )
                  (     0          0         -1      )

 cart.    s( 2) = ( -1.0000000  0.0000000  0.0000000 )
                  (  0.0000000  1.0000000  0.0000000 )
                  (  0.0000000  0.0000000 -1.0000000 )


     point group C_2  (2)   
     there are  2 classes
     the character table:

       E     C2   
A      1.00  1.00
B      1.00 -1.00

     the symmetry operations in each class and the name of the first element:

     E        1
          identity                                               
     C2       2
          180 deg rotation - cart. axis [0,1,0]                  

   Cartesian axes

     site n.     atom                  positions (alat units)
         1        K      tau(   1) = (   0.0000000   0.4296389   0.0000000  )
         2        K      tau(   2) = (   0.5000000   0.4296389   0.0000000  )
         3        K      tau(   3) = (   0.2500001   0.0024501   0.0000000  )
         4        K      tau(   4) = (   0.7500001   0.0024501   0.0000000  )
         5        Mg     tau(   5) = (  -0.0870414   0.0055279   0.4808550  )
         6        Mg     tau(   6) = (   0.4129586   0.0055279   0.4808550  )
         7        Mg     tau(   7) = (  -0.0870414   0.5801280   0.4808550  )
         8        Mg     tau(   8) = (   0.4129586   0.5801280   0.4808550  )
         9        Mg     tau(   9) = (   0.1629587   0.4310949   0.4808550  )
        10        Mg     tau(  10) = (   0.6629587   0.4310949   0.4808550  )
        11        Mg     tau(  11) = (   0.1629587   0.7269300   0.4808550  )
        12        Mg     tau(  12) = (   0.6629587   0.7269300   0.4808550  )
        13        Mg     tau(  13) = (   0.1629587   0.1482588   0.4808550  )
        14        Mg     tau(  14) = (   0.6629587   0.1482588   0.4808550  )
        15        Si     tau(  15) = (   0.0074326   0.1420119   0.2164892  )
        16        Si     tau(  16) = (   0.5074326   0.1420119   0.2164892  )
        17        Si     tau(  17) = (   0.3184849   0.1420119   0.7452208  )
        18        Si     tau(  18) = (   0.8184849   0.1420119   0.7452208  )
        19        Si     tau(  19) = (   0.3331608   0.7257911   0.7377580  )
        20        Si     tau(  20) = (   0.8331608   0.7257911   0.7377580  )
        21        Si     tau(  21) = (  -0.0072433   0.7257911   0.2239520  )
        22        Si     tau(  22) = (   0.4927567   0.7257911   0.2239520  )
        23        Si     tau(  23) = (   0.2427667   0.5796705   0.2225784  )
        24        Si     tau(  24) = (   0.7427667   0.5796705   0.2225784  )
        25        Si     tau(  25) = (   0.0831508   0.5796705   0.7391315  )
        26        Si     tau(  26) = (   0.5831508   0.5796705   0.7391315  )
        27        Al     tau(  27) = (   0.0682443   0.2875617   0.7425041  )
        28        Al     tau(  28) = (   0.5682443   0.2875617   0.7425041  )
        29        Al     tau(  29) = (   0.2576732   0.2875617   0.2192058  )
        30        Al     tau(  30) = (   0.7576731   0.2875617   0.2192058  )
        31        O      tau(  31) = (   0.0017352   0.1371008   0.3693886  )
        32        O      tau(  32) = (   0.5017352   0.1371008   0.3693886  )
        33        O      tau(  33) = (   0.3241823   0.1371008   0.5923214  )
        34        O      tau(  34) = (   0.8241823   0.1371008   0.5923214  )
        35        O      tau(  35) = (   0.3309875   0.7260882   0.5856762  )
        36        O      tau(  36) = (   0.8309875   0.7260882   0.5856762  )
        37        O      tau(  37) = (  -0.0050700   0.7260882   0.3760337  )
        38        O      tau(  38) = (   0.4949300   0.7260882   0.3760337  )
        39        O      tau(  39) = (   0.2456591   0.5824087   0.3753945  )
        40        O      tau(  40) = (   0.7456591   0.5824087   0.3753945  )
        41        O      tau(  41) = (   0.0802583   0.5824087   0.5863155  )
        42        O      tau(  42) = (   0.5802583   0.5824087   0.5863155  )
        43        O      tau(  43) = (   0.0748950   0.2898192   0.5784747  )
        44        O      tau(  44) = (   0.5748950   0.2898192   0.5784747  )
        45        O      tau(  45) = (   0.2510225   0.2898192   0.3832352  )
        46        O      tau(  46) = (   0.7510224   0.2898192   0.3832352  )
        47        O      tau(  47) = (   0.1463863   0.1775489   0.1626707  )
        48        O      tau(  48) = (   0.6463863   0.1775489   0.1626707  )
        49        O      tau(  49) = (   0.1795312   0.1775489   0.7990392  )
        50        O      tau(  50) = (   0.6795312   0.1775489   0.7990392  )
        51        O      tau(  51) = (  -0.0250455   0.8667889   0.1630411  )
        52        O      tau(  52) = (   0.4749545   0.8667889   0.1630411  )
        53        O      tau(  53) = (   0.3509630   0.8667889   0.7986688  )
        54        O      tau(  54) = (   0.8509630   0.8667889   0.7986688  )
        55        O      tau(  55) = (   0.2001651   0.6682872   0.7942782  )
        56        O      tau(  56) = (   0.7001651   0.6682872   0.7942782  )
        57        O      tau(  57) = (   0.1257524   0.6682872   0.1674318  )
        58        O      tau(  58) = (   0.6257524   0.6682872   0.1674318  )
        59        O      tau(  59) = (   0.3751016   0.6421235   0.1665090  )
        60        O      tau(  60) = (   0.8751016   0.6421235   0.1665090  )
        61        O      tau(  61) = (  -0.0491842   0.6421235   0.7952009  )
        62        O      tau(  62) = (   0.4508158   0.6421235   0.7952009  )
        63        O      tau(  63) = (   0.2267361   0.4412388   0.1614261  )
        64        O      tau(  64) = (   0.7267362   0.4412388   0.1614261  )
        65        O      tau(  65) = (   0.0991813   0.4412388   0.8002838  )
        66        O      tau(  66) = (   0.5991813   0.4412388   0.8002838  )
        67        O      tau(  67) = (  -0.0785908   0.2392057   0.8031981  )
        68        O      tau(  68) = (   0.4214092   0.2392057   0.8031981  )
        69        O      tau(  69) = (   0.4045083   0.2392057   0.1585119  )
        70        O      tau(  70) = (   0.9045082   0.2392057   0.1585119  )
        71        O      tau(  71) = (  -0.0000042   0.4450115   0.3781135  )
        72        O      tau(  72) = (   0.4999958   0.4450115   0.3781135  )
        73        O      tau(  73) = (   0.3259217   0.4450115   0.5835965  )
        74        O      tau(  74) = (   0.8259217   0.4450115   0.5835965  )
        75        O      tau(  75) = (   0.2478596   0.8693925   0.3836472  )
        76        O      tau(  76) = (   0.7478596   0.8693925   0.3836472  )
        77        O      tau(  77) = (   0.0780579   0.8693925   0.5780627  )
        78        O      tau(  78) = (   0.5780579   0.8693925   0.5780627  )
        79        H      tau(  79) = (   0.0004471   0.4269259   0.2892434  )
        80        H      tau(  80) = (   0.5004471   0.4269259   0.2892434  )
        81        H      tau(  81) = (   0.3254704   0.4269259   0.6724666  )
        82        H      tau(  82) = (   0.8254704   0.4269259   0.6724666  )
        83        H      tau(  83) = (   0.2447352   0.0128545   0.2939423  )
        84        H      tau(  84) = (   0.7447351   0.0128545   0.2939423  )
        85        H      tau(  85) = (   0.0811823   0.0128545   0.6677677  )
        86        H      tau(  86) = (   0.5811823   0.0128545   0.6677677  )
        87        Fe1    tau(  87) = (  -0.0870414   0.2919251   0.4808550  )
        88        Fe2    tau(  88) = (   0.4129586   0.2919251   0.4808550  )

     --------------------------------------------
     DFT-D3 Dispersion Correction (3-body terms):
     --------------------------------------------
       Reference C6 values for interpolation: 

         atom   Coordination number   C6
         H          0.912             6.05
         H          0.000            15.18
         O          0.000            31.01
         O          0.993            25.63
         O          1.989            20.74
         Mg         0.000          1366.75
         Mg         0.963           902.54
         Mg         1.950           351.12
         Al         0.000          1081.08
         Al         0.965           875.51
         Al         1.931           513.50
         Al         2.915           307.19
         Si         0.000           635.71
         Si         0.951           540.53
         Si         1.944           466.25
         Si         2.941           443.01
         Si         3.868           299.55
         K          0.000          9967.00
         K          0.977           676.04
         Fe1        0.000           982.67
         Fe1        1.648           409.99
         Fe1        9.138           219.01
         Fe2        0.000           982.67
         Fe2        1.648           409.99
         Fe2        9.138           219.01

       Values used:

         atom   Coordination number  R0_AB[au]  C6      C8
         K         11.877            4.007    676.04 129074.98
         K         11.877            4.007    676.04 129074.98
         K         12.270            4.007    676.04 129074.98
         K         12.270            4.007    676.04 129074.98
         Mg        11.314            3.292    351.12  31436.69
         Mg        11.314            3.292    351.12  31436.69
         Mg        11.299            3.292    351.12  31436.69
         Mg        11.299            3.292    351.12  31436.69
         Mg        11.204            3.292    351.12  31436.69
         Mg        11.204            3.292    351.12  31436.69
         Mg        11.573            3.292    351.12  31436.69
         Mg        11.573            3.292    351.12  31436.69
         Mg        11.383            3.292    351.12  31436.69
         Mg        11.383            3.292    351.12  31436.69
         Si         6.519            3.583    299.55  21425.58
         Si         6.519            3.583    299.55  21425.58
         Si         6.519            3.583    299.55  21425.58
         Si         6.519            3.583    299.55  21425.58
         Si         6.299            3.583    299.55  21425.58
         Si         6.299            3.583    299.55  21425.58
         Si         6.299            3.583    299.55  21425.58
         Si         6.299            3.583    299.55  21425.58
         Si         6.332            3.583    299.55  21425.58
         Si         6.332            3.583    299.55  21425.58
         Si         6.332            3.583    299.55  21425.58
         Si         6.332            3.583    299.55  21425.58
         Al         7.195            3.789    307.19  29441.29
         Al         7.195            3.789    307.19  29441.29
         Al         7.195            3.789    307.19  29441.29
         Al         7.195            3.789    307.19  29441.29
         O          3.463            2.345     20.74    418.58
         O          3.463            2.345     20.74    418.58
         O          3.463            2.345     20.74    418.58
         O          3.463            2.345     20.74    418.58
         O          3.908            2.345     20.74    418.58
         O          3.908            2.345     20.74    418.58
         O          3.908            2.345     20.74    418.58
         O          3.908            2.345     20.74    418.58
         O          3.897            2.345     20.74    418.58
         O          3.897            2.345     20.74    418.58
         O          3.897            2.345     20.74    418.58
         O          3.897            2.345     20.74    418.58
         O          3.833            2.345     20.74    418.58
         O          3.833            2.345     20.74    418.58
         O          3.833            2.345     20.74    418.58
         O          3.833            2.345     20.74    418.58
         O          3.114            2.345     20.74    418.58
         O          3.114            2.345     20.74    418.58
         O          3.114            2.345     20.74    418.58
         O          3.114            2.345     20.74    418.58
         O          3.077            2.345     20.74    418.58
         O          3.077            2.345     20.74    418.58
         O          3.077            2.345     20.74    418.58
         O          3.077            2.345     20.74    418.58
         O          2.927            2.345     20.74    418.58
         O          2.927            2.345     20.74    418.58
         O          2.927            2.345     20.74    418.58
         O          2.927            2.345     20.74    418.58
         O          2.924            2.345     20.74    418.58
         O          2.924            2.345     20.74    418.58
         O          2.924            2.345     20.74    418.58
         O          2.924            2.345     20.74    418.58
         O          3.084            2.345     20.74    418.58
         O          3.084            2.345     20.74    418.58
         O          3.084            2.345     20.74    418.58
         O          3.084            2.345     20.74    418.58
         O          3.139            2.345     20.74    418.58
         O          3.139            2.345     20.74    418.58
         O          3.139            2.345     20.74    418.58
         O          3.139            2.345     20.74    418.58
         O          3.632            2.345     20.74    418.58
         O          3.632            2.345     20.74    418.58
         O          3.632            2.345     20.74    418.58
         O          3.632            2.345     20.74    418.58
         O          3.981            2.345     20.74    418.58
         O          3.981            2.345     20.74    418.58
         O          3.981            2.345     20.74    418.58
         O          3.981            2.345     20.74    418.58
         H          1.231            2.062      6.08     73.47
         H          1.231            2.062      6.08     73.47
         H          1.231            2.062      6.08     73.47
         H          1.231            2.062      6.08     73.47
         H          1.237            2.062      6.08     73.45
         H          1.237            2.062      6.08     73.45
         H          1.237            2.062      6.08     73.45
         H          1.237            2.062      6.08     73.45
         Fe1        7.261            3.252    219.01  20487.87
         Fe2        7.261            3.252    219.01  20487.87

         Molecular C6 ( Ry / a.u.^6 ) =    661236.15


   Crystallographic axes

     site n.     atom                  positions (cryst. coord.)
         1        K      tau(   1) = (  0.0000000  0.4939509  0.0000000  )
         2        K      tau(   2) = (  0.5000000  0.4939509  0.0000000  )
         3        K      tau(   3) = (  0.2500001  0.0028168  0.0000000  )
         4        K      tau(   4) = (  0.7500001  0.0028168  0.0000000  )
         5        Mg     tau(   5) = (  0.0000000  0.0063553  0.4999999  )
         6        Mg     tau(   6) = (  0.5000000  0.0063553  0.4999999  )
         7        Mg     tau(   7) = (  0.0000000  0.6669664  0.4999999  )
         8        Mg     tau(   8) = (  0.5000000  0.6669664  0.4999999  )
         9        Mg     tau(   9) = (  0.2500001  0.4956248  0.4999999  )
        10        Mg     tau(  10) = (  0.7500001  0.4956248  0.4999999  )
        11        Mg     tau(  11) = (  0.2500001  0.8357430  0.4999999  )
        12        Mg     tau(  12) = (  0.7500001  0.8357430  0.4999999  )
        13        Mg     tau(  13) = (  0.2500001  0.1704514  0.4999999  )
        14        Mg     tau(  14) = (  0.7500001  0.1704514  0.4999999  )
        15        Si     tau(  15) = (  0.0466201  0.1632694  0.2251086  )
        16        Si     tau(  16) = (  0.5466201  0.1632694  0.2251086  )
        17        Si     tau(  17) = (  0.4533802  0.1632694  0.7748913  )
        18        Si     tau(  18) = (  0.9533802  0.1632694  0.7748913  )
        19        Si     tau(  19) = (  0.4667052  0.8344337  0.7671314  )
        20        Si     tau(  20) = (  0.9667052  0.8344337  0.7671314  )
        21        Si     tau(  21) = (  0.0332951  0.8344337  0.2328685  )
        22        Si     tau(  22) = (  0.5332951  0.8344337  0.2328685  )
        23        Si     tau(  23) = (  0.2830564  0.6664404  0.2314402  )
        24        Si     tau(  24) = (  0.7830564  0.6664404  0.2314402  )
        25        Si     tau(  25) = (  0.2169439  0.6664404  0.7685596  )
        26        Si     tau(  26) = (  0.7169439  0.6664404  0.7685596  )
        27        Al     tau(  27) = (  0.2026479  0.3306063  0.7720665  )
        28        Al     tau(  28) = (  0.7026479  0.3306063  0.7720665  )
        29        Al     tau(  29) = (  0.2973525  0.3306063  0.2279334  )
        30        Al     tau(  30) = (  0.7973524  0.3306063  0.2279334  )
        31        O      tau(  31) = (  0.0685997  0.1576232  0.3840956  )
        32        O      tau(  32) = (  0.5685996  0.1576232  0.3840956  )
        33        O      tau(  33) = (  0.4314007  0.1576232  0.6159044  )
        34        O      tau(  34) = (  0.9314007  0.1576232  0.6159044  )
        35        O      tau(  35) = (  0.4370030  0.8347753  0.6089946  )
        36        O      tau(  36) = (  0.9370030  0.8347753  0.6089946  )
        37        O      tau(  37) = (  0.0629973  0.8347753  0.3910053  )
        38        O      tau(  38) = (  0.5629973  0.8347753  0.3910053  )
        39        O      tau(  39) = (  0.3136107  0.6695885  0.3903406  )
        40        O      tau(  40) = (  0.8136107  0.6695885  0.3903406  )
        41        O      tau(  41) = (  0.1863896  0.6695885  0.6096593  )
        42        O      tau(  42) = (  0.6863896  0.6695885  0.6096593  )
        43        O      tau(  43) = (  0.1796070  0.3332018  0.6015063  )
        44        O      tau(  44) = (  0.6796070  0.3332018  0.6015063  )
        45        O      tau(  45) = (  0.3203934  0.3332018  0.3984935  )
        46        O      tau(  46) = (  0.8203933  0.3332018  0.3984935  )
        47        O      tau(  47) = (  0.1758320  0.2041259  0.1691474  )
        48        O      tau(  48) = (  0.6758320  0.2041259  0.1691474  )
        49        O      tau(  49) = (  0.3241684  0.2041259  0.8308524  )
        50        O      tau(  50) = (  0.8241683  0.2041259  0.8308524  )
        51        O      tau(  51) = (  0.0044672  0.9965371  0.1695325  )
        52        O      tau(  52) = (  0.5044672  0.9965371  0.1695325  )
        53        O      tau(  53) = (  0.4955331  0.9965371  0.8304673  )
        54        O      tau(  54) = (  0.9955331  0.9965371  0.8304673  )
        55        O      tau(  55) = (  0.3439404  0.7683221  0.8259019  )
        56        O      tau(  56) = (  0.8439404  0.7683221  0.8259019  )
        57        O      tau(  57) = (  0.1560599  0.7683221  0.1740980  )
        58        O      tau(  58) = (  0.6560599  0.7683221  0.1740980  )
        59        O      tau(  59) = (  0.4052421  0.7382420  0.1731385  )
        60        O      tau(  60) = (  0.9052421  0.7382420  0.1731385  )
        61        O      tau(  61) = (  0.0947582  0.7382420  0.8268614  )
        62        O      tau(  62) = (  0.5947582  0.7382420  0.8268614  )
        63        O      tau(  63) = (  0.2559565  0.5072872  0.1678532  )
        64        O      tau(  64) = (  0.7559565  0.5072872  0.1678532  )
        65        O      tau(  65) = (  0.2440438  0.5072872  0.8321466  )
        66        O      tau(  66) = (  0.7440438  0.5072872  0.8321466  )
        67        O      tau(  67) = (  0.0667992  0.2750120  0.8351769  )
        68        O      tau(  68) = (  0.5667992  0.2750120  0.8351769  )
        69        O      tau(  69) = (  0.4332011  0.2750120  0.1648230  )
        70        O      tau(  70) = (  0.9332011  0.2750120  0.1648230  )
        71        O      tau(  71) = (  0.0684395  0.5116246  0.3931678  )
        72        O      tau(  72) = (  0.5684395  0.5116246  0.3931678  )
        73        O      tau(  73) = (  0.4315608  0.5116246  0.6068321  )
        74        O      tau(  74) = (  0.9315608  0.5116246  0.6068321  )
        75        O      tau(  75) = (  0.3173051  0.9995306  0.3989219  )
        76        O      tau(  76) = (  0.8173051  0.9995306  0.3989219  )
        77        O      tau(  77) = (  0.1826953  0.9995306  0.6010780  )
        78        O      tau(  78) = (  0.6826953  0.9995306  0.6010780  )
        79        H      tau(  79) = (  0.0528041  0.4908318  0.3007595  )
        80        H      tau(  80) = (  0.5528042  0.4908318  0.3007595  )
        81        H      tau(  81) = (  0.4471962  0.4908318  0.6992404  )
        82        H      tau(  82) = (  0.9471962  0.4908318  0.6992404  )
        83        H      tau(  83) = (  0.2979428  0.0147786  0.3056454  )
        84        H      tau(  84) = (  0.7979428  0.0147786  0.3056454  )
        85        H      tau(  85) = (  0.2020575  0.0147786  0.6943545  )
        86        H      tau(  86) = (  0.7020575  0.0147786  0.6943545  )
        87        Fe1    tau(  87) = (  0.0000000  0.3356230  0.4999999  )
        88        Fe2    tau(  88) = (  0.5000000  0.3356230  0.4999999  )

     number of k points=    10  Gaussian smearing, width (Ry)=  0.0010
                       cart. coord. in units 2pi/alat
        k(    1) = (   0.0000000   0.0000000   0.0000000), wk =   0.0370370
        k(    2) = (   0.0000000   0.0000000   0.3466048), wk =   0.0740741
        k(    3) = (   0.0000000   0.3832295   0.0000000), wk =   0.0740741
        k(    4) = (   0.0000000   0.3832295   0.3466048), wk =   0.1481481
        k(    5) = (   0.3333333   0.0000000   0.0603380), wk =   0.0740741
        k(    6) = (   0.3333333   0.0000000   0.4069428), wk =   0.0740741
        k(    7) = (   0.3333333   0.0000000  -0.2862669), wk =   0.0740741
        k(    8) = (   0.3333333   0.3832295   0.0603380), wk =   0.1481481
        k(    9) = (   0.3333333   0.3832295   0.4069428), wk =   0.1481481
        k(   10) = (   0.3333333   0.3832295  -0.2862669), wk =   0.1481481

                       cryst. coord.
        k(    1) = (   0.0000000   0.0000000   0.0000000), wk =   0.0370370
        k(    2) = (   0.0000000   0.0000000   0.3333333), wk =   0.0740741
        k(    3) = (   0.0000000   0.3333333   0.0000000), wk =   0.0740741
        k(    4) = (   0.0000000   0.3333333   0.3333333), wk =   0.1481481
        k(    5) = (   0.3333333   0.0000000   0.0000000), wk =   0.0740741
        k(    6) = (   0.3333333   0.0000000   0.3333333), wk =   0.0740741
        k(    7) = (   0.3333333   0.0000000  -0.3333333), wk =   0.0740741
        k(    8) = (   0.3333333   0.3333333   0.0000000), wk =   0.1481481
        k(    9) = (   0.3333333   0.3333333   0.3333333), wk =   0.1481481
        k(   10) = (   0.3333333   0.3333333  -0.3333333), wk =   0.1481481

     Dense  grid:  1212455 G-vectors     FFT dimensions: ( 144, 125, 144)

     Smooth grid:   428701 G-vectors     FFT dimensions: ( 100,  90, 100)

     Dynamical RAM for                 wfc:      42.80 MB

     Dynamical RAM for     wfc (w. buffer):     898.71 MB

     Dynamical RAM for           str. fact:      24.67 MB

     Dynamical RAM for           local pot:       0.00 MB

     Dynamical RAM for          nlocal pot:     119.39 MB

     Dynamical RAM for                qrad:      28.13 MB

     Dynamical RAM for          rho,v,vnew:      38.28 MB

     Dynamical RAM for               rhoin:      12.76 MB

     Dynamical RAM for            rho*nmix:      98.67 MB

     Dynamical RAM for           G-vectors:      12.11 MB

     Dynamical RAM for          h,s,v(r/c):       4.51 MB

     Dynamical RAM for          <psi|beta>:       4.20 MB

     Dynamical RAM for                 psi:      85.59 MB

     Dynamical RAM for                hpsi:      85.59 MB

     Dynamical RAM for                spsi:      85.59 MB

     Dynamical RAM for      wfcinit/wfcrot:      87.85 MB

     Dynamical RAM for           addusdens:     724.61 MB

     Dynamical RAM for          addusforce:    1014.83 MB

     Dynamical RAM for         addusstress:     624.40 MB

     Estimated static dynamical RAM per process >       1.15 GB

     Estimated max dynamical RAM per process >       2.24 GB

     Estimated total dynamical RAM >      13.45 GB

     Atomic positions and unit cell read from directory:
     ./temp/phl-fe1-fe2x2.save/
     Atomic positions from file used, from input discarded


     Check: negative core charge=   -0.000004
     Generating pointlists ...
     new r_m :   0.0677 (alat units)  1.3631 (a.u.) for type    1
     new r_m :   0.0780 (alat units)  1.5709 (a.u.) for type    2
     new r_m :   0.0780 (alat units)  1.5709 (a.u.) for type    3
     new r_m :   0.0374 (alat units)  0.7533 (a.u.) for type    4
     new r_m :   0.1074 (alat units)  2.1634 (a.u.) for type    5
     new r_m :   0.0786 (alat units)  1.5836 (a.u.) for type    6
     new r_m :   0.0374 (alat units)  0.7533 (a.u.) for type    7
     new r_m :   0.0627 (alat units)  1.2632 (a.u.) for type    8

     The initial density is read from file :
     ./temp/phl-fe1-fe2x2.save/charge-density


     starting charge     523.9376, renormalised to     524.0000

     negative rho (up, down):  3.793E-04 3.793E-04
     Cannot read wfcs: file not found
     Starting wfcs are  366 randomized atomic wfcs
     Checking if some PAW data can be deallocated... 
       PAW data deallocated on    5 nodes for type:  1
       PAW data deallocated on    5 nodes for type:  2
       PAW data deallocated on    5 nodes for type:  3
       PAW data deallocated on    5 nodes for type:  4
       PAW data deallocated on    5 nodes for type:  5
       PAW data deallocated on    5 nodes for type:  6
       PAW data deallocated on    2 nodes for type:  7
       PAW data deallocated on    4 nodes for type:  8

     total cpu time spent up to now is      544.3 secs

     Self-consistent Calculation

     iteration #  1     ecut=    60.00 Ry     beta= 0.70
     Davidson diagonalization with overlap

---- Real-time Memory Report at c_bands before calling an iterative solver
          1295 MiB given to the printing process from OS
             0 MiB allocation reported by mallinfo(arena+hblkhd)
          7452 MiB available memory on the node where the printing process lives
------------------
     c_bands:  4 eigenvalues not converged
     c_bands:  4 eigenvalues not converged
     c_bands:  4 eigenvalues not converged
     c_bands:  4 eigenvalues not converged
     c_bands:  1 eigenvalues not converged
     c_bands:  2 eigenvalues not converged
     c_bands:  4 eigenvalues not converged
     c_bands:  5 eigenvalues not converged
     c_bands:  3 eigenvalues not converged
     c_bands:  3 eigenvalues not converged
     c_bands:  4 eigenvalues not converged
     c_bands:  4 eigenvalues not converged
     c_bands:  5 eigenvalues not converged
     c_bands:  4 eigenvalues not converged
     c_bands:  2 eigenvalues not converged
     c_bands:  2 eigenvalues not converged
     c_bands:  3 eigenvalues not converged
     c_bands:  5 eigenvalues not converged
     c_bands:  4 eigenvalues not converged
     c_bands:  3 eigenvalues not converged
     ethr =  1.00E-05,  avg # of iterations = 40.0

     negative rho (up, down):  3.792E-04 3.793E-04

     total cpu time spent up to now is    15093.2 secs

     total energy              =   -5262.52655796 Ry
     estimated scf accuracy    <       0.00628817 Ry

     total magnetization       =    -0.00 Bohr mag/cell
     absolute magnetization    =     8.07 Bohr mag/cell

     iteration #  2     ecut=    60.00 Ry     beta= 0.70
     Davidson diagonalization with overlap

---- Real-time Memory Report at c_bands before calling an iterative solver
          1900 MiB given to the printing process from OS
             0 MiB allocation reported by mallinfo(arena+hblkhd)
          6846 MiB available memory on the node where the printing process lives
------------------
     c_bands:  3 eigenvalues not converged
     c_bands:  2 eigenvalues not converged
     c_bands:  2 eigenvalues not converged
     c_bands:  1 eigenvalues not converged
     c_bands:  2 eigenvalues not converged
     c_bands:  3 eigenvalues not converged
     c_bands:  1 eigenvalues not converged
     c_bands:  1 eigenvalues not converged
     c_bands:  1 eigenvalues not converged
     c_bands:  1 eigenvalues not converged
     ethr =  1.20E-06,  avg # of iterations = 16.0

     negative rho (up, down):  3.789E-04 3.788E-04

     total cpu time spent up to now is    17068.8 secs

     total energy              =   -5262.52839208 Ry
     estimated scf accuracy    <       0.00051260 Ry

     total magnetization       =    -0.00 Bohr mag/cell
     absolute magnetization    =     8.07 Bohr mag/cell

     iteration #  3     ecut=    60.00 Ry     beta= 0.70
     Davidson diagonalization with overlap

---- Real-time Memory Report at c_bands before calling an iterative solver
          1905 MiB given to the printing process from OS
             0 MiB allocation reported by mallinfo(arena+hblkhd)
          6819 MiB available memory on the node where the printing process lives
------------------
     c_bands:  1 eigenvalues not converged
     c_bands:  1 eigenvalues not converged
     ethr =  9.78E-08,  avg # of iterations = 10.4

     negative rho (up, down):  3.790E-04 3.791E-04

     total cpu time spent up to now is    19626.5 secs

     total energy              =   -5262.52880988 Ry
     estimated scf accuracy    <       0.00012410 Ry

     total magnetization       =     0.00 Bohr mag/cell
     absolute magnetization    =     8.07 Bohr mag/cell

     iteration #  4     ecut=    60.00 Ry     beta= 0.70
     Davidson diagonalization with overlap

---- Real-time Memory Report at c_bands before calling an iterative solver
          1910 MiB given to the printing process from OS
             0 MiB allocation reported by mallinfo(arena+hblkhd)
          6788 MiB available memory on the node where the printing process lives
------------------
     ethr =  2.37E-08,  avg # of iterations =  5.4

     negative rho (up, down):  3.789E-04 3.789E-04

     total cpu time spent up to now is    21805.4 secs

     total energy              =   -5262.52886928 Ry
     estimated scf accuracy    <       0.00001131 Ry

     total magnetization       =    -0.00 Bohr mag/cell
     absolute magnetization    =     8.07 Bohr mag/cell

     iteration #  5     ecut=    60.00 Ry     beta= 0.70
     Davidson diagonalization with overlap

---- Real-time Memory Report at c_bands before calling an iterative solver
          1914 MiB given to the printing process from OS
             0 MiB allocation reported by mallinfo(arena+hblkhd)
          6761 MiB available memory on the node where the printing process lives
------------------
     ethr =  2.16E-09,  avg # of iterations =  7.2

     negative rho (up, down):  3.790E-04 3.791E-04

     total cpu time spent up to now is    25086.5 secs

     total energy              =   -5262.52888051 Ry
     estimated scf accuracy    <       0.00000189 Ry

     total magnetization       =     0.00 Bohr mag/cell
     absolute magnetization    =     8.07 Bohr mag/cell

     iteration #  6     ecut=    60.00 Ry     beta= 0.70
     Davidson diagonalization with overlap

---- Real-time Memory Report at c_bands before calling an iterative solver
          1919 MiB given to the printing process from OS
             0 MiB allocation reported by mallinfo(arena+hblkhd)
          6733 MiB available memory on the node where the printing process lives
------------------
     ethr =  3.61E-10,  avg # of iterations =  7.0

     negative rho (up, down):  3.790E-04 3.790E-04

     total cpu time spent up to now is    27801.8 secs

     total energy              =   -5262.52888157 Ry
     estimated scf accuracy    <       0.00000112 Ry

     total magnetization       =     0.00 Bohr mag/cell
     absolute magnetization    =     8.07 Bohr mag/cell

     iteration #  7     ecut=    60.00 Ry     beta= 0.70
     Davidson diagonalization with overlap

---- Real-time Memory Report at c_bands before calling an iterative solver
          1924 MiB given to the printing process from OS
             0 MiB allocation reported by mallinfo(arena+hblkhd)
          6703 MiB available memory on the node where the printing process lives
------------------
     ethr =  2.14E-10,  avg # of iterations =  6.6

     negative rho (up, down):  3.790E-04 3.791E-04

     Magnetic moment per site  (integrated on atomic sphere of radius R)
     atom   1 (R=0.107)  charge=  7.5395  magn=  0.0000
     atom   2 (R=0.107)  charge=  7.5395  magn= -0.0000
     atom   3 (R=0.107)  charge=  7.5437  magn=  0.0000
     atom   4 (R=0.107)  charge=  7.5437  magn=  0.0000
     atom   5 (R=0.079)  charge=  8.1103  magn= -0.0003
     atom   6 (R=0.079)  charge=  8.1103  magn=  0.0003
     atom   7 (R=0.079)  charge=  8.1068  magn= -0.0001
     atom   8 (R=0.079)  charge=  8.1068  magn=  0.0001
     atom   9 (R=0.079)  charge=  8.1094  magn= -0.0000
     atom  10 (R=0.079)  charge=  8.1094  magn= -0.0000
     atom  11 (R=0.079)  charge=  8.1055  magn= -0.0000
     atom  12 (R=0.079)  charge=  8.1055  magn= -0.0000
     atom  13 (R=0.079)  charge=  8.1131  magn= -0.0000
     atom  14 (R=0.079)  charge=  8.1131  magn= -0.0000
     atom  15 (R=0.063)  charge=  0.5511  magn=  0.0008
     atom  16 (R=0.063)  charge=  0.5511  magn= -0.0008
     atom  17 (R=0.063)  charge=  0.5511  magn= -0.0008
     atom  18 (R=0.063)  charge=  0.5511  magn=  0.0008
     atom  19 (R=0.063)  charge=  0.5435  magn=  0.0000
     atom  20 (R=0.063)  charge=  0.5435  magn= -0.0000
     atom  21 (R=0.063)  charge=  0.5435  magn= -0.0000
     atom  22 (R=0.063)  charge=  0.5435  magn=  0.0000
     atom  23 (R=0.063)  charge=  0.5432  magn= -0.0000
     atom  24 (R=0.063)  charge=  0.5432  magn=  0.0000
     atom  25 (R=0.063)  charge=  0.5432  magn=  0.0000
     atom  26 (R=0.063)  charge=  0.5432  magn= -0.0000
     atom  27 (R=0.068)  charge=  0.3430  magn=  0.0013
     atom  28 (R=0.068)  charge=  0.3430  magn= -0.0013
     atom  29 (R=0.068)  charge=  0.3430  magn= -0.0013
     atom  30 (R=0.068)  charge=  0.3430  magn=  0.0013
     atom  31 (R=0.037)  charge=  1.9385  magn=  0.0151
     atom  32 (R=0.037)  charge=  1.9385  magn= -0.0151
     atom  33 (R=0.037)  charge=  1.9385  magn= -0.0151
     atom  34 (R=0.037)  charge=  1.9385  magn=  0.0151
     atom  35 (R=0.037)  charge=  1.9420  magn= -0.0004
     atom  36 (R=0.037)  charge=  1.9420  magn=  0.0004
     atom  37 (R=0.037)  charge=  1.9420  magn=  0.0004
     atom  38 (R=0.037)  charge=  1.9420  magn= -0.0004
     atom  39 (R=0.037)  charge=  1.9412  magn=  0.0003
     atom  40 (R=0.037)  charge=  1.9412  magn= -0.0003
     atom  41 (R=0.037)  charge=  1.9412  magn= -0.0003
     atom  42 (R=0.037)  charge=  1.9412  magn=  0.0003
     atom  43 (R=0.037)  charge=  1.9334  magn=  0.0274
     atom  44 (R=0.037)  charge=  1.9334  magn= -0.0274
     atom  45 (R=0.037)  charge=  1.9334  magn= -0.0274
     atom  46 (R=0.037)  charge=  1.9334  magn=  0.0274
     atom  47 (R=0.037)  charge=  1.9412  magn= -0.0003
     atom  48 (R=0.037)  charge=  1.9412  magn=  0.0003
     atom  49 (R=0.037)  charge=  1.9412  magn=  0.0003
     atom  50 (R=0.037)  charge=  1.9412  magn= -0.0003
     atom  51 (R=0.037)  charge=  1.9447  magn=  0.0008
     atom  52 (R=0.037)  charge=  1.9447  magn= -0.0008
     atom  53 (R=0.037)  charge=  1.9447  magn= -0.0008
     atom  54 (R=0.037)  charge=  1.9447  magn=  0.0008
     atom  55 (R=0.037)  charge=  1.9478  magn= -0.0001
     atom  56 (R=0.037)  charge=  1.9478  magn=  0.0001
     atom  57 (R=0.037)  charge=  1.9478  magn=  0.0001
     atom  58 (R=0.037)  charge=  1.9478  magn= -0.0001
     atom  59 (R=0.037)  charge=  1.9474  magn= -0.0001
     atom  60 (R=0.037)  charge=  1.9474  magn=  0.0001
     atom  61 (R=0.037)  charge=  1.9474  magn=  0.0001
     atom  62 (R=0.037)  charge=  1.9474  magn= -0.0001
     atom  63 (R=0.037)  charge=  1.9415  magn= -0.0003
     atom  64 (R=0.037)  charge=  1.9415  magn=  0.0003
     atom  65 (R=0.037)  charge=  1.9415  magn=  0.0003
     atom  66 (R=0.037)  charge=  1.9415  magn= -0.0003
     atom  67 (R=0.037)  charge=  1.9414  magn= -0.0001
     atom  68 (R=0.037)  charge=  1.9414  magn=  0.0001
     atom  69 (R=0.037)  charge=  1.9414  magn=  0.0001
     atom  70 (R=0.037)  charge=  1.9414  magn= -0.0001
     atom  71 (R=0.037)  charge=  1.9388  magn=  0.0205
     atom  72 (R=0.037)  charge=  1.9388  magn= -0.0205
     atom  73 (R=0.037)  charge=  1.9388  magn= -0.0205
     atom  74 (R=0.037)  charge=  1.9388  magn=  0.0205
     atom  75 (R=0.037)  charge=  1.9443  magn=  0.0002
     atom  76 (R=0.037)  charge=  1.9443  magn= -0.0002
     atom  77 (R=0.037)  charge=  1.9443  magn= -0.0002
     atom  78 (R=0.037)  charge=  1.9443  magn=  0.0002
     atom  79 (R=0.037)  charge=  0.3998  magn=  0.0001
     atom  80 (R=0.037)  charge=  0.3998  magn= -0.0001
     atom  81 (R=0.037)  charge=  0.3998  magn= -0.0001
     atom  82 (R=0.037)  charge=  0.3998  magn=  0.0001
     atom  83 (R=0.037)  charge=  0.4002  magn= -0.0000
     atom  84 (R=0.037)  charge=  0.4002  magn=  0.0000
     atom  85 (R=0.037)  charge=  0.4002  magn=  0.0000
     atom  86 (R=0.037)  charge=  0.4002  magn= -0.0000
     atom  87 (R=0.078)  charge= 13.2594  magn=  3.2755
     atom  88 (R=0.078)  charge= 13.2595  magn= -3.2754

     total cpu time spent up to now is    29379.1 secs

     End of self-consistent calculation

 ------ SPIN UP ------------


          k = 0.0000 0.0000 0.0000 ( 53617 PWs)   bands (ev):

   -81.5285 -77.4053 -67.8923 -67.8922 -67.8659 -67.8656 -67.6769 -67.6765
   -67.5401 -67.5401 -67.3667 -67.3667 -48.5276 -47.2123 -47.0142 -43.8210
   -43.4760 -43.3920 -34.6611 -34.6597 -34.6439 -34.6401 -34.6361 -34.6332
   -34.6250 -34.6228 -34.6223 -34.6204 -34.6008 -34.6005 -34.4422 -34.4416
   -34.4321 -34.4318 -34.4119 -34.4116 -34.2998 -34.2996 -34.2914 -34.2913
   -34.2838 -34.2837 -34.1298 -34.1296 -34.1170 -34.1168 -34.1092 -34.1090
   -23.4842 -23.4838 -23.4590 -23.4585 -15.2371 -15.1929 -14.8645 -14.8317
   -14.6115 -14.5817 -14.3191 -14.2808 -14.0544 -14.0291 -13.7916 -13.7762
   -13.6142 -13.5084 -13.4415 -13.3486 -13.3173 -13.2782 -13.2199 -13.2197
   -13.1590 -13.1422 -13.1025 -13.0999 -13.0757 -13.0611 -13.0425 -13.0373
   -12.9520 -12.9312 -12.8654 -12.8292 -12.7966 -12.7752 -12.7077 -12.6819
   -12.6479 -12.6003 -12.5359 -12.5176 -12.4354 -12.3732 -12.3426 -12.2947
   -11.7580 -11.6816 -11.5185 -11.4435  -7.0386  -7.0313  -7.0061  -6.9993
    -6.9546  -6.9520  -6.9516  -6.9422  -6.9400  -6.9379  -6.9309  -6.9285
    -4.5001  -4.4589  -3.5332  -3.4751  -3.0314  -2.9700  -2.6207  -2.5393
    -2.0112  -1.9378  -1.8624  -1.5397  -1.4818  -1.4368  -1.3773  -1.3571
    -1.2712  -1.2151  -1.1245  -1.1046  -0.9671  -0.9030  -0.8401  -0.8363
    -0.7724  -0.5820  -0.5495  -0.5160  -0.4396  -0.4046  -0.3677  -0.3112
    -0.1995  -0.1985  -0.1690  -0.1075   0.0009   0.1765   0.1882   0.2148
     0.2565   0.3101   0.3258   0.3536   0.4629   0.4834   0.4986   0.6341
     0.6927   0.7003   0.7956   0.8366   0.8717   0.9083   0.9302   1.0290
     1.1687   1.2044   1.2583   1.2636   1.2678   1.2919   1.3083   1.4241
     1.4312   1.4914   1.4939   1.5763   1.5876   1.6329   1.6838   1.8558
     1.8735   1.9035   1.9042   1.9507   1.9906   2.0228   2.0469   2.1594
     2.1645   2.1907   2.2584   2.2807   2.3540   2.3838   2.3893   2.3983
     2.4282   2.4837   2.4958   2.5250   2.5562   2.5857   2.5876   2.6273
     2.6368   2.6475   2.7104   2.7752   2.7801   2.8122   2.8207   2.8388
     2.8613   2.8961   2.9127   2.9571   3.0033   3.0165   3.0693   3.0905
     3.0976   3.1362   3.1394   3.1685   3.1725   3.1820   3.2194   3.2307
     3.2320   3.2885   3.3175   3.3283   3.3408   3.3649   3.3820   3.4266
     3.4635   3.5125   3.5278   3.5490   3.5506   3.6069   3.6389   3.6405
     3.6712   3.6721   3.6965   3.8398   3.8864   3.9500   4.0696   4.1203
     4.9990   5.1188   6.0300   6.4836   6.7267   7.8624   8.6257   8.6452
     8.7298   9.6506  10.1090  10.2433  10.7420  10.7703  10.8684  11.1720
    11.2766  11.3917  11.5650  11.5865  11.6076  11.6696  11.8162  12.0998
    12.1515  12.1787  12.2407  12.3400  12.4435  12.6197  12.6277  12.7268
    12.7811  12.8173  12.8300  12.8767  12.9514  12.9919  13.1104  13.1222
    13.1766  13.2271  13.2755  13.3924  13.4393  13.4429  13.5049  13.5257
    13.5467  13.5619  13.5739  13.6514  13.6693  13.6911  13.7282  13.8606
    13.9608  14.0306

     occupation numbers 
     1.0000   1.0000   1.0000   1.0000   1.0000   1.0000   1.0000   1.0000
     1.0000   1.0000   1.0000   1.0000   1.0000   1.0000   1.0000   1.0000
     1.0000   1.0000   1.0000   1.0000   1.0000   1.0000   1.0000   1.0000
     1.0000   1.0000   1.0000   1.0000   1.0000   1.0000   1.0000   1.0000
     1.0000   1.0000   1.0000   1.0000   1.0000   1.0000   1.0000   1.0000
     1.0000   1.0000   1.0000   1.0000   1.0000   1.0000   1.0000   1.0000
     1.0000   1.0000   1.0000   1.0000   1.0000   1.0000   1.0000   1.0000
     1.0000   1.0000   1.0000   1.0000   1.0000   1.0000   1.0000   1.0000
     1.0000   1.0000   1.0000   1.0000   1.0000   1.0000   1.0000   1.0000
     1.0000   1.0000   1.0000   1.0000   1.0000   1.0000   1.0000   1.0000
     1.0000   1.0000   1.0000   1.0000   1.0000   1.0000   1.0000   1.0000
     1.0000   1.0000   1.0000   1.0000   1.0000   1.0000   1.0000   1.0000
     1.0000   1.0000   1.0000   1.0000   1.0000   1.0000   1.0000   1.0000
     1.0000   1.0000   1.0000   1.0000   1.0000   1.0000   1.0000   1.0000
     1.0000   1.0000   1.0000   1.0000   1.0000   1.0000   1.0000   1.0000
     1.0000   1.0000   1.0000   1.0000   1.0000   1.0000   1.0000   1.0000
     1.0000   1.0000   1.0000   1.0000   1.0000   1.0000   1.0000   1.0000
     1.0000   1.0000   1.0000   1.0000   1.0000   1.0000   1.0000   1.0000
     1.0000   1.0000   1.0000   1.0000   1.0000   1.0000   1.0000   1.0000
     1.0000   1.0000   1.0000   1.0000   1.0000   1.0000   1.0000   1.0000
     1.0000   1.0000   1.0000   1.0000   1.0000   1.0000   1.0000   1.0000
     1.0000   1.0000   1.0000   1.0000   1.0000   1.0000   1.0000   1.0000
     1.0000   1.0000   1.0000   1.0000   1.0000   1.0000   1.0000   1.0000
     1.0000   1.0000   1.0000   1.0000   1.0000   1.0000   1.0000   1.0000
     1.0000   1.0000   1.0000   1.0000   1.0000   1.0000   1.0000   1.0000
     1.0000   1.0000   1.0000   1.0000   1.0000   1.0000   1.0000   1.0000
     1.0000   1.0000   1.0000   1.0000   1.0000   1.0000   1.0000   1.0000
     1.0000   1.0000   1.0000   1.0000   1.0000   1.0000   1.0000   1.0000
     1.0000   1.0000   1.0000   1.0000   1.0000   1.0000   1.0000   1.0000
     1.0000   1.0000   1.0000   1.0000   1.0000   1.0000   1.0000   1.0000
     1.0000   1.0000   1.0000   1.0000   1.0000   1.0000   1.0000   1.0000
     1.0000   1.0000   1.0000   1.0000   1.0000   1.0000   1.0000   1.0000
     1.0000   1.0000   1.0000   1.0000   1.0000   1.0000   0.0000   0.0000
     0.0000   0.0000   0.0000   0.0000   0.0000   0.0000   0.0000   0.0000
     0.0000   0.0000   0.0000   0.0000   0.0000   0.0000   0.0000   0.0000
     0.0000   0.0000   0.0000   0.0000   0.0000   0.0000   0.0000   0.0000
     0.0000   0.0000   0.0000   0.0000   0.0000   0.0000   0.0000   0.0000
     0.0000   0.0000   0.0000   0.0000   0.0000   0.0000   0.0000   0.0000
     0.0000   0.0000   0.0000   0.0000   0.0000   0.0000   0.0000   0.0000
     0.0000   0.0000

          k = 0.0000 0.0000 0.3467 ( 53576 PWs)   bands (ev):

   -81.5285 -77.4053 -67.8923 -67.8922 -67.8659 -67.8656 -67.6769 -67.6765
   -67.5401 -67.5401 -67.3667 -67.3667 -48.5276 -47.2123 -47.0142 -43.8210
   -43.4760 -43.3920 -34.6611 -34.6597 -34.6438 -34.6401 -34.6361 -34.6332
   -34.6249 -34.6228 -34.6223 -34.6204 -34.6008 -34.6005 -34.4422 -34.4416
   -34.4321 -34.4318 -34.4119 -34.4116 -34.2998 -34.2996 -34.2914 -34.2913
   -34.2838 -34.2837 -34.1298 -34.1296 -34.1170 -34.1168 -34.1092 -34.1090
   -23.4842 -23.4838 -23.4590 -23.4585 -15.2273 -15.2033 -14.8576 -14.8390
   -14.6048 -14.5885 -14.3098 -14.2906 -14.0514 -14.0322 -13.7919 -13.7759
   -13.6058 -13.5223 -13.4366 -13.3489 -13.3151 -13.2763 -13.2179 -13.2118
   -13.1641 -13.1565 -13.1007 -13.0962 -13.0766 -13.0589 -13.0482 -13.0316
   -12.9509 -12.9272 -12.8645 -12.8319 -12.7951 -12.7823 -12.7030 -12.6700
   -12.6528 -12.6092 -12.5380 -12.5153 -12.4306 -12.3674 -12.3476 -12.2999
   -11.7578 -11.6808 -11.5193 -11.4440  -7.0386  -7.0313  -7.0061  -6.9993
    -6.9546  -6.9520  -6.9516  -6.9421  -6.9400  -6.9378  -6.9308  -6.9285
    -4.4968  -4.4626  -3.5188  -3.4897  -3.0173  -2.9859  -2.6018  -2.5610
    -1.9869  -1.9267  -1.8744  -1.5305  -1.4751  -1.4389  -1.3834  -1.3513
    -1.2685  -1.2273  -1.1241  -1.0942  -0.9495  -0.9086  -0.8466  -0.8180
    -0.7879  -0.5919  -0.5300  -0.5060  -0.4532  -0.4473  -0.3772  -0.3370
    -0.2402  -0.2221  -0.1412  -0.0900  -0.0407   0.1654   0.1779   0.2187
     0.2523   0.2832   0.3220   0.3381   0.4606   0.5139   0.5238   0.6165
     0.7088   0.7384   0.8114   0.8490   0.9147   0.9278   0.9593   0.9909
     1.1509   1.1671   1.2031   1.2673   1.2863   1.3415   1.3661   1.3855
     1.4313   1.4503   1.5655   1.6113   1.6407   1.6469   1.7816   1.8475
     1.8819   1.8977   1.9189   1.9467   1.9793   2.0064   2.0731   2.1261
     2.1482   2.1880   2.2178   2.2724   2.2977   2.3527   2.3762   2.3913
     2.3974   2.4371   2.5054   2.5323   2.5481   2.5508   2.5710   2.5993
     2.6258   2.6875   2.7419   2.7660   2.8007   2.8142   2.8384   2.8605
     2.8643   2.8892   2.9262   2.9572   2.9866   3.0552   3.0612   3.0858
     3.1047   3.1359   3.1451   3.1588   3.1799   3.1803   3.2192   3.2330
     3.2747   3.2925   3.3124   3.3436   3.3563   3.3630   3.3680   3.4144
     3.4308   3.4465   3.4845   3.5318   3.5685   3.5927   3.6138   3.6608
     3.6699   3.6846   3.7240   3.8526   3.9225   3.9536   4.0697   4.1166
     4.9968   5.1186   6.0295   6.4829   6.7290   7.8621   8.6242   8.6509
     9.0242   9.6271   9.7825  10.1219  10.6682  10.8906  10.9814  11.1292
    11.2086  11.3734  11.3947  11.6978  11.7068  11.7351  11.7506  12.1492
    12.1871  12.2040  12.3000  12.3182  12.4598  12.6213  12.6821  12.7179
    12.7954  12.8386  12.8967  12.9109  12.9540  12.9891  13.0454  13.1094
    13.1245  13.1944  13.3079  13.3159  13.3363  13.4476  13.4750  13.4887
    13.5353  13.5637  13.5879  13.6228  13.7391  13.7540  13.7740  13.8098
    13.9171  13.9638

     occupation numbers 
     1.0000   1.0000   1.0000   1.0000   1.0000   1.0000   1.0000   1.0000
     1.0000   1.0000   1.0000   1.0000   1.0000   1.0000   1.0000   1.0000
     1.0000   1.0000   1.0000   1.0000   1.0000   1.0000   1.0000   1.0000
     1.0000   1.0000   1.0000   1.0000   1.0000   1.0000   1.0000   1.0000
     1.0000   1.0000   1.0000   1.0000   1.0000   1.0000   1.0000   1.0000
     1.0000   1.0000   1.0000   1.0000   1.0000   1.0000   1.0000   1.0000
     1.0000   1.0000   1.0000   1.0000   1.0000   1.0000   1.0000   1.0000
     1.0000   1.0000   1.0000   1.0000   1.0000   1.0000   1.0000   1.0000
     1.0000   1.0000   1.0000   1.0000   1.0000   1.0000   1.0000   1.0000
     1.0000   1.0000   1.0000   1.0000   1.0000   1.0000   1.0000   1.0000
     1.0000   1.0000   1.0000   1.0000   1.0000   1.0000   1.0000   1.0000
     1.0000   1.0000   1.0000   1.0000   1.0000   1.0000   1.0000   1.0000
     1.0000   1.0000   1.0000   1.0000   1.0000   1.0000   1.0000   1.0000
     1.0000   1.0000   1.0000   1.0000   1.0000   1.0000   1.0000   1.0000
     1.0000   1.0000   1.0000   1.0000   1.0000   1.0000   1.0000   1.0000
     1.0000   1.0000   1.0000   1.0000   1.0000   1.0000   1.0000   1.0000
     1.0000   1.0000   1.0000   1.0000   1.0000   1.0000   1.0000   1.0000
     1.0000   1.0000   1.0000   1.0000   1.0000   1.0000   1.0000   1.0000
     1.0000   1.0000   1.0000   1.0000   1.0000   1.0000   1.0000   1.0000
     1.0000   1.0000   1.0000   1.0000   1.0000   1.0000   1.0000   1.0000
     1.0000   1.0000   1.0000   1.0000   1.0000   1.0000   1.0000   1.0000
     1.0000   1.0000   1.0000   1.0000   1.0000   1.0000   1.0000   1.0000
     1.0000   1.0000   1.0000   1.0000   1.0000   1.0000   1.0000   1.0000
     1.0000   1.0000   1.0000   1.0000   1.0000   1.0000   1.0000   1.0000
     1.0000   1.0000   1.0000   1.0000   1.0000   1.0000   1.0000   1.0000
     1.0000   1.0000   1.0000   1.0000   1.0000   1.0000   1.0000   1.0000
     1.0000   1.0000   1.0000   1.0000   1.0000   1.0000   1.0000   1.0000
     1.0000   1.0000   1.0000   1.0000   1.0000   1.0000   1.0000   1.0000
     1.0000   1.0000   1.0000   1.0000   1.0000   1.0000   1.0000   1.0000
     1.0000   1.0000   1.0000   1.0000   1.0000   1.0000   1.0000   1.0000
     1.0000   1.0000   1.0000   1.0000   1.0000   1.0000   1.0000   1.0000
     1.0000   1.0000   1.0000   1.0000   1.0000   1.0000   1.0000   1.0000
     1.0000   1.0000   1.0000   1.0000   1.0000   1.0000   0.0000   0.0000
     0.0000   0.0000   0.0000   0.0000   0.0000   0.0000   0.0000   0.0000
     0.0000   0.0000   0.0000   0.0000   0.0000   0.0000   0.0000   0.0000
     0.0000   0.0000   0.0000   0.0000   0.0000   0.0000   0.0000   0.0000
     0.0000   0.0000   0.0000   0.0000   0.0000   0.0000   0.0000   0.0000
     0.0000   0.0000   0.0000   0.0000   0.0000   0.0000   0.0000   0.0000
     0.0000   0.0000   0.0000   0.0000   0.0000   0.0000   0.0000   0.0000
     0.0000   0.0000

          k = 0.0000 0.3834 0.0000 ( 53603 PWs)   bands (ev):

   -81.5285 -77.4053 -67.8923 -67.8922 -67.8659 -67.8656 -67.6769 -67.6765
   -67.5401 -67.5401 -67.3667 -67.3667 -48.5276 -47.2123 -47.0142 -43.8210
   -43.4760 -43.3920 -34.6611 -34.6597 -34.6438 -34.6402 -34.6361 -34.6332
   -34.6249 -34.6229 -34.6223 -34.6204 -34.6008 -34.6005 -34.4422 -34.4416
   -34.4321 -34.4318 -34.4119 -34.4116 -34.2998 -34.2996 -34.2914 -34.2913
   -34.2838 -34.2837 -34.1298 -34.1296 -34.1170 -34.1168 -34.1092 -34.1090
   -23.4842 -23.4838 -23.4590 -23.4585 -15.2319 -15.1879 -14.8636 -14.8304
   -14.6111 -14.5813 -14.3546 -14.3120 -14.0585 -14.0339 -13.7917 -13.7763
   -13.5232 -13.4301 -13.4033 -13.3418 -13.3241 -13.2839 -13.2410 -13.2067
   -13.1596 -13.1499 -13.1463 -13.1249 -13.1064 -13.0878 -13.0654 -13.0425
   -12.9429 -12.9358 -12.8560 -12.8263 -12.8057 -12.7724 -12.6958 -12.6863
   -12.6438 -12.6051 -12.5355 -12.5174 -12.4307 -12.3718 -12.3398 -12.2935
   -11.7562 -11.6814 -11.5186 -11.4429  -7.0392  -7.0299  -7.0063  -7.0008
    -6.9536  -6.9516  -6.9507  -6.9421  -6.9410  -6.9379  -6.9316  -6.9285
    -4.4595  -4.4170  -3.5446  -3.4842  -3.0455  -2.9829  -2.7747  -2.6899
    -1.9552  -1.9132  -1.8393  -1.6033  -1.4760  -1.4223  -1.2639  -1.2617
    -1.1865  -1.1500  -1.1287  -1.1236  -0.9039  -0.8985  -0.8706  -0.8516
    -0.8072  -0.5310  -0.5049  -0.4987  -0.4346  -0.4122  -0.3481  -0.3233
    -0.2750  -0.2121  -0.2109  -0.0508   0.0034   0.1328   0.1729   0.2112
     0.2850   0.2894   0.3043   0.3272   0.3751   0.4494   0.5094   0.6377
     0.6635   0.6813   0.7280   0.8294   0.9017   0.9683   0.9820   1.0155
     1.1542   1.1631   1.2324   1.2741   1.2930   1.3380   1.3424   1.4053
     1.4381   1.4685   1.5034   1.5309   1.5763   1.6574   1.7556   1.8671
     1.8724   1.8958   1.9282   1.9318   2.0459   2.1166   2.1323   2.1696
     2.1788   2.2069   2.2250   2.2328   2.3093   2.3174   2.3366   2.3840
     2.4253   2.4831   2.5198   2.5634   2.5781   2.5842   2.6016   2.6147
     2.6824   2.6975   2.7297   2.7601   2.7786   2.7934   2.7985   2.8072
     2.9042   2.9072   2.9405   2.9697   2.9734   3.0169   3.0461   3.0761
     3.1123   3.1414   3.1541   3.1768   3.1954   3.2070   3.2262   3.2507
     3.2573   3.2645   3.3092   3.3148   3.3522   3.3679   3.3786   3.3960
     3.4174   3.4646   3.5230   3.5640   3.5647   3.5776   3.6246   3.6612
     3.6685   3.6767   3.7085   3.8375   3.8698   3.9047   3.9356   4.0531
     4.9995   5.1092   6.0373   6.4574   6.7400   7.8692   8.6242   8.6514
     9.1231   9.6668  10.0506  10.0676  10.5049  10.8305  10.9073  11.0638
    11.3525  11.3797  11.4385  11.4455  11.5311  11.8401  12.0026  12.0166
    12.1387  12.1884  12.2598  12.2971  12.3381  12.5147  12.7038  12.7096
    12.7628  12.8349  12.9020  12.9445  12.9812  13.0483  13.0685  13.1478
    13.1490  13.2054  13.3034  13.3071  13.3627  13.3722  13.4249  13.5233
    13.5382  13.6645  13.7177  13.7736  13.8520  13.8899  13.9226  13.9322
    13.9915  13.9980

     occupation numbers 
     1.0000   1.0000   1.0000   1.0000   1.0000   1.0000   1.0000   1.0000
     1.0000   1.0000   1.0000   1.0000   1.0000   1.0000   1.0000   1.0000
     1.0000   1.0000   1.0000   1.0000   1.0000   1.0000   1.0000   1.0000
     1.0000   1.0000   1.0000   1.0000   1.0000   1.0000   1.0000   1.0000
     1.0000   1.0000   1.0000   1.0000   1.0000   1.0000   1.0000   1.0000
     1.0000   1.0000   1.0000   1.0000   1.0000   1.0000   1.0000   1.0000
     1.0000   1.0000   1.0000   1.0000   1.0000   1.0000   1.0000   1.0000
     1.0000   1.0000   1.0000   1.0000   1.0000   1.0000   1.0000   1.0000
     1.0000   1.0000   1.0000   1.0000   1.0000   1.0000   1.0000   1.0000
     1.0000   1.0000   1.0000   1.0000   1.0000   1.0000   1.0000   1.0000
     1.0000   1.0000   1.0000   1.0000   1.0000   1.0000   1.0000   1.0000
     1.0000   1.0000   1.0000   1.0000   1.0000   1.0000   1.0000   1.0000
     1.0000   1.0000   1.0000   1.0000   1.0000   1.0000   1.0000   1.0000
     1.0000   1.0000   1.0000   1.0000   1.0000   1.0000   1.0000   1.0000
     1.0000   1.0000   1.0000   1.0000   1.0000   1.0000   1.0000   1.0000
     1.0000   1.0000   1.0000   1.0000   1.0000   1.0000   1.0000   1.0000
     1.0000   1.0000   1.0000   1.0000   1.0000   1.0000   1.0000   1.0000
     1.0000   1.0000   1.0000   1.0000   1.0000   1.0000   1.0000   1.0000
     1.0000   1.0000   1.0000   1.0000   1.0000   1.0000   1.0000   1.0000
     1.0000   1.0000   1.0000   1.0000   1.0000   1.0000   1.0000   1.0000
     1.0000   1.0000   1.0000   1.0000   1.0000   1.0000   1.0000   1.0000
     1.0000   1.0000   1.0000   1.0000   1.0000   1.0000   1.0000   1.0000
     1.0000   1.0000   1.0000   1.0000   1.0000   1.0000   1.0000   1.0000
     1.0000   1.0000   1.0000   1.0000   1.0000   1.0000   1.0000   1.0000
     1.0000   1.0000   1.0000   1.0000   1.0000   1.0000   1.0000   1.0000
     1.0000   1.0000   1.0000   1.0000   1.0000   1.0000   1.0000   1.0000
     1.0000   1.0000   1.0000   1.0000   1.0000   1.0000   1.0000   1.0000
     1.0000   1.0000   1.0000   1.0000   1.0000   1.0000   1.0000   1.0000
     1.0000   1.0000   1.0000   1.0000   1.0000   1.0000   1.0000   1.0000
     1.0000   1.0000   1.0000   1.0000   1.0000   1.0000   1.0000   1.0000
     1.0000   1.0000   1.0000   1.0000   1.0000   1.0000   1.0000   1.0000
     1.0000   1.0000   1.0000   1.0000   1.0000   1.0000   1.0000   1.0000
     1.0000   1.0000   1.0000   1.0000   1.0000   1.0000   0.0000   0.0000
     0.0000   0.0000   0.0000   0.0000   0.0000   0.0000   0.0000   0.0000
     0.0000   0.0000   0.0000   0.0000   0.0000   0.0000   0.0000   0.0000
     0.0000   0.0000   0.0000   0.0000   0.0000   0.0000   0.0000   0.0000
     0.0000   0.0000   0.0000   0.0000   0.0000   0.0000   0.0000   0.0000
     0.0000   0.0000   0.0000   0.0000   0.0000   0.0000   0.0000   0.0000
     0.0000   0.0000   0.0000   0.0000   0.0000   0.0000   0.0000   0.0000
     0.0000   0.0000

          k = 0.0000 0.3834 0.3467 ( 53607 PWs)   bands (ev):

   -81.5285 -77.4053 -67.8923 -67.8922 -67.8659 -67.8656 -67.6769 -67.6765
   -67.5401 -67.5401 -67.3667 -67.3667 -48.5276 -47.2124 -47.0142 -43.8210
   -43.4760 -43.3920 -34.6611 -34.6597 -34.6438 -34.6402 -34.6361 -34.6332
   -34.6249 -34.6229 -34.6223 -34.6204 -34.6008 -34.6005 -34.4422 -34.4416
   -34.4321 -34.4318 -34.4119 -34.4116 -34.2998 -34.2996 -34.2914 -34.2913
   -34.2838 -34.2837 -34.1298 -34.1296 -34.1169 -34.1168 -34.1093 -34.1090
   -23.4842 -23.4838 -23.4590 -23.4585 -15.2219 -15.1985 -14.8568 -14.8376
   -14.6045 -14.5880 -14.3447 -14.3226 -14.0546 -14.0380 -13.7920 -13.7759
   -13.5176 -13.4267 -13.4154 -13.3424 -13.3178 -13.2808 -13.2366 -13.2090
   -13.1671 -13.1577 -13.1518 -13.1175 -13.0966 -13.0889 -13.0660 -13.0424
   -12.9414 -12.9346 -12.8552 -12.8290 -12.8013 -12.7825 -12.6911 -12.6745
   -12.6485 -12.6136 -12.5378 -12.5150 -12.4257 -12.3662 -12.3448 -12.2985
   -11.7561 -11.6807 -11.5193 -11.4434  -7.0393  -7.0300  -7.0064  -7.0008
    -6.9536  -6.9516  -6.9507  -6.9421  -6.9410  -6.9378  -6.9315  -6.9285
    -4.4537  -4.4231  -3.5300  -3.4993  -3.0310  -2.9992  -2.7548  -2.7117
    -1.9341  -1.9034  -1.8493  -1.5951  -1.4719  -1.4244  -1.2642  -1.2598
    -1.1827  -1.1566  -1.1219  -1.1133  -0.9051  -0.8977  -0.8695  -0.8473
    -0.8130  -0.5633  -0.4918  -0.4721  -0.4344  -0.4188  -0.3869  -0.3507
    -0.2598  -0.2358  -0.2311  -0.0585  -0.0431   0.1399   0.1763   0.1915
     0.2739   0.2837   0.2877   0.3236   0.3784   0.4566   0.5421   0.6287
     0.6602   0.6985   0.7693   0.8274   0.8634   0.9819   1.0386   1.0609
     1.1320   1.1991   1.2284   1.2777   1.2971   1.3354   1.3831   1.3951
     1.4218   1.4593   1.5534   1.5968   1.6204   1.6375   1.7916   1.8387
     1.8615   1.8893   1.9343   1.9519   2.0365   2.1062   2.1361   2.1475
     2.1566   2.1941   2.2098   2.2378   2.2660   2.3176   2.3307   2.3815
     2.4059   2.4394   2.5263   2.5412   2.5462   2.5653   2.5811   2.6163
     2.6847   2.7143   2.7283   2.7437   2.7822   2.8032   2.8149   2.8370
     2.8944   2.9066   2.9401   2.9694   2.9853   3.0228   3.0449   3.0783
     3.0843   3.1438   3.1655   3.1835   3.2026   3.2194   3.2281   3.2583
     3.2655   3.2810   3.3249   3.3341   3.3458   3.3641   3.3693   3.3839
     3.4150   3.4460   3.4726   3.5327   3.5696   3.5856   3.6024   3.6555
     3.6643   3.6784   3.7315   3.8518   3.8761   3.9349   3.9493   4.0538
     4.9975   5.1087   6.0369   6.4549   6.7418   7.8689   8.6218   8.6521
     9.3773   9.6743   9.9723  10.1305  10.2785  10.7505  10.8236  10.9945
    11.2562  11.4333  11.4461  11.4523  11.4819  11.8422  11.9137  11.9497
    12.1836  12.2391  12.3572  12.3753  12.5471  12.6651  12.7152  12.7315
    12.7748  12.8468  12.9241  12.9679  13.0319  13.0823  13.0934  13.1758
    13.2118  13.2356  13.2703  13.3161  13.3906  13.4382  13.4577  13.4786
    13.5445  13.5920  13.6560  13.7105  13.7320  13.7548  13.8242  13.9046
    13.9138  13.9665

     occupation numbers 
     1.0000   1.0000   1.0000   1.0000   1.0000   1.0000   1.0000   1.0000
     1.0000   1.0000   1.0000   1.0000   1.0000   1.0000   1.0000   1.0000
     1.0000   1.0000   1.0000   1.0000   1.0000   1.0000   1.0000   1.0000
     1.0000   1.0000   1.0000   1.0000   1.0000   1.0000   1.0000   1.0000
     1.0000   1.0000   1.0000   1.0000   1.0000   1.0000   1.0000   1.0000
     1.0000   1.0000   1.0000   1.0000   1.0000   1.0000   1.0000   1.0000
     1.0000   1.0000   1.0000   1.0000   1.0000   1.0000   1.0000   1.0000
     1.0000   1.0000   1.0000   1.0000   1.0000   1.0000   1.0000   1.0000
     1.0000   1.0000   1.0000   1.0000   1.0000   1.0000   1.0000   1.0000
     1.0000   1.0000   1.0000   1.0000   1.0000   1.0000   1.0000   1.0000
     1.0000   1.0000   1.0000   1.0000   1.0000   1.0000   1.0000   1.0000
     1.0000   1.0000   1.0000   1.0000   1.0000   1.0000   1.0000   1.0000
     1.0000   1.0000   1.0000   1.0000   1.0000   1.0000   1.0000   1.0000
     1.0000   1.0000   1.0000   1.0000   1.0000   1.0000   1.0000   1.0000
     1.0000   1.0000   1.0000   1.0000   1.0000   1.0000   1.0000   1.0000
     1.0000   1.0000   1.0000   1.0000   1.0000   1.0000   1.0000   1.0000
     1.0000   1.0000   1.0000   1.0000   1.0000   1.0000   1.0000   1.0000
     1.0000   1.0000   1.0000   1.0000   1.0000   1.0000   1.0000   1.0000
     1.0000   1.0000   1.0000   1.0000   1.0000   1.0000   1.0000   1.0000
     1.0000   1.0000   1.0000   1.0000   1.0000   1.0000   1.0000   1.0000
     1.0000   1.0000   1.0000   1.0000   1.0000   1.0000   1.0000   1.0000
     1.0000   1.0000   1.0000   1.0000   1.0000   1.0000   1.0000   1.0000
     1.0000   1.0000   1.0000   1.0000   1.0000   1.0000   1.0000   1.0000
     1.0000   1.0000   1.0000   1.0000   1.0000   1.0000   1.0000   1.0000
     1.0000   1.0000   1.0000   1.0000   1.0000   1.0000   1.0000   1.0000
     1.0000   1.0000   1.0000   1.0000   1.0000   1.0000   1.0000   1.0000
     1.0000   1.0000   1.0000   1.0000   1.0000   1.0000   1.0000   1.0000
     1.0000   1.0000   1.0000   1.0000   1.0000   1.0000   1.0000   1.0000
     1.0000   1.0000   1.0000   1.0000   1.0000   1.0000   1.0000   1.0000
     1.0000   1.0000   1.0000   1.0000   1.0000   1.0000   1.0000   1.0000
     1.0000   1.0000   1.0000   1.0000   1.0000   1.0000   1.0000   1.0000
     1.0000   1.0000   1.0000   1.0000   1.0000   1.0000   1.0000   1.0000
     1.0000   1.0000   1.0000   1.0000   1.0000   1.0000   0.0000   0.0000
     0.0000   0.0000   0.0000   0.0000   0.0000   0.0000   0.0000   0.0000
     0.0000   0.0000   0.0000   0.0000   0.0000   0.0000   0.0000   0.0000
     0.0000   0.0000   0.0000   0.0000   0.0000   0.0000   0.0000   0.0000
     0.0000   0.0000   0.0000   0.0000   0.0000   0.0000   0.0000   0.0000
     0.0000   0.0000   0.0000   0.0000   0.0000   0.0000   0.0000   0.0000
     0.0000   0.0000   0.0000   0.0000   0.0000   0.0000   0.0000   0.0000
     0.0000   0.0000

          k = 0.3333 0.0000 0.0605 ( 53607 PWs)   bands (ev):

   -81.5285 -77.4053 -67.8922 -67.8922 -67.8659 -67.8656 -67.6769 -67.6765
   -67.5401 -67.5401 -67.3667 -67.3667 -48.5276 -47.2124 -47.0142 -43.8210
   -43.4760 -43.3920 -34.6608 -34.6601 -34.6431 -34.6413 -34.6352 -34.6338
   -34.6247 -34.6238 -34.6214 -34.6206 -34.6008 -34.6005 -34.4422 -34.4416
   -34.4321 -34.4318 -34.4119 -34.4116 -34.2997 -34.2997 -34.2914 -34.2914
   -34.2838 -34.2837 -34.1297 -34.1297 -34.1169 -34.1168 -34.1092 -34.1091
   -23.4841 -23.4839 -23.4588 -23.4586 -15.1792 -15.1360 -15.0193 -14.9799
   -14.4530 -14.4245 -14.3353 -14.3007 -14.0328 -14.0065 -13.9118 -13.8883
   -13.5420 -13.4384 -13.4329 -13.3951 -13.3325 -13.2872 -13.2798 -13.2415
   -13.1613 -13.1180 -13.1027 -13.0817 -13.0560 -13.0472 -13.0413 -13.0272
   -12.9321 -12.9242 -12.8520 -12.8358 -12.7768 -12.7346 -12.7244 -12.6666
   -12.6634 -12.5937 -12.5923 -12.5556 -12.4227 -12.3772 -12.3345 -12.2913
   -11.7466 -11.6974 -11.5000 -11.4551  -7.0365  -7.0329  -7.0044  -7.0010
    -6.9540  -6.9527  -6.9492  -6.9445  -6.9396  -6.9385  -6.9303  -6.9291
    -4.3414  -4.2954  -3.9245  -3.8648  -2.7221  -2.6205  -2.5835  -2.4999
    -2.0214  -2.0142  -1.8831  -1.6574  -1.6057  -1.5888  -1.5067  -1.4415
    -1.0861  -1.0618  -1.0280  -1.0191  -0.9595  -0.9091  -0.9053  -0.8688
    -0.7256  -0.5944  -0.5432  -0.5212  -0.4819  -0.4242  -0.3586  -0.3197
    -0.2433  -0.1511  -0.0985  -0.0859  -0.0111   0.0321   0.1673   0.2044
     0.2710   0.2927   0.3738   0.3813   0.4528   0.4563   0.5326   0.5727
     0.6698   0.7942   0.8211   0.8961   0.9194   0.9309   0.9636   1.0024
     1.1257   1.1642   1.2296   1.2390   1.2968   1.3283   1.3443   1.3809
     1.4009   1.4495   1.4686   1.5979   1.6595   1.7266   1.7320   1.7620
     1.8155   1.8491   1.9377   2.0163   2.0585   2.0855   2.1115   2.1506
     2.1555   2.2037   2.2326   2.2746   2.3323   2.3390   2.3876   2.3903
     2.4400   2.4456   2.4682   2.4915   2.5202   2.5379   2.6132   2.6404
     2.6745   2.6888   2.7097   2.7278   2.7492   2.8221   2.8305   2.8504
     2.8942   2.9063   2.9356   2.9489   2.9707   3.0064   3.0222   3.0440
     3.0611   3.0998   3.1428   3.1504   3.1789   3.1911   3.2211   3.2435
     3.2796   3.2937   3.3458   3.3601   3.3853   3.4096   3.4411   3.4543
     3.4906   3.5003   3.5105   3.5392   3.5748   3.5908   3.6169   3.6239
     3.6319   3.6628   3.7297   3.8021   3.8625   3.8940   4.0084   4.0968
     5.0043   5.1207   6.0301   6.4833   6.7225   7.8624   8.6251   8.6518
     9.0311   9.5848   9.9462  10.1197  10.4170  10.8341  10.9539  11.1116
    11.3212  11.5708  11.5965  11.6508  11.7086  11.7963  11.9025  11.9961
    12.1918  12.3040  12.3455  12.3703  12.3990  12.5729  12.6222  12.6642
    12.7570  12.7875  12.8475  12.8636  12.9185  12.9593  13.1627  13.1676
    13.1812  13.1932  13.2442  13.3049  13.3208  13.3457  13.3524  13.3741
    13.4997  13.5835  13.6857  13.7270  13.7472  13.7879  13.8434  13.9049
    14.0099  14.0353

     occupation numbers 
     1.0000   1.0000   1.0000   1.0000   1.0000   1.0000   1.0000   1.0000
     1.0000   1.0000   1.0000   1.0000   1.0000   1.0000   1.0000   1.0000
     1.0000   1.0000   1.0000   1.0000   1.0000   1.0000   1.0000   1.0000
     1.0000   1.0000   1.0000   1.0000   1.0000   1.0000   1.0000   1.0000
     1.0000   1.0000   1.0000   1.0000   1.0000   1.0000   1.0000   1.0000
     1.0000   1.0000   1.0000   1.0000   1.0000   1.0000   1.0000   1.0000
     1.0000   1.0000   1.0000   1.0000   1.0000   1.0000   1.0000   1.0000
     1.0000   1.0000   1.0000   1.0000   1.0000   1.0000   1.0000   1.0000
     1.0000   1.0000   1.0000   1.0000   1.0000   1.0000   1.0000   1.0000
     1.0000   1.0000   1.0000   1.0000   1.0000   1.0000   1.0000   1.0000
     1.0000   1.0000   1.0000   1.0000   1.0000   1.0000   1.0000   1.0000
     1.0000   1.0000   1.0000   1.0000   1.0000   1.0000   1.0000   1.0000
     1.0000   1.0000   1.0000   1.0000   1.0000   1.0000   1.0000   1.0000
     1.0000   1.0000   1.0000   1.0000   1.0000   1.0000   1.0000   1.0000
     1.0000   1.0000   1.0000   1.0000   1.0000   1.0000   1.0000   1.0000
     1.0000   1.0000   1.0000   1.0000   1.0000   1.0000   1.0000   1.0000
     1.0000   1.0000   1.0000   1.0000   1.0000   1.0000   1.0000   1.0000
     1.0000   1.0000   1.0000   1.0000   1.0000   1.0000   1.0000   1.0000
     1.0000   1.0000   1.0000   1.0000   1.0000   1.0000   1.0000   1.0000
     1.0000   1.0000   1.0000   1.0000   1.0000   1.0000   1.0000   1.0000
     1.0000   1.0000   1.0000   1.0000   1.0000   1.0000   1.0000   1.0000
     1.0000   1.0000   1.0000   1.0000   1.0000   1.0000   1.0000   1.0000
     1.0000   1.0000   1.0000   1.0000   1.0000   1.0000   1.0000   1.0000
     1.0000   1.0000   1.0000   1.0000   1.0000   1.0000   1.0000   1.0000
     1.0000   1.0000   1.0000   1.0000   1.0000   1.0000   1.0000   1.0000
     1.0000   1.0000   1.0000   1.0000   1.0000   1.0000   1.0000   1.0000
     1.0000   1.0000   1.0000   1.0000   1.0000   1.0000   1.0000   1.0000
     1.0000   1.0000   1.0000   1.0000   1.0000   1.0000   1.0000   1.0000
     1.0000   1.0000   1.0000   1.0000   1.0000   1.0000   1.0000   1.0000
     1.0000   1.0000   1.0000   1.0000   1.0000   1.0000   1.0000   1.0000
     1.0000   1.0000   1.0000   1.0000   1.0000   1.0000   1.0000   1.0000
     1.0000   1.0000   1.0000   1.0000   1.0000   1.0000   1.0000   1.0000
     1.0000   1.0000   1.0000   1.0000   1.0000   1.0000   0.0000   0.0000
     0.0000   0.0000   0.0000   0.0000   0.0000   0.0000   0.0000   0.0000
     0.0000   0.0000   0.0000   0.0000   0.0000   0.0000   0.0000   0.0000
     0.0000   0.0000   0.0000   0.0000   0.0000   0.0000   0.0000   0.0000
     0.0000   0.0000   0.0000   0.0000   0.0000   0.0000   0.0000   0.0000
     0.0000   0.0000   0.0000   0.0000   0.0000   0.0000   0.0000   0.0000
     0.0000   0.0000   0.0000   0.0000   0.0000   0.0000   0.0000   0.0000
     0.0000   0.0000

          k = 0.3333 0.0000 0.4072 ( 53609 PWs)   bands (ev):

   -81.5285 -77.4053 -67.8922 -67.8922 -67.8659 -67.8656 -67.6769 -67.6765
   -67.5401 -67.5401 -67.3667 -67.3667 -48.5276 -47.2123 -47.0142 -43.8210
   -43.4760 -43.3920 -34.6608 -34.6601 -34.6430 -34.6413 -34.6352 -34.6338
   -34.6247 -34.6239 -34.6214 -34.6206 -34.6008 -34.6006 -34.4422 -34.4416
   -34.4321 -34.4318 -34.4119 -34.4116 -34.2997 -34.2997 -34.2914 -34.2913
   -34.2838 -34.2837 -34.1297 -34.1297 -34.1169 -34.1168 -34.1092 -34.1091
   -23.4841 -23.4839 -23.4588 -23.4586 -15.1667 -15.1491 -15.0151 -14.9843
   -14.4455 -14.4322 -14.3263 -14.3101 -14.0291 -14.0102 -13.9077 -13.8925
   -13.5341 -13.4483 -13.4362 -13.3900 -13.3268 -13.2919 -13.2816 -13.2391
   -13.1593 -13.1153 -13.1005 -13.0823 -13.0693 -13.0553 -13.0350 -13.0190
   -12.9307 -12.9207 -12.8532 -12.8388 -12.7708 -12.7447 -12.7201 -12.6724
   -12.6498 -12.6025 -12.5878 -12.5602 -12.4165 -12.3722 -12.3397 -12.2964
   -11.7461 -11.6968 -11.5007 -11.4557  -7.0366  -7.0329  -7.0045  -7.0010
    -6.9540  -6.9527  -6.9492  -6.9445  -6.9396  -6.9385  -6.9302  -6.9290
    -4.3430  -4.2940  -3.8987  -3.8914  -2.7136  -2.6304  -2.5664  -2.5204
    -2.0082  -1.9905  -1.8956  -1.6872  -1.5963  -1.5683  -1.4972  -1.4385
    -1.0820  -1.0577  -1.0336  -1.0184  -0.9370  -0.9119  -0.9070  -0.8829
    -0.7065  -0.5971  -0.5453  -0.5098  -0.4661  -0.4549  -0.4415  -0.3644
    -0.2400  -0.1238  -0.1115  -0.0623  -0.0555   0.0607   0.1229   0.1553
     0.2860   0.2932   0.3611   0.3797   0.4331   0.4871   0.5426   0.6208
     0.6529   0.8306   0.8461   0.8967   0.9181   0.9362   0.9953   1.0153
     1.1193   1.1297   1.2293   1.2535   1.2831   1.3235   1.3736   1.4187
     1.4267   1.4406   1.4792   1.6080   1.6907   1.7376   1.7556   1.7810
     1.8162   1.8940   1.9747   2.0223   2.0551   2.0596   2.0890   2.1216
     2.1311   2.1866   2.2087   2.2383   2.3170   2.3254   2.3479   2.3706
[...]
     atom   71 type  7   force =     0.00000438   -0.00001239   -0.00001323
     atom   72 type  7   force =    -0.00000044   -0.00001196   -0.00000519
     atom   73 type  7   force =     0.00000044   -0.00001196    0.00000519
     atom   74 type  7   force =    -0.00000438   -0.00001239    0.00001323
     atom   75 type  7   force =     0.00000316    0.00000136    0.00000644
     atom   76 type  7   force =     0.00000235    0.00000100    0.00000560
     atom   77 type  7   force =    -0.00000235    0.00000100   -0.00000560
     atom   78 type  7   force =    -0.00000316    0.00000136   -0.00000644
     atom   79 type  4   force =     0.00000017   -0.00000083   -0.00000120
     atom   80 type  4   force =    -0.00000014   -0.00000101   -0.00000153
     atom   81 type  4   force =     0.00000014   -0.00000101    0.00000153
     atom   82 type  4   force =    -0.00000017   -0.00000083    0.00000120
     atom   83 type  4   force =     0.00000000    0.00000025   -0.00000104
     atom   84 type  4   force =    -0.00000009    0.00000025   -0.00000112
     atom   85 type  4   force =     0.00000009    0.00000025    0.00000112
     atom   86 type  4   force =    -0.00000000    0.00000025    0.00000104
     atom   87 type  2   force =     0.00000000   -0.00001190    0.00000000
     atom   88 type  3   force =     0.00000000    0.00000095    0.00000000

     DFT-D3 dispersion contribution to forces:
     atom    1 type  5   force =     0.00000001    0.00109238   -0.00000000
     atom    2 type  5   force =     0.00000001    0.00109253   -0.00000000
     atom    3 type  5   force =    -0.00000008   -0.00060182   -0.00000007
     atom    4 type  5   force =     0.00000008   -0.00060182    0.00000007
     atom    5 type  6   force =    -0.00000001    0.00044541    0.00000000
     atom    6 type  6   force =    -0.00000000    0.00044462    0.00000000
     atom    7 type  6   force =    -0.00000001   -0.00131258   -0.00000000
     atom    8 type  6   force =    -0.00000001   -0.00131207   -0.00000000
     atom    9 type  6   force =    -0.00000031   -0.00048776    0.00000007
     atom   10 type  6   force =     0.00000032   -0.00048776   -0.00000007
     atom   11 type  6   force =    -0.00000024    0.00113529   -0.00000002
     atom   12 type  6   force =     0.00000025    0.00113529    0.00000002
     atom   13 type  6   force =    -0.00000064   -0.00032974   -0.00000002
     atom   14 type  6   force =     0.00000064   -0.00032974    0.00000002
     atom   15 type  8   force =    -0.00002333   -0.00005225   -0.00012444
     atom   16 type  8   force =    -0.00002331   -0.00005224   -0.00012446
     atom   17 type  8   force =     0.00002332   -0.00005224    0.00012446
     atom   18 type  8   force =     0.00002334   -0.00005225    0.00012444
     atom   19 type  8   force =     0.00004333    0.00001834    0.00025966
     atom   20 type  8   force =     0.00004330    0.00001824    0.00025953
     atom   21 type  8   force =    -0.00004330    0.00001824   -0.00025953
     atom   22 type  8   force =    -0.00004332    0.00001834   -0.00025966
     atom   23 type  8   force =     0.00002215    0.00026143   -0.00025751
     atom   24 type  8   force =     0.00002225    0.00026148   -0.00025758
     atom   25 type  8   force =    -0.00002225    0.00026148    0.00025758
     atom   26 type  8   force =    -0.00002214    0.00026143    0.00025751
     atom   27 type  1   force =    -0.00016351    0.00002459   -0.00098873
     atom   28 type  1   force =    -0.00016351    0.00002457   -0.00098871
     atom   29 type  1   force =     0.00016351    0.00002457    0.00098871
     atom   30 type  1   force =     0.00016351    0.00002459    0.00098874
     atom   31 type  7   force =    -0.00005276    0.00012545    0.00050438
     atom   32 type  7   force =    -0.00005279    0.00012548    0.00050430
     atom   33 type  7   force =     0.00005279    0.00012548   -0.00050431
     atom   34 type  7   force =     0.00005276    0.00012545   -0.00050439
     atom   35 type  7   force =     0.00000298    0.00000448   -0.00038845
     atom   36 type  7   force =     0.00000294    0.00000443   -0.00038849
     atom   37 type  7   force =    -0.00000294    0.00000443    0.00038849
     atom   38 type  7   force =    -0.00000298    0.00000448    0.00038845
     atom   39 type  7   force =    -0.00002044   -0.00000065    0.00039252
     atom   40 type  7   force =    -0.00002039   -0.00000062    0.00039257
     atom   41 type  7   force =     0.00002039   -0.00000062   -0.00039257
     atom   42 type  7   force =     0.00002044   -0.00000065   -0.00039252
     atom   43 type  7   force =    -0.00008001   -0.00001382    0.00002003
     atom   44 type  7   force =    -0.00008007   -0.00001377    0.00001989
     atom   45 type  7   force =     0.00008007   -0.00001377   -0.00001989
     atom   46 type  7   force =     0.00008001   -0.00001382   -0.00002003
     atom   47 type  7   force =    -0.00019098    0.00104953    0.00024334
     atom   48 type  7   force =    -0.00019098    0.00104951    0.00024344
     atom   49 type  7   force =     0.00019098    0.00104952   -0.00024344
     atom   50 type  7   force =     0.00019098    0.00104953   -0.00024333
     atom   51 type  7   force =     0.00083714    0.00006907    0.00021620
     atom   52 type  7   force =     0.00083717    0.00006907    0.00021624
     atom   53 type  7   force =    -0.00083717    0.00006907   -0.00021624
     atom   54 type  7   force =    -0.00083714    0.00006907   -0.00021620
     atom   55 type  7   force =     0.00034970   -0.00050132   -0.00002628
     atom   56 type  7   force =     0.00034972   -0.00050131   -0.00002636
     atom   57 type  7   force =    -0.00034972   -0.00050132    0.00002636
     atom   58 type  7   force =    -0.00034970   -0.00050132    0.00002628
     atom   59 type  7   force =    -0.00014447    0.00023183   -0.00000850
     atom   60 type  7   force =    -0.00014451    0.00023190   -0.00000845
     atom   61 type  7   force =     0.00014451    0.00023190    0.00000846
     atom   62 type  7   force =     0.00014447    0.00023182    0.00000851
     atom   63 type  7   force =     0.00091756   -0.00042338    0.00039654
     atom   64 type  7   force =     0.00091755   -0.00042336    0.00039656
     atom   65 type  7   force =    -0.00091756   -0.00042336   -0.00039656
     atom   66 type  7   force =    -0.00091757   -0.00042338   -0.00039654
     atom   67 type  7   force =     0.00069780   -0.00062881   -0.00040177
     atom   68 type  7   force =     0.00069780   -0.00062878   -0.00040185
     atom   69 type  7   force =    -0.00069780   -0.00062878    0.00040185
     atom   70 type  7   force =    -0.00069780   -0.00062881    0.00040177
     atom   71 type  7   force =    -0.00010889   -0.00017111   -0.00036684
     atom   72 type  7   force =    -0.00010912   -0.00017145   -0.00036655
     atom   73 type  7   force =     0.00010912   -0.00017145    0.00036654
     atom   74 type  7   force =     0.00010889   -0.00017111    0.00036684
     atom   75 type  7   force =     0.00002181   -0.00000414   -0.00052559
     atom   76 type  7   force =     0.00002181   -0.00000417   -0.00052553
     atom   77 type  7   force =    -0.00002181   -0.00000417    0.00052553
     atom   78 type  7   force =    -0.00002181   -0.00000414    0.00052559
     atom   79 type  4   force =    -0.00009348    0.00015238   -0.00010651
     atom   80 type  4   force =    -0.00009337    0.00015240   -0.00010647
     atom   81 type  4   force =     0.00009337    0.00015239    0.00010647
     atom   82 type  4   force =     0.00009348    0.00015238    0.00010651
     atom   83 type  4   force =     0.00011413   -0.00044588   -0.00029610
     atom   84 type  4   force =     0.00011407   -0.00044579   -0.00029612
     atom   85 type  4   force =    -0.00011407   -0.00044579    0.00029612
     atom   86 type  4   force =    -0.00011413   -0.00044588    0.00029610
     atom   87 type  2   force =    -0.00000001    0.00066736   -0.00000000
     atom   88 type  3   force =    -0.00000001    0.00066780   -0.00000000

     Total force =     0.001966     Total SCF correction =     0.000121

     DFT-D3 dispersion Force =     0.006327


     Computing stress (Cartesian axis) and pressure


     negative rho (up, down):  3.806E-04 3.805E-04
          total   stress  (Ry/bohr**3)                   (kbar)     P=       -0.30
  -0.00000084   0.00000000   0.00000013           -0.12        0.00        0.02
   0.00000000  -0.00000280   0.00000000            0.00       -0.41        0.00
   0.00000013   0.00000000  -0.00000253            0.02        0.00       -0.37

     kinetic stress (kbar)  20093.19      0.00    -54.33
                                0.00  20182.02      0.00
                              -54.33      0.00  19875.55

     local   stress (kbar) -40603.77      0.00   -324.01
                                0.00 -39795.58     -0.00
                             -324.01     -0.00  19143.78

     nonloc. stress (kbar)   3809.99      0.00      7.08
                                0.00   3799.35      0.00
                                7.08      0.00   3787.65

     hartree stress (kbar)  22855.93     -0.00    119.76
                               -0.00  22529.97     -0.00
                              119.76     -0.00  -6325.70

     exc-cor stress (kbar)  -2824.59      0.00     -0.02
                                0.00  -2824.51      0.00
                               -0.02      0.00  -2821.45

     corecor stress (kbar)  -1860.03     -0.00      0.48
                               -0.00  -1860.74     -0.00
                                0.48     -0.00  -1862.00

     ewald   stress (kbar)  -1456.16     -0.00    251.07
                               -0.00  -2016.16      0.00
                              251.07      0.00 -31787.23

     hubbard stress (kbar)      0.00      0.00      0.00
                                0.00      0.00      0.00
                                0.00      0.00      0.00

     DFT-D   stress (kbar)    -14.68      0.00     -0.01
                                0.00    -14.76      0.00
                               -0.01      0.00    -10.99

     XDM     stress (kbar)      0.00      0.00      0.00
                                0.00      0.00      0.00
                                0.00      0.00      0.00

     dft-nl  stress (kbar)      0.00      0.00      0.00
                                0.00      0.00      0.00
                                0.00      0.00      0.00

     TS-vdW  stress (kbar)      0.00      0.00      0.00
                                0.00      0.00      0.00
                                0.00      0.00      0.00

     MDB     stress (kbar)      0.00      0.00      0.00
                                0.00      0.00      0.00
                                0.00      0.00      0.00

     3D-RISM stress (kbar)      0.00      0.00      0.00
                                0.00      0.00      0.00
                                0.00      0.00      0.00

     Energy error            =      1.3E-05 Ry
     Gradient error          =      3.4E-04 Ry/Bohr
     Cell gradient error     =      4.1E-01 kbar

     number of scf cycles    =  17
     number of bfgs steps    =  16

     enthalpy           old  =   -5262.5289566664 Ry
     enthalpy           new  =   -5262.5289698633 Ry

     CASE: enthalpy          _new < enthalpy          _old

     new trust radius        =       0.0037648287 bohr
ibrav =    -12
 celldm(1) =     20.13185513
 celldm(2) =      0.86974570
 celldm(3) =      0.97757929
 celldm(5) =     -0.18055652
Input lattice vectors:
     0.99983948     0.00000000     0.00000370
     0.00000000     0.86960609     0.00000000
    -0.17648353     0.00000000     0.96135740
New lattice vectors in INITIAL alat:
     0.99983948     0.00000000     0.00000000
     0.00000000     0.86960609     0.00000000
    -0.17647998     0.00000000     0.96135805
New lattice vectors in NEW alat (for information only):
     1.00000000     0.00000000     0.00000000
     0.00000000     0.86974570     0.00000000
    -0.17650831     0.00000000     0.96151239
Discrepancy in bohr =     0.000004    0.000000    0.000004
     new conv_thr            =       0.0000000100 Ry

     new unit-cell volume =   6823.36445 a.u.^3 (  1011.11829 Ang^3 )
     density =      2.84463 g/cm^3

CELL_PARAMETERS (alat= 20.13508722)
   0.999839480   0.000000000   0.000000000
   0.000000000   0.869606093   0.000000000
  -0.176479980   0.000000000   0.961358051

ATOMIC_POSITIONS (crystal)
K                0.0000000000        0.4912922353        0.0000000000
K                0.5000000000        0.4912896576        0.0000000000
K                0.2500002225        0.0038789369        0.0000006467
K                0.7499998975        0.0038789369       -0.0000006467
Mg              -0.0000000000        0.0061475551        0.4999999400
Mg               0.5000000000        0.0061430288        0.4999999400
Mg              -0.0000000000        0.6672549593        0.4999999400
Mg               0.5000000000        0.6672612028        0.4999999400
Mg               0.2499969183        0.4958898212        0.4999994381
Mg               0.7500033497        0.4958898212        0.5000004419
Mg               0.2499967012        0.8355388532        0.5000010813
Mg               0.7500035668        0.8355388532        0.4999987987
Mg               0.2499959887        0.1704365820        0.4999979529
Mg               0.7500042793        0.1704365820        0.5000019271
Si               0.0454647981        0.1632700701        0.2250205422
Si               0.5454658085        0.1632709217        0.2250213970
Si               0.4545344895        0.1632709217        0.7749785140
Si               0.9545355029        0.1632700701        0.7749793688
Si               0.4671685382        0.8343649193        0.7675317015
Si               0.9671690853        0.8343641905        0.7675314862
Si               0.0328312057        0.8343641905        0.2324683948
Si               0.5328317898        0.8343649193        0.2324681795
Si               0.2825537063        0.6666168507        0.2310497544
Si               0.7825537994        0.6666151711        0.2310496927
Si               0.2174464986        0.6666151711        0.7689501883
Si               0.7174465917        0.6666168507        0.7689501266
Al               0.2038379059        0.3307331547        0.7721086605
Al               0.7038384182        0.3307330379        0.7721096130
Al               0.2961619098        0.3307330379        0.2278902530
Al               0.7961624071        0.3307331547        0.2278912055
O                0.0681381524        0.1576100777        0.3840281897
O                0.5681403318        0.1576114509        0.3840291495
O                0.4318599662        0.1576114509        0.6159707915
O                0.9318621686        0.1576100777        0.6159717513
O                0.4372922994        0.8346202849        0.6093344923
O                0.9372942724        0.8346208521        0.6093342549
O                0.0627060846        0.8346208521        0.3906656551
O                0.5627080286        0.8346202849        0.3906654177
O                0.3133784002        0.6698464931        0.3900042807
O                0.8133805878        0.6698449231        0.3900041949
O                0.1866196652        0.6698449231        0.6099957151
O                0.6866218678        0.6698464931        0.6099956293
O                0.1799767536        0.3333028748        0.6015446337
O                0.6799831370        0.3333048291        0.6015450485
O                0.3200171910        0.3333048291        0.3984547725
O                0.8200235294        0.3333028748        0.3984551873
O                0.1744499811        0.2043078713        0.1689444615
O                0.6744508610        0.2043098359        0.1689459657
O                0.3255494670        0.2043098359        0.8310538553
O                0.8255503019        0.2043078713        0.8310553595
O                0.0028364463        0.9965394262        0.1694802821
O                0.5028367350        0.9965398855        0.1694784728
O                0.4971635930        0.9965398855        0.8305214072
O                0.9971639077        0.9965394262        0.8305195979
O                0.3438908447        0.7696869223        0.8261677063
O                0.8438916328        0.7696876909        0.8261688848
O                0.1561086952        0.7696876909        0.1738310112
O                0.6561094533        0.7696869223        0.1738321897
O                0.4052307299        0.7370737795        0.1728187218
O                0.9052306878        0.7370727051        0.1728185259
O                0.0947696172        0.7370727051        0.8271813551
O                0.5947695681        0.7370737795        0.8271811592
O                0.2541170649        0.5073882847        0.1678245686
O                0.7541178204        0.5073869633        0.1678253229
O                0.2458824926        0.5073869633        0.8321745431
O                0.7458832031        0.5073882847        0.8321752974
O                0.0681696695        0.2750375452        0.8351862440
O                0.5681700035        0.2750368672        0.8351886676
O                0.4318303235        0.2750368672        0.1648112284
O                0.9318306285        0.2750375452        0.1648136520
O                0.0681866747        0.5117416752        0.3934365840
O                0.5681945248        0.5117523169        0.3934409509
O                0.4318057732        0.5117523169        0.6065589601
O                0.9318136233        0.5117416752        0.6065633270
O                0.3170552830        0.9994551004        0.3991744215
O                0.8170599710        0.9994562034        0.3991720636
O                0.1829404010        0.9994562034        0.6008278174
O                0.6829450450        0.9994551004        0.6008254595
H                0.0525441046        0.4920542302        0.3008007199
H                0.5525448377        0.4920576070        0.3007933428
H                0.4474555203        0.4920576070        0.6992065682
H                0.9474562274        0.4920542302        0.6991991911
H                0.2975421293        0.0133092374        0.3056873595
H                0.7975443574        0.0133084205        0.3056842775
H                0.2024559266        0.0133084205        0.6943156035
H                0.7024581977        0.0133092374        0.6943125215
Fe1             -0.0000000000        0.3356165736        0.4999999400
Fe2              0.5000000000        0.3356267628        0.4999999400



     Writing config-only to output data dir ./temp/phl-fe1-fe2x2.save/ :
     XML data file
     NEW-OLD atomic charge density approx. for the potential

     Check: negative core charge=   -0.000004

     negative rho (up, down):  3.806E-04 3.805E-04
     Generating pointlists ...

     total cpu time spent up to now is   164953.3 secs

     Self-consistent Calculation

     iteration #  1     ecut=    60.00 Ry     beta= 0.70
     Davidson diagonalization with overlap

---- Real-time Memory Report at c_bands before calling an iterative solver
          1931 MiB given to the printing process from OS
             0 MiB allocation reported by mallinfo(arena+hblkhd)
          7251 MiB available memory on the node where the printing process lives
------------------
     ethr =  1.00E-06,  avg # of iterations =  3.6

     Threshold (ethr) on eigenvalues was too large:
     Diagonalizing with lowered threshold

     Davidson diagonalization with overlap

---- Real-time Memory Report at c_bands before calling an iterative solver
          1931 MiB given to the printing process from OS
             0 MiB allocation reported by mallinfo(arena+hblkhd)
          7153 MiB available memory on the node where the printing process lives
------------------
