--------------------------------------------------------------------------
PMIx was unable to find a usable compression library
on the system. We will therefore be unable to compress
large data streams. This may result in longer-than-normal
startup times and larger memory footprints. We will
continue, but strongly recommend installing zlib or
a comparable compression library for better user experience.

You can suppress this warning by adding "pcompress_base_silence_warning=1"
to your PMIx MCA default parameter file, or by adding
"PMIX_MCA_pcompress_base_silence_warning=1" to your environment.
--------------------------------------------------------------------------

     Program PWSCF v.7.3.1 starts on 17Feb2025 at 13:58:53 

     This program is part of the open-source Quantum ESPRESSO suite
     for quantum simulation of materials; please cite
         "P. Giannozzi et al., J. Phys.:Condens. Matter 21 395502 (2009);
         "P. Giannozzi et al., J. Phys.:Condens. Matter 29 465901 (2017);
         "P. Giannozzi et al., J. Chem. Phys. 152 154105 (2020);
          URL http://www.quantum-espresso.org", 
     in publications or presentations arising from this work. More details at
     http://www.quantum-espresso.org/quote

     Parallel version (MPI), running on     6 processors

     MPI processes distributed on     1 nodes
     14852 MiB available memory on the printing compute node when the environment starts

     Reading input from vc_relax.in

     Current dimensions of program PWSCF are:
     Max number of different atomic species (ntypx) = 10
     Max number of k-points (npk) =  40000
     Max angular momentum in pseudopotentials (lmaxx) =  4
     file Al.pbe-n-kjpaw_psl.1.0.0.UPF: wavefunction(s)  3S 3P renormalized
     file Fe.pbe-spn-kjpaw_psl.1.0.0.UPF: wavefunction(s)  3P 3D renormalized
     file Fe.pbe-spn-kjpaw_psl.1.0.0.UPF: wavefunction(s)  3P 3D renormalized
     file H.pbe-kjpaw_psl.1.0.0.UPF: wavefunction(s)  1S renormalized
     file K.pbe-spn-kjpaw_psl.1.0.0.UPF: wavefunction(s)  3S renormalized
     file Mg.pbe-spnl-kjpaw_psl.1.0.0.UPF: wavefunction(s)  2P renormalized
     file O.pbe-n-kjpaw_psl.1.0.0.UPF: wavefunction(s)  2S 2P renormalized
     file Si.pbe-n-kjpaw_psl.1.0.0.UPF: wavefunction(s)  3S 3P renormalized

     R & G space division:  proc/nbgrp/npool/nimage =       6
     Subspace diagonalization in iterative solution of the eigenvalue problem:
     one sub-group per band group will be used
     custom distributed-memory algorithm (size of sub-group:  2*  2 procs)


     Parallelization info
     --------------------
     sticks:   dense  smooth     PW     G-vecs:    dense   smooth      PW
     Min        2245    1122    295               202075    71450    9650
     Max        2246    1123    296               202076    71451    9652
     Sum       13475    6737   1775              1212455   428701   57909

     Using Slab Decomposition



     bravais-lattice index     =          -12
     lattice parameter (alat)  =      20.1351  a.u.
     unit-cell volume          =    6828.4878 (a.u.)^3
     number of atoms/cell      =           88
     number of atomic types    =            8
     number of electrons       =       524.00
     number of Kohn-Sham states=          314
     kinetic-energy cutoff     =      60.0000  Ry
     charge density cutoff     =     480.0000  Ry
     scf convergence threshold =      1.0E-06
     mixing beta               =       0.7000
     number of iterations used =            8  plain     mixing
     energy convergence thresh.=      1.0E-06
     force convergence thresh. =      1.0E-03
     press convergence thresh. =      5.0E-01
     Exchange-correlation= SLA  PW   PBX  PBC
                           (   1   4   3   4   0   0   0)
     nstep                     =           50


     celldm(1)=  20.135087  celldm(2)=   0.869801  celldm(3)=   0.977339
     celldm(4)=   0.000000  celldm(5)=  -0.178119  celldm(6)=   0.000000

     crystal axes: (cart. coord. in units of alat)
               a(1) = (   1.000000   0.000000   0.000000 )  
               a(2) = (   0.000000   0.869801   0.000000 )  
               a(3) = (  -0.174083   0.000000   0.961710 )  

     reciprocal axes: (cart. coord. in units 2 pi/alat)
               b(1) = (  1.000000 -0.000000  0.181014 )  
               b(2) = (  0.000000  1.149688 -0.000000 )  
               b(3) = (  0.000000  0.000000  1.039814 )  


     PseudoPot. # 1 for Al read from file:
     ./../../../pseudos/Al.pbe-n-kjpaw_psl.1.0.0.UPF
     MD5 check sum: 502b6b27b9c6270cab5dd1084b96fa6d
     Pseudo is Projector augmented-wave + core cor, Zval =  3.0
     Generated using &quot;atomic&quot; code by A. Dal Corso  v.6.3
     Shape of augmentation charge: PSQ
     Using radial grid of 1135 points,  6 beta functions with: 
                l(1) =   0
                l(2) =   0
                l(3) =   1
                l(4) =   1
                l(5) =   2
                l(6) =   2
     Q(r) pseudized with 0 coefficients 


     PseudoPot. # 2 for Fe read from file:
     ./../../../pseudos/Fe.pbe-spn-kjpaw_psl.1.0.0.UPF
     MD5 check sum: fc81f059e5c5069939230b1155715ae8
     Pseudo is Projector augmented-wave + core cor, Zval = 16.0
     Generated using &quot;atomic&quot; code by A. Dal Corso  v.6.3
     Shape of augmentation charge: PSQ
     Using radial grid of 1191 points,  6 beta functions with: 
                l(1) =   0
                l(2) =   0
                l(3) =   1
                l(4) =   1
                l(5) =   2
                l(6) =   2
     Q(r) pseudized with 0 coefficients 


     PseudoPot. # 3 for Fe read from file:
     ./../../../pseudos/Fe.pbe-spn-kjpaw_psl.1.0.0.UPF
     MD5 check sum: fc81f059e5c5069939230b1155715ae8
     Pseudo is Projector augmented-wave + core cor, Zval = 16.0
     Generated using &quot;atomic&quot; code by A. Dal Corso  v.6.3
     Shape of augmentation charge: PSQ
     Using radial grid of 1191 points,  6 beta functions with: 
                l(1) =   0
                l(2) =   0
                l(3) =   1
                l(4) =   1
                l(5) =   2
                l(6) =   2
     Q(r) pseudized with 0 coefficients 


     PseudoPot. # 4 for H  read from file:
     ./../../../pseudos/H.pbe-kjpaw_psl.1.0.0.UPF
     MD5 check sum: d81a744832360e4a8af0b0b5b123bc2a
     Pseudo is Projector augmented-wave, Zval =  1.0
     Generated using &quot;atomic&quot; code by A. Dal Corso  v.6.3MaX
     Shape of augmentation charge: PSQ
     Using radial grid of  929 points,  2 beta functions with: 
                l(1) =   0
                l(2) =   0
     Q(r) pseudized with 0 coefficients 


     PseudoPot. # 5 for K  read from file:
     ./../../../pseudos/K.pbe-spn-kjpaw_psl.1.0.0.UPF
     MD5 check sum: 34cc42130a09071ebe376fd42eb21491
     Pseudo is Projector augmented-wave + core cor, Zval =  9.0
     Generated using &quot;atomic&quot; code by A. Dal Corso  v.6.2.2
     Shape of augmentation charge: PSQ
     Using radial grid of 1165 points,  6 beta functions with: 
                l(1) =   0
                l(2) =   0
                l(3) =   1
                l(4) =   1
                l(5) =   2
                l(6) =   2
     Q(r) pseudized with 0 coefficients 


     PseudoPot. # 6 for Mg read from file:
     ./../../../pseudos/Mg.pbe-spnl-kjpaw_psl.1.0.0.UPF
     MD5 check sum: fda14e0d92a6a9a5ebed782e5a4b3067
     Pseudo is Projector augmented-wave + core cor, Zval = 10.0
     Generated using &quot;atomic&quot; code by A. Dal Corso  v.6.3
     Shape of augmentation charge: PSQ
     Using radial grid of 1129 points,  4 beta functions with: 
                l(1) =   0
                l(2) =   0
                l(3) =   1
                l(4) =   1
     Q(r) pseudized with 0 coefficients 


     PseudoPot. # 7 for O  read from file:
     ./../../../pseudos/O.pbe-n-kjpaw_psl.1.0.0.UPF
     MD5 check sum: e99d9cef9b487d1ca56f5b95ecd0fd7a
     Pseudo is Projector augmented-wave + core cor, Zval =  6.0
     Generated using &quot;atomic&quot; code by A. Dal Corso  v.6.3
     Shape of augmentation charge: PSQ
     Using radial grid of 1095 points,  4 beta functions with: 
                l(1) =   0
                l(2) =   0
                l(3) =   1
                l(4) =   1
     Q(r) pseudized with 0 coefficients 


     PseudoPot. # 8 for Si read from file:
     ./../../../pseudos/Si.pbe-n-kjpaw_psl.1.0.0.UPF
     MD5 check sum: c39c59da582df4a0d9f10159256ea34e
     Pseudo is Projector augmented-wave + core cor, Zval =  4.0
     Generated using &quot;atomic&quot; code by A. Dal Corso  v.6.3
     Shape of augmentation charge: PSQ
     Using radial grid of 1141 points,  6 beta functions with: 
                l(1) =   0
                l(2) =   0
                l(3) =   1
                l(4) =   1
                l(5) =   2
                l(6) =   2
     Q(r) pseudized with 0 coefficients 


     atomic species   valence    mass     pseudopotential
     Al                3.00    26.98154     Al( 1.00)
     Fe1              16.00    55.84500     Fe( 1.00)
     Fe2              16.00    55.84500     Fe( 1.00)
     H                 1.00     1.00794     H ( 1.00)
     K                 9.00    39.09830     K ( 1.00)
     Mg               10.00    24.30500     Mg( 1.00)
     O                 6.00    15.99940     O ( 1.00)
     Si                4.00    28.08550     Si( 1.00)

     Starting magnetic structure 
     atomic species   magnetization
     Al              0.000
     Fe1             0.300
     Fe2            -0.300
     H               0.000
     K               0.000
     Mg              0.000
     O               0.000
     Si              0.000

      2 Sym. Ops. (no inversion) found


                                    s                        frac. trans.

      isym =  1     identity                                     

 cryst.   s( 1) = (     1          0          0      )
                  (     0          1          0      )
                  (     0          0          1      )

 cart.    s( 1) = (  1.0000000  0.0000000  0.0000000 )
                  (  0.0000000  1.0000000  0.0000000 )
                  (  0.0000000  0.0000000  1.0000000 )


      isym =  2     180 deg rotation - cart. axis [0,1,0]        

 cryst.   s( 2) = (    -1          0          0      )
                  (     0          1          0      )
                  (     0          0         -1      )

 cart.    s( 2) = ( -1.0000000  0.0000000  0.0000000 )
                  (  0.0000000  1.0000000  0.0000000 )
                  (  0.0000000  0.0000000 -1.0000000 )


     point group C_2  (2)   
     there are  2 classes
     the character table:

       E     C2   
A      1.00  1.00
B      1.00 -1.00

     the symmetry operations in each class and the name of the first element:

     E        1
          identity                                               
     C2       2
          180 deg rotation - cart. axis [0,1,0]                  

   Cartesian axes

     site n.     atom                  positions (alat units)
         1        K      tau(   1) = (   0.0000000   0.4296389   0.0000000  )
         2        K      tau(   2) = (   0.5000000   0.4296389   0.0000000  )
         3        K      tau(   3) = (   0.2500001   0.0024501   0.0000000  )
         4        K      tau(   4) = (   0.7500001   0.0024501   0.0000000  )
         5        Mg     tau(   5) = (  -0.0870414   0.0055279   0.4808550  )
         6        Mg     tau(   6) = (   0.4129586   0.0055279   0.4808550  )
         7        Mg     tau(   7) = (  -0.0870414   0.5801280   0.4808550  )
         8        Mg     tau(   8) = (   0.4129586   0.5801280   0.4808550  )
         9        Mg     tau(   9) = (   0.1629587   0.4310949   0.4808550  )
        10        Mg     tau(  10) = (   0.6629587   0.4310949   0.4808550  )
        11        Mg     tau(  11) = (   0.1629587   0.7269300   0.4808550  )
        12        Mg     tau(  12) = (   0.6629587   0.7269300   0.4808550  )
        13        Mg     tau(  13) = (   0.1629587   0.1482588   0.4808550  )
        14        Mg     tau(  14) = (   0.6629587   0.1482588   0.4808550  )
        15        Si     tau(  15) = (   0.0074326   0.1420119   0.2164892  )
        16        Si     tau(  16) = (   0.5074326   0.1420119   0.2164892  )
        17        Si     tau(  17) = (   0.3184849   0.1420119   0.7452208  )
        18        Si     tau(  18) = (   0.8184849   0.1420119   0.7452208  )
        19        Si     tau(  19) = (   0.3331608   0.7257911   0.7377580  )
        20        Si     tau(  20) = (   0.8331608   0.7257911   0.7377580  )
        21        Si     tau(  21) = (  -0.0072433   0.7257911   0.2239520  )
        22        Si     tau(  22) = (   0.4927567   0.7257911   0.2239520  )
        23        Si     tau(  23) = (   0.2427667   0.5796705   0.2225784  )
        24        Si     tau(  24) = (   0.7427667   0.5796705   0.2225784  )
        25        Si     tau(  25) = (   0.0831508   0.5796705   0.7391315  )
        26        Si     tau(  26) = (   0.5831508   0.5796705   0.7391315  )
        27        Al     tau(  27) = (   0.0682443   0.2875617   0.7425041  )
        28        Al     tau(  28) = (   0.5682443   0.2875617   0.7425041  )
        29        Al     tau(  29) = (   0.2576732   0.2875617   0.2192058  )
        30        Al     tau(  30) = (   0.7576731   0.2875617   0.2192058  )
        31        O      tau(  31) = (   0.0017352   0.1371008   0.3693886  )
        32        O      tau(  32) = (   0.5017352   0.1371008   0.3693886  )
        33        O      tau(  33) = (   0.3241823   0.1371008   0.5923214  )
        34        O      tau(  34) = (   0.8241823   0.1371008   0.5923214  )
        35        O      tau(  35) = (   0.3309875   0.7260882   0.5856762  )
        36        O      tau(  36) = (   0.8309875   0.7260882   0.5856762  )
        37        O      tau(  37) = (  -0.0050700   0.7260882   0.3760337  )
        38        O      tau(  38) = (   0.4949300   0.7260882   0.3760337  )
        39        O      tau(  39) = (   0.2456591   0.5824087   0.3753945  )
        40        O      tau(  40) = (   0.7456591   0.5824087   0.3753945  )
        41        O      tau(  41) = (   0.0802583   0.5824087   0.5863155  )
        42        O      tau(  42) = (   0.5802583   0.5824087   0.5863155  )
        43        O      tau(  43) = (   0.0748950   0.2898192   0.5784747  )
        44        O      tau(  44) = (   0.5748950   0.2898192   0.5784747  )
        45        O      tau(  45) = (   0.2510225   0.2898192   0.3832352  )
        46        O      tau(  46) = (   0.7510224   0.2898192   0.3832352  )
        47        O      tau(  47) = (   0.1463863   0.1775489   0.1626707  )
        48        O      tau(  48) = (   0.6463863   0.1775489   0.1626707  )
        49        O      tau(  49) = (   0.1795312   0.1775489   0.7990392  )
        50        O      tau(  50) = (   0.6795312   0.1775489   0.7990392  )
        51        O      tau(  51) = (  -0.0250455   0.8667889   0.1630411  )
        52        O      tau(  52) = (   0.4749545   0.8667889   0.1630411  )
        53        O      tau(  53) = (   0.3509630   0.8667889   0.7986688  )
        54        O      tau(  54) = (   0.8509630   0.8667889   0.7986688  )
        55        O      tau(  55) = (   0.2001651   0.6682872   0.7942782  )
        56        O      tau(  56) = (   0.7001651   0.6682872   0.7942782  )
        57        O      tau(  57) = (   0.1257524   0.6682872   0.1674318  )
        58        O      tau(  58) = (   0.6257524   0.6682872   0.1674318  )
        59        O      tau(  59) = (   0.3751016   0.6421235   0.1665090  )
        60        O      tau(  60) = (   0.8751016   0.6421235   0.1665090  )
        61        O      tau(  61) = (  -0.0491842   0.6421235   0.7952009  )
        62        O      tau(  62) = (   0.4508158   0.6421235   0.7952009  )
        63        O      tau(  63) = (   0.2267361   0.4412388   0.1614261  )
        64        O      tau(  64) = (   0.7267362   0.4412388   0.1614261  )
        65        O      tau(  65) = (   0.0991813   0.4412388   0.8002838  )
        66        O      tau(  66) = (   0.5991813   0.4412388   0.8002838  )
        67        O      tau(  67) = (  -0.0785908   0.2392057   0.8031981  )
        68        O      tau(  68) = (   0.4214092   0.2392057   0.8031981  )
        69        O      tau(  69) = (   0.4045083   0.2392057   0.1585119  )
        70        O      tau(  70) = (   0.9045082   0.2392057   0.1585119  )
        71        O      tau(  71) = (  -0.0000042   0.4450115   0.3781135  )
        72        O      tau(  72) = (   0.4999958   0.4450115   0.3781135  )
        73        O      tau(  73) = (   0.3259217   0.4450115   0.5835965  )
        74        O      tau(  74) = (   0.8259217   0.4450115   0.5835965  )
        75        O      tau(  75) = (   0.2478596   0.8693925   0.3836472  )
        76        O      tau(  76) = (   0.7478596   0.8693925   0.3836472  )
        77        O      tau(  77) = (   0.0780579   0.8693925   0.5780627  )
        78        O      tau(  78) = (   0.5780579   0.8693925   0.5780627  )
        79        H      tau(  79) = (   0.0004471   0.4269259   0.2892434  )
        80        H      tau(  80) = (   0.5004471   0.4269259   0.2892434  )
        81        H      tau(  81) = (   0.3254704   0.4269259   0.6724666  )
        82        H      tau(  82) = (   0.8254704   0.4269259   0.6724666  )
        83        H      tau(  83) = (   0.2447352   0.0128545   0.2939423  )
        84        H      tau(  84) = (   0.7447351   0.0128545   0.2939423  )
        85        H      tau(  85) = (   0.0811823   0.0128545   0.6677677  )
        86        H      tau(  86) = (   0.5811823   0.0128545   0.6677677  )
        87        Fe1    tau(  87) = (  -0.0870414   0.2919251   0.4808550  )
        88        Fe2    tau(  88) = (   0.4129586   0.2919251   0.4808550  )

     --------------------------------------------
     DFT-D3 Dispersion Correction (3-body terms):
     --------------------------------------------
       Reference C6 values for interpolation: 

         atom   Coordination number   C6
         H          0.912             6.05
         H          0.000            15.18
         O          0.000            31.01
         O          0.993            25.63
         O          1.989            20.74
         Mg         0.000          1366.75
         Mg         0.963           902.54
         Mg         1.950           351.12
         Al         0.000          1081.08
         Al         0.965           875.51
         Al         1.931           513.50
         Al         2.915           307.19
         Si         0.000           635.71
         Si         0.951           540.53
         Si         1.944           466.25
         Si         2.941           443.01
         Si         3.868           299.55
         K          0.000          9967.00
         K          0.977           676.04
         Fe1        0.000           982.67
         Fe1        1.648           409.99
         Fe1        9.138           219.01
         Fe2        0.000           982.67
         Fe2        1.648           409.99
         Fe2        9.138           219.01

       Values used:

         atom   Coordination number  R0_AB[au]  C6      C8
         K         11.877            4.007    676.04 129074.98
         K         11.877            4.007    676.04 129074.98
         K         12.270            4.007    676.04 129074.98
         K         12.270            4.007    676.04 129074.98
         Mg        11.314            3.292    351.12  31436.69
         Mg        11.314            3.292    351.12  31436.69
         Mg        11.299            3.292    351.12  31436.69
         Mg        11.299            3.292    351.12  31436.69
         Mg        11.204            3.292    351.12  31436.69
         Mg        11.204            3.292    351.12  31436.69
         Mg        11.573            3.292    351.12  31436.69
         Mg        11.573            3.292    351.12  31436.69
         Mg        11.383            3.292    351.12  31436.69
         Mg        11.383            3.292    351.12  31436.69
         Si         6.519            3.583    299.55  21425.58
         Si         6.519            3.583    299.55  21425.58
         Si         6.519            3.583    299.55  21425.58
         Si         6.519            3.583    299.55  21425.58
         Si         6.299            3.583    299.55  21425.58
         Si         6.299            3.583    299.55  21425.58
         Si         6.299            3.583    299.55  21425.58
         Si         6.299            3.583    299.55  21425.58
         Si         6.332            3.583    299.55  21425.58
         Si         6.332            3.583    299.55  21425.58
         Si         6.332            3.583    299.55  21425.58
         Si         6.332            3.583    299.55  21425.58
         Al         7.195            3.789    307.19  29441.29
         Al         7.195            3.789    307.19  29441.29
         Al         7.195            3.789    307.19  29441.29
         Al         7.195            3.789    307.19  29441.29
         O          3.463            2.345     20.74    418.58
         O          3.463            2.345     20.74    418.58
         O          3.463            2.345     20.74    418.58
         O          3.463            2.345     20.74    418.58
         O          3.908            2.345     20.74    418.58
         O          3.908            2.345     20.74    418.58
         O          3.908            2.345     20.74    418.58
         O          3.908            2.345     20.74    418.58
         O          3.897            2.345     20.74    418.58
         O          3.897            2.345     20.74    418.58
         O          3.897            2.345     20.74    418.58
         O          3.897            2.345     20.74    418.58
         O          3.833            2.345     20.74    418.58
         O          3.833            2.345     20.74    418.58
         O          3.833            2.345     20.74    418.58
         O          3.833            2.345     20.74    418.58
         O          3.114            2.345     20.74    418.58
         O          3.114            2.345     20.74    418.58
         O          3.114            2.345     20.74    418.58
         O          3.114            2.345     20.74    418.58
         O          3.077            2.345     20.74    418.58
         O          3.077            2.345     20.74    418.58
         O          3.077            2.345     20.74    418.58
         O          3.077            2.345     20.74    418.58
         O          2.927            2.345     20.74    418.58
         O          2.927            2.345     20.74    418.58
         O          2.927            2.345     20.74    418.58
         O          2.927            2.345     20.74    418.58
         O          2.924            2.345     20.74    418.58
         O          2.924            2.345     20.74    418.58
         O          2.924            2.345     20.74    418.58
         O          2.924            2.345     20.74    418.58
         O          3.084            2.345     20.74    418.58
         O          3.084            2.345     20.74    418.58
         O          3.084            2.345     20.74    418.58
         O          3.084            2.345     20.74    418.58
         O          3.139            2.345     20.74    418.58
         O          3.139            2.345     20.74    418.58
         O          3.139            2.345     20.74    418.58
         O          3.139            2.345     20.74    418.58
         O          3.632            2.345     20.74    418.58
         O          3.632            2.345     20.74    418.58
         O          3.632            2.345     20.74    418.58
         O          3.632            2.345     20.74    418.58
         O          3.981            2.345     20.74    418.58
         O          3.981            2.345     20.74    418.58
         O          3.981            2.345     20.74    418.58
         O          3.981            2.345     20.74    418.58
         H          1.231            2.062      6.08     73.47
         H          1.231            2.062      6.08     73.47
         H          1.231            2.062      6.08     73.47
         H          1.231            2.062      6.08     73.47
         H          1.237            2.062      6.08     73.45
         H          1.237            2.062      6.08     73.45
         H          1.237            2.062      6.08     73.45
         H          1.237            2.062      6.08     73.45
         Fe1        7.261            3.252    219.01  20487.87
         Fe2        7.261            3.252    219.01  20487.87

         Molecular C6 ( Ry / a.u.^6 ) =    661236.15


   Crystallographic axes

     site n.     atom                  positions (cryst. coord.)
         1        K      tau(   1) = (  0.0000000  0.4939509  0.0000000  )
         2        K      tau(   2) = (  0.5000000  0.4939509  0.0000000  )
         3        K      tau(   3) = (  0.2500001  0.0028168  0.0000000  )
         4        K      tau(   4) = (  0.7500001  0.0028168  0.0000000  )
         5        Mg     tau(   5) = (  0.0000000  0.0063553  0.4999999  )
         6        Mg     tau(   6) = (  0.5000000  0.0063553  0.4999999  )
         7        Mg     tau(   7) = (  0.0000000  0.6669664  0.4999999  )
         8        Mg     tau(   8) = (  0.5000000  0.6669664  0.4999999  )
         9        Mg     tau(   9) = (  0.2500001  0.4956248  0.4999999  )
        10        Mg     tau(  10) = (  0.7500001  0.4956248  0.4999999  )
        11        Mg     tau(  11) = (  0.2500001  0.8357430  0.4999999  )
        12        Mg     tau(  12) = (  0.7500001  0.8357430  0.4999999  )
        13        Mg     tau(  13) = (  0.2500001  0.1704514  0.4999999  )
        14        Mg     tau(  14) = (  0.7500001  0.1704514  0.4999999  )
        15        Si     tau(  15) = (  0.0466201  0.1632694  0.2251086  )
        16        Si     tau(  16) = (  0.5466201  0.1632694  0.2251086  )
        17        Si     tau(  17) = (  0.4533802  0.1632694  0.7748913  )
        18        Si     tau(  18) = (  0.9533802  0.1632694  0.7748913  )
        19        Si     tau(  19) = (  0.4667052  0.8344337  0.7671314  )
        20        Si     tau(  20) = (  0.9667052  0.8344337  0.7671314  )
        21        Si     tau(  21) = (  0.0332951  0.8344337  0.2328685  )
        22        Si     tau(  22) = (  0.5332951  0.8344337  0.2328685  )
        23        Si     tau(  23) = (  0.2830564  0.6664404  0.2314402  )
        24        Si     tau(  24) = (  0.7830564  0.6664404  0.2314402  )
        25        Si     tau(  25) = (  0.2169439  0.6664404  0.7685596  )
        26        Si     tau(  26) = (  0.7169439  0.6664404  0.7685596  )
        27        Al     tau(  27) = (  0.2026479  0.3306063  0.7720665  )
        28        Al     tau(  28) = (  0.7026479  0.3306063  0.7720665  )
        29        Al     tau(  29) = (  0.2973525  0.3306063  0.2279334  )
        30        Al     tau(  30) = (  0.7973524  0.3306063  0.2279334  )
        31        O      tau(  31) = (  0.0685997  0.1576232  0.3840956  )
        32        O      tau(  32) = (  0.5685996  0.1576232  0.3840956  )
        33        O      tau(  33) = (  0.4314007  0.1576232  0.6159044  )
        34        O      tau(  34) = (  0.9314007  0.1576232  0.6159044  )
        35        O      tau(  35) = (  0.4370030  0.8347753  0.6089946  )
        36        O      tau(  36) = (  0.9370030  0.8347753  0.6089946  )
        37        O      tau(  37) = (  0.0629973  0.8347753  0.3910053  )
        38        O      tau(  38) = (  0.5629973  0.8347753  0.3910053  )
        39        O      tau(  39) = (  0.3136107  0.6695885  0.3903406  )
        40        O      tau(  40) = (  0.8136107  0.6695885  0.3903406  )
        41        O      tau(  41) = (  0.1863896  0.6695885  0.6096593  )
        42        O      tau(  42) = (  0.6863896  0.6695885  0.6096593  )
        43        O      tau(  43) = (  0.1796070  0.3332018  0.6015063  )
        44        O      tau(  44) = (  0.6796070  0.3332018  0.6015063  )
        45        O      tau(  45) = (  0.3203934  0.3332018  0.3984935  )
        46        O      tau(  46) = (  0.8203933  0.3332018  0.3984935  )
        47        O      tau(  47) = (  0.1758320  0.2041259  0.1691474  )
        48        O      tau(  48) = (  0.6758320  0.2041259  0.1691474  )
        49        O      tau(  49) = (  0.3241684  0.2041259  0.8308524  )
        50        O      tau(  50) = (  0.8241683  0.2041259  0.8308524  )
        51        O      tau(  51) = (  0.0044672  0.9965371  0.1695325  )
        52        O      tau(  52) = (  0.5044672  0.9965371  0.1695325  )
        53        O      tau(  53) = (  0.4955331  0.9965371  0.8304673  )
        54        O      tau(  54) = (  0.9955331  0.9965371  0.8304673  )
        55        O      tau(  55) = (  0.3439404  0.7683221  0.8259019  )
        56        O      tau(  56) = (  0.8439404  0.7683221  0.8259019  )
        57        O      tau(  57) = (  0.1560599  0.7683221  0.1740980  )
        58        O      tau(  58) = (  0.6560599  0.7683221  0.1740980  )
        59        O      tau(  59) = (  0.4052421  0.7382420  0.1731385  )
        60        O      tau(  60) = (  0.9052421  0.7382420  0.1731385  )
        61        O      tau(  61) = (  0.0947582  0.7382420  0.8268614  )
        62        O      tau(  62) = (  0.5947582  0.7382420  0.8268614  )
        63        O      tau(  63) = (  0.2559565  0.5072872  0.1678532  )
        64        O      tau(  64) = (  0.7559565  0.5072872  0.1678532  )
        65        O      tau(  65) = (  0.2440438  0.5072872  0.8321466  )
        66        O      tau(  66) = (  0.7440438  0.5072872  0.8321466  )
        67        O      tau(  67) = (  0.0667992  0.2750120  0.8351769  )
        68        O      tau(  68) = (  0.5667992  0.2750120  0.8351769  )
        69        O      tau(  69) = (  0.4332011  0.2750120  0.1648230  )
        70        O      tau(  70) = (  0.9332011  0.2750120  0.1648230  )
        71        O      tau(  71) = (  0.0684395  0.5116246  0.3931678  )
        72        O      tau(  72) = (  0.5684395  0.5116246  0.3931678  )
        73        O      tau(  73) = (  0.4315608  0.5116246  0.6068321  )
        74        O      tau(  74) = (  0.9315608  0.5116246  0.6068321  )
        75        O      tau(  75) = (  0.3173051  0.9995306  0.3989219  )
        76        O      tau(  76) = (  0.8173051  0.9995306  0.3989219  )
        77        O      tau(  77) = (  0.1826953  0.9995306  0.6010780  )
        78        O      tau(  78) = (  0.6826953  0.9995306  0.6010780  )
        79        H      tau(  79) = (  0.0528041  0.4908318  0.3007595  )
        80        H      tau(  80) = (  0.5528042  0.4908318  0.3007595  )
        81        H      tau(  81) = (  0.4471962  0.4908318  0.6992404  )
        82        H      tau(  82) = (  0.9471962  0.4908318  0.6992404  )
        83        H      tau(  83) = (  0.2979428  0.0147786  0.3056454  )
        84        H      tau(  84) = (  0.7979428  0.0147786  0.3056454  )
        85        H      tau(  85) = (  0.2020575  0.0147786  0.6943545  )
        86        H      tau(  86) = (  0.7020575  0.0147786  0.6943545  )
        87        Fe1    tau(  87) = (  0.0000000  0.3356230  0.4999999  )
        88        Fe2    tau(  88) = (  0.5000000  0.3356230  0.4999999  )

     number of k points=    10  Gaussian smearing, width (Ry)=  0.0010
                       cart. coord. in units 2pi/alat
        k(    1) = (   0.0000000   0.0000000   0.0000000), wk =   0.0370370
        k(    2) = (   0.0000000   0.0000000   0.3466048), wk =   0.0740741
        k(    3) = (   0.0000000   0.3832295   0.0000000), wk =   0.0740741
        k(    4) = (   0.0000000   0.3832295   0.3466048), wk =   0.1481481
        k(    5) = (   0.3333333   0.0000000   0.0603380), wk =   0.0740741
        k(    6) = (   0.3333333   0.0000000   0.4069428), wk =   0.0740741
        k(    7) = (   0.3333333   0.0000000  -0.2862669), wk =   0.0740741
        k(    8) = (   0.3333333   0.3832295   0.0603380), wk =   0.1481481
        k(    9) = (   0.3333333   0.3832295   0.4069428), wk =   0.1481481
        k(   10) = (   0.3333333   0.3832295  -0.2862669), wk =   0.1481481

                       cryst. coord.
        k(    1) = (   0.0000000   0.0000000   0.0000000), wk =   0.0370370
        k(    2) = (   0.0000000   0.0000000   0.3333333), wk =   0.0740741
        k(    3) = (   0.0000000   0.3333333   0.0000000), wk =   0.0740741
        k(    4) = (   0.0000000   0.3333333   0.3333333), wk =   0.1481481
        k(    5) = (   0.3333333   0.0000000   0.0000000), wk =   0.0740741
        k(    6) = (   0.3333333   0.0000000   0.3333333), wk =   0.0740741
        k(    7) = (   0.3333333   0.0000000  -0.3333333), wk =   0.0740741
        k(    8) = (   0.3333333   0.3333333   0.0000000), wk =   0.1481481
        k(    9) = (   0.3333333   0.3333333   0.3333333), wk =   0.1481481
        k(   10) = (   0.3333333   0.3333333  -0.3333333), wk =   0.1481481

     Dense  grid:  1212455 G-vectors     FFT dimensions: ( 144, 125, 144)

     Smooth grid:   428701 G-vectors     FFT dimensions: ( 100,  90, 100)

     Dynamical RAM for                 wfc:      42.80 MB

     Dynamical RAM for     wfc (w. buffer):     898.71 MB

     Dynamical RAM for           str. fact:      24.67 MB

     Dynamical RAM for           local pot:       0.00 MB

     Dynamical RAM for          nlocal pot:     119.39 MB

     Dynamical RAM for                qrad:      28.13 MB

     Dynamical RAM for          rho,v,vnew:      38.28 MB

     Dynamical RAM for               rhoin:      12.76 MB

     Dynamical RAM for            rho*nmix:      98.67 MB

     Dynamical RAM for           G-vectors:      12.11 MB

     Dynamical RAM for          h,s,v(r/c):       4.51 MB

     Dynamical RAM for          <psi|beta>:       4.20 MB

     Dynamical RAM for                 psi:      85.59 MB

     Dynamical RAM for                hpsi:      85.59 MB

     Dynamical RAM for                spsi:      85.59 MB

     Dynamical RAM for      wfcinit/wfcrot:      87.85 MB

     Dynamical RAM for           addusdens:     724.61 MB

     Dynamical RAM for          addusforce:    1014.83 MB

     Dynamical RAM for         addusstress:     624.40 MB

     Estimated static dynamical RAM per process >       1.15 GB

     Estimated max dynamical RAM per process >       2.24 GB

     Estimated total dynamical RAM >      13.45 GB

     Atomic positions and unit cell read from directory:
     ./temp/phl-fe1-fe2x2.save/
     Atomic positions from file used, from input discarded


     Check: negative core charge=   -0.000004
     Generating pointlists ...
     new r_m :   0.0677 (alat units)  1.3633 (a.u.) for type    1
     new r_m :   0.0780 (alat units)  1.5706 (a.u.) for type    2
     new r_m :   0.0780 (alat units)  1.5706 (a.u.) for type    3
     new r_m :   0.0374 (alat units)  0.7531 (a.u.) for type    4
     new r_m :   0.1074 (alat units)  2.1634 (a.u.) for type    5
     new r_m :   0.0787 (alat units)  1.5844 (a.u.) for type    6
     new r_m :   0.0374 (alat units)  0.7531 (a.u.) for type    7
     new r_m :   0.0627 (alat units)  1.2631 (a.u.) for type    8

     The initial density is read from file :
     ./temp/phl-fe1-fe2x2.save/charge-density


     starting charge     524.1050, renormalised to     524.0000

     negative rho (up, down):  3.804E-04 3.804E-04
     Cannot read wfcs: file not found
     Starting wfcs are  366 randomized atomic wfcs
     Checking if some PAW data can be deallocated... 
       PAW data deallocated on    5 nodes for type:  1
       PAW data deallocated on    5 nodes for type:  2
       PAW data deallocated on    5 nodes for type:  3
       PAW data deallocated on    5 nodes for type:  4
       PAW data deallocated on    5 nodes for type:  5
       PAW data deallocated on    5 nodes for type:  6
       PAW data deallocated on    2 nodes for type:  7
       PAW data deallocated on    4 nodes for type:  8

     total cpu time spent up to now is      544.1 secs

     Self-consistent Calculation

     iteration #  1     ecut=    60.00 Ry     beta= 0.70
     Davidson diagonalization with overlap

---- Real-time Memory Report at c_bands before calling an iterative solver
          1295 MiB given to the printing process from OS
             0 MiB allocation reported by mallinfo(arena+hblkhd)
          7490 MiB available memory on the node where the printing process lives
------------------
     c_bands:  5 eigenvalues not converged
     c_bands:  4 eigenvalues not converged
     c_bands:  4 eigenvalues not converged
     c_bands:  1 eigenvalues not converged
     c_bands:  3 eigenvalues not converged
     c_bands:  3 eigenvalues not converged
     c_bands:  5 eigenvalues not converged
     c_bands:  3 eigenvalues not converged
     c_bands:  3 eigenvalues not converged
     c_bands:  4 eigenvalues not converged
     c_bands:  4 eigenvalues not converged
     c_bands:  5 eigenvalues not converged
     c_bands:  5 eigenvalues not converged
     c_bands:  1 eigenvalues not converged
     c_bands:  2 eigenvalues not converged
     c_bands:  3 eigenvalues not converged
     c_bands:  3 eigenvalues not converged
     c_bands:  3 eigenvalues not converged
     ethr =  1.00E-05,  avg # of iterations = 41.0

     Threshold (ethr) on eigenvalues was too large:
     Diagonalizing with lowered threshold

     Davidson diagonalization with overlap

---- Real-time Memory Report at c_bands before calling an iterative solver
          1876 MiB given to the printing process from OS
             0 MiB allocation reported by mallinfo(arena+hblkhd)
          7265 MiB available memory on the node where the printing process lives
------------------
     c_bands:  1 eigenvalues not converged
     ethr =  1.15E-07,  avg # of iterations = 10.2

     negative rho (up, down):  3.797E-04 3.797E-04

     total cpu time spent up to now is    18052.4 secs

     total energy              =   -5262.52861530 Ry
     estimated scf accuracy    <       0.00060910 Ry

     total magnetization       =    -0.00 Bohr mag/cell
     absolute magnetization    =     8.07 Bohr mag/cell

     iteration #  2     ecut=    60.00 Ry     beta= 0.70
     Davidson diagonalization with overlap

---- Real-time Memory Report at c_bands before calling an iterative solver
          1902 MiB given to the printing process from OS
             0 MiB allocation reported by mallinfo(arena+hblkhd)
          6885 MiB available memory on the node where the printing process lives
------------------
     ethr =  1.16E-07,  avg # of iterations =  3.9

     negative rho (up, down):  3.806E-04 3.806E-04

     total cpu time spent up to now is    19796.7 secs

     total energy              =   -5262.52872984 Ry
     estimated scf accuracy    <       0.00007320 Ry

     total magnetization       =    -0.00 Bohr mag/cell
     absolute magnetization    =     8.07 Bohr mag/cell

     iteration #  3     ecut=    60.00 Ry     beta= 0.70
     Davidson diagonalization with overlap

---- Real-time Memory Report at c_bands before calling an iterative solver
          1908 MiB given to the printing process from OS
             0 MiB allocation reported by mallinfo(arena+hblkhd)
          6833 MiB available memory on the node where the printing process lives
------------------
     ethr =  1.40E-08,  avg # of iterations =  9.1

     negative rho (up, down):  3.801E-04 3.801E-04

     total cpu time spent up to now is    22763.1 secs

     total energy              =   -5262.52879331 Ry
     estimated scf accuracy    <       0.00004910 Ry

     total magnetization       =     0.00 Bohr mag/cell
     absolute magnetization    =     8.07 Bohr mag/cell

     iteration #  4     ecut=    60.00 Ry     beta= 0.70
     Davidson diagonalization with overlap

---- Real-time Memory Report at c_bands before calling an iterative solver
          1913 MiB given to the printing process from OS
             0 MiB allocation reported by mallinfo(arena+hblkhd)
          6805 MiB available memory on the node where the printing process lives
------------------
     ethr =  9.37E-09,  avg # of iterations =  6.1

     negative rho (up, down):  3.804E-04 3.803E-04

     total cpu time spent up to now is    24425.6 secs

     total energy              =   -5262.52880534 Ry
     estimated scf accuracy    <       0.00000601 Ry

     total magnetization       =     0.00 Bohr mag/cell
     absolute magnetization    =     8.08 Bohr mag/cell

     iteration #  5     ecut=    60.00 Ry     beta= 0.70
     Davidson diagonalization with overlap

---- Real-time Memory Report at c_bands before calling an iterative solver
          1918 MiB given to the printing process from OS
             0 MiB allocation reported by mallinfo(arena+hblkhd)
          6775 MiB available memory on the node where the printing process lives
------------------
     ethr =  1.15E-09,  avg # of iterations =  8.5

     negative rho (up, down):  3.803E-04 3.803E-04

     total cpu time spent up to now is    27997.6 secs

     total energy              =   -5262.52881180 Ry
     estimated scf accuracy    <       0.00000425 Ry

     total magnetization       =     0.00 Bohr mag/cell
     absolute magnetization    =     8.07 Bohr mag/cell

     iteration #  6     ecut=    60.00 Ry     beta= 0.70
     Davidson diagonalization with overlap

---- Real-time Memory Report at c_bands before calling an iterative solver
          1923 MiB given to the printing process from OS
             0 MiB allocation reported by mallinfo(arena+hblkhd)
          6752 MiB available memory on the node where the printing process lives
------------------
     ethr =  8.11E-10,  avg # of iterations =  3.0

     negative rho (up, down):  3.803E-04 3.803E-04

     Magnetic moment per site  (integrated on atomic sphere of radius R)
     atom   1 (R=0.107)  charge=  7.5391  magn=  0.0000
     atom   2 (R=0.107)  charge=  7.5391  magn= -0.0000
     atom   3 (R=0.107)  charge=  7.5436  magn=  0.0000
     atom   4 (R=0.107)  charge=  7.5436  magn=  0.0000
     atom   5 (R=0.079)  charge=  8.1111  magn= -0.0003
     atom   6 (R=0.079)  charge=  8.1111  magn=  0.0003
     atom   7 (R=0.079)  charge=  8.1073  magn= -0.0001
     atom   8 (R=0.079)  charge=  8.1073  magn=  0.0001
     atom   9 (R=0.079)  charge=  8.1103  magn= -0.0000
     atom  10 (R=0.079)  charge=  8.1103  magn= -0.0000
     atom  11 (R=0.079)  charge=  8.1062  magn=  0.0000
     atom  12 (R=0.079)  charge=  8.1062  magn=  0.0000
     atom  13 (R=0.079)  charge=  8.1137  magn=  0.0000
     atom  14 (R=0.079)  charge=  8.1137  magn=  0.0000
     atom  15 (R=0.063)  charge=  0.5508  magn=  0.0008
     atom  16 (R=0.063)  charge=  0.5508  magn= -0.0008
     atom  17 (R=0.063)  charge=  0.5508  magn= -0.0008
     atom  18 (R=0.063)  charge=  0.5508  magn=  0.0008
     atom  19 (R=0.063)  charge=  0.5434  magn=  0.0000
     atom  20 (R=0.063)  charge=  0.5434  magn= -0.0000
     atom  21 (R=0.063)  charge=  0.5434  magn= -0.0000
     atom  22 (R=0.063)  charge=  0.5434  magn=  0.0000
     atom  23 (R=0.063)  charge=  0.5431  magn= -0.0000
     atom  24 (R=0.063)  charge=  0.5431  magn=  0.0000
     atom  25 (R=0.063)  charge=  0.5431  magn=  0.0000
     atom  26 (R=0.063)  charge=  0.5431  magn= -0.0000
     atom  27 (R=0.068)  charge=  0.3432  magn=  0.0013
     atom  28 (R=0.068)  charge=  0.3432  magn= -0.0013
     atom  29 (R=0.068)  charge=  0.3432  magn= -0.0013
     atom  30 (R=0.068)  charge=  0.3432  magn=  0.0013
     atom  31 (R=0.037)  charge=  1.9372  magn=  0.0151
     atom  32 (R=0.037)  charge=  1.9372  magn= -0.0151
     atom  33 (R=0.037)  charge=  1.9372  magn= -0.0151
     atom  34 (R=0.037)  charge=  1.9372  magn=  0.0151
     atom  35 (R=0.037)  charge=  1.9407  magn= -0.0004
     atom  36 (R=0.037)  charge=  1.9407  magn=  0.0004
     atom  37 (R=0.037)  charge=  1.9407  magn=  0.0004
     atom  38 (R=0.037)  charge=  1.9407  magn= -0.0004
     atom  39 (R=0.037)  charge=  1.9399  magn=  0.0003
     atom  40 (R=0.037)  charge=  1.9399  magn= -0.0003
     atom  41 (R=0.037)  charge=  1.9399  magn= -0.0003
     atom  42 (R=0.037)  charge=  1.9399  magn=  0.0003
     atom  43 (R=0.037)  charge=  1.9321  magn=  0.0274
     atom  44 (R=0.037)  charge=  1.9321  magn= -0.0274
     atom  45 (R=0.037)  charge=  1.9321  magn= -0.0274
     atom  46 (R=0.037)  charge=  1.9321  magn=  0.0274
     atom  47 (R=0.037)  charge=  1.9389  magn= -0.0003
     atom  48 (R=0.037)  charge=  1.9389  magn=  0.0003
     atom  49 (R=0.037)  charge=  1.9389  magn=  0.0003
     atom  50 (R=0.037)  charge=  1.9389  magn= -0.0003
     atom  51 (R=0.037)  charge=  1.9439  magn=  0.0008
     atom  52 (R=0.037)  charge=  1.9439  magn= -0.0008
     atom  53 (R=0.037)  charge=  1.9439  magn= -0.0008
     atom  54 (R=0.037)  charge=  1.9439  magn=  0.0008
     atom  55 (R=0.037)  charge=  1.9465  magn= -0.0001
     atom  56 (R=0.037)  charge=  1.9465  magn=  0.0001
     atom  57 (R=0.037)  charge=  1.9465  magn=  0.0001
     atom  58 (R=0.037)  charge=  1.9465  magn= -0.0001
     atom  59 (R=0.037)  charge=  1.9462  magn= -0.0001
     atom  60 (R=0.037)  charge=  1.9462  magn=  0.0001
     atom  61 (R=0.037)  charge=  1.9462  magn=  0.0001
     atom  62 (R=0.037)  charge=  1.9462  magn= -0.0001
     atom  63 (R=0.037)  charge=  1.9407  magn= -0.0003
     atom  64 (R=0.037)  charge=  1.9407  magn=  0.0003
     atom  65 (R=0.037)  charge=  1.9407  magn=  0.0003
     atom  66 (R=0.037)  charge=  1.9407  magn= -0.0003
     atom  67 (R=0.037)  charge=  1.9396  magn= -0.0001
     atom  68 (R=0.037)  charge=  1.9396  magn=  0.0001
     atom  69 (R=0.037)  charge=  1.9396  magn=  0.0001
     atom  70 (R=0.037)  charge=  1.9396  magn= -0.0001
     atom  71 (R=0.037)  charge=  1.9378  magn=  0.0206
     atom  72 (R=0.037)  charge=  1.9378  magn= -0.0206
     atom  73 (R=0.037)  charge=  1.9378  magn= -0.0206
     atom  74 (R=0.037)  charge=  1.9378  magn=  0.0206
     atom  75 (R=0.037)  charge=  1.9423  magn=  0.0002
     atom  76 (R=0.037)  charge=  1.9423  magn= -0.0002
     atom  77 (R=0.037)  charge=  1.9423  magn= -0.0002
     atom  78 (R=0.037)  charge=  1.9423  magn=  0.0002
     atom  79 (R=0.037)  charge=  0.3999  magn=  0.0001
     atom  80 (R=0.037)  charge=  0.3999  magn= -0.0001
     atom  81 (R=0.037)  charge=  0.3999  magn= -0.0001
     atom  82 (R=0.037)  charge=  0.3999  magn=  0.0001
     atom  83 (R=0.037)  charge=  0.3998  magn= -0.0000
     atom  84 (R=0.037)  charge=  0.3998  magn=  0.0000
     atom  85 (R=0.037)  charge=  0.3998  magn=  0.0000
     atom  86 (R=0.037)  charge=  0.3998  magn= -0.0000
     atom  87 (R=0.078)  charge= 13.2586  magn=  3.2750
     atom  88 (R=0.078)  charge= 13.2587  magn= -3.2751

     total cpu time spent up to now is    29536.0 secs

     End of self-consistent calculation

 ------ SPIN UP ------------


          k = 0.0000 0.0000 0.0000 ( 53617 PWs)   bands (ev):

   -81.5357 -77.4119 -67.8958 -67.8958 -67.8728 -67.8726 -67.6790 -67.6788
   -67.5404 -67.5404 -67.3732 -67.3732 -48.5342 -47.2193 -47.0220 -43.8271
   -43.4825 -43.3990 -34.6646 -34.6630 -34.6482 -34.6440 -34.6405 -34.6372
   -34.6309 -34.6292 -34.6284 -34.6270 -34.6080 -34.6077 -34.4442 -34.4438
   -34.4343 -34.4341 -34.4141 -34.4139 -34.3002 -34.3000 -34.2916 -34.2915
   -34.2842 -34.2841 -34.1361 -34.1359 -34.1233 -34.1231 -34.1159 -34.1157
   -23.4908 -23.4904 -23.4631 -23.4626 -15.2372 -15.1928 -14.8643 -14.8315
   -14.6108 -14.5809 -14.3184 -14.2799 -14.0536 -14.0283 -13.7898 -13.7745
   -13.6150 -13.5088 -13.4414 -13.3463 -13.3190 -13.2800 -13.2204 -13.2203
   -13.1600 -13.1425 -13.1046 -13.0988 -13.0754 -13.0639 -13.0432 -13.0373
   -12.9568 -12.9348 -12.8691 -12.8346 -12.7996 -12.7760 -12.7110 -12.6830
   -12.6501 -12.6019 -12.5352 -12.5173 -12.4374 -12.3752 -12.3447 -12.2966
   -11.7606 -11.6839 -11.5213 -11.4462  -7.0452  -7.0377  -7.0102  -7.0035
    -6.9604  -6.9579  -6.9577  -6.9484  -6.9443  -6.9419  -6.9347  -6.9323
    -4.5019  -4.4610  -3.5332  -3.4757  -3.0311  -2.9702  -2.6200  -2.5384
    -2.0120  -1.9382  -1.8628  -1.5411  -1.4838  -1.4373  -1.3774  -1.3568
    -1.2707  -1.2143  -1.1254  -1.1089  -0.9665  -0.9031  -0.8443  -0.8358
    -0.7757  -0.5807  -0.5512  -0.5160  -0.4409  -0.4057  -0.3692  -0.3122
    -0.2010  -0.1994  -0.1688  -0.1104  -0.0017   0.1769   0.1880   0.2125
     0.2569   0.3087   0.3254   0.3537   0.4596   0.4815   0.4961   0.6319
     0.6930   0.6973   0.7939   0.8355   0.8711   0.9070   0.9284   1.0275
     1.1674   1.2043   1.2591   1.2638   1.2653   1.2921   1.3089   1.4235
     1.4300   1.4913   1.4920   1.5730   1.5857   1.6314   1.6832   1.8557
     1.8711   1.9032   1.9034   1.9488   1.9890   2.0212   2.0433   2.1603
     2.1661   2.1904   2.2577   2.2801   2.3527   2.3846   2.3885   2.3980
     2.4268   2.4843   2.4945   2.5248   2.5562   2.5837   2.5852   2.6250
     2.6342   2.6470   2.7093   2.7737   2.7791   2.8109   2.8186   2.8358
     2.8613   2.8953   2.9130   2.9543   3.0002   3.0139   3.0687   3.0898
     3.0949   3.1363   3.1382   3.1669   3.1713   3.1804   3.2185   3.2287
     3.2323   3.2875   3.3184   3.3268   3.3390   3.3634   3.3809   3.4246
     3.4611   3.5123   3.5270   3.5471   3.5490   3.6084   3.6373   3.6382
     3.6696   3.6715   3.6971   3.8376   3.8846   3.9482   4.0667   4.1183
     4.9932   5.1142   6.0219   6.4737   6.7206   7.8550   8.6201   8.6396
     8.7286   9.6437  10.1016  10.2430  10.7407  10.7701  10.8673  11.1720
    11.2763  11.3934  11.5669  11.5867  11.6084  11.6676  11.8159  12.0981
    12.1471  12.1794  12.2408  12.3409  12.4403  12.6216  12.6277  12.7243
    12.7802  12.8200  12.8309  12.8762  12.9489  12.9879  13.1087  13.1178
    13.1737  13.2251  13.2764  13.3924  13.4353  13.4384  13.5061  13.5237
    13.5485  13.5639  13.5767  13.6463  13.6724  13.6927  13.7255  13.8619
    13.9592  14.0310

     occupation numbers 
     1.0000   1.0000   1.0000   1.0000   1.0000   1.0000   1.0000   1.0000
     1.0000   1.0000   1.0000   1.0000   1.0000   1.0000   1.0000   1.0000
     1.0000   1.0000   1.0000   1.0000   1.0000   1.0000   1.0000   1.0000
     1.0000   1.0000   1.0000   1.0000   1.0000   1.0000   1.0000   1.0000
     1.0000   1.0000   1.0000   1.0000   1.0000   1.0000   1.0000   1.0000
     1.0000   1.0000   1.0000   1.0000   1.0000   1.0000   1.0000   1.0000
     1.0000   1.0000   1.0000   1.0000   1.0000   1.0000   1.0000   1.0000
     1.0000   1.0000   1.0000   1.0000   1.0000   1.0000   1.0000   1.0000
     1.0000   1.0000   1.0000   1.0000   1.0000   1.0000   1.0000   1.0000
     1.0000   1.0000   1.0000   1.0000   1.0000   1.0000   1.0000   1.0000
     1.0000   1.0000   1.0000   1.0000   1.0000   1.0000   1.0000   1.0000
     1.0000   1.0000   1.0000   1.0000   1.0000   1.0000   1.0000   1.0000
     1.0000   1.0000   1.0000   1.0000   1.0000   1.0000   1.0000   1.0000
     1.0000   1.0000   1.0000   1.0000   1.0000   1.0000   1.0000   1.0000
     1.0000   1.0000   1.0000   1.0000   1.0000   1.0000   1.0000   1.0000
     1.0000   1.0000   1.0000   1.0000   1.0000   1.0000   1.0000   1.0000
     1.0000   1.0000   1.0000   1.0000   1.0000   1.0000   1.0000   1.0000
     1.0000   1.0000   1.0000   1.0000   1.0000   1.0000   1.0000   1.0000
     1.0000   1.0000   1.0000   1.0000   1.0000   1.0000   1.0000   1.0000
     1.0000   1.0000   1.0000   1.0000   1.0000   1.0000   1.0000   1.0000
     1.0000   1.0000   1.0000   1.0000   1.0000   1.0000   1.0000   1.0000
     1.0000   1.0000   1.0000   1.0000   1.0000   1.0000   1.0000   1.0000
     1.0000   1.0000   1.0000   1.0000   1.0000   1.0000   1.0000   1.0000
     1.0000   1.0000   1.0000   1.0000   1.0000   1.0000   1.0000   1.0000
     1.0000   1.0000   1.0000   1.0000   1.0000   1.0000   1.0000   1.0000
     1.0000   1.0000   1.0000   1.0000   1.0000   1.0000   1.0000   1.0000
     1.0000   1.0000   1.0000   1.0000   1.0000   1.0000   1.0000   1.0000
     1.0000   1.0000   1.0000   1.0000   1.0000   1.0000   1.0000   1.0000
     1.0000   1.0000   1.0000   1.0000   1.0000   1.0000   1.0000   1.0000
     1.0000   1.0000   1.0000   1.0000   1.0000   1.0000   1.0000   1.0000
     1.0000   1.0000   1.0000   1.0000   1.0000   1.0000   1.0000   1.0000
     1.0000   1.0000   1.0000   1.0000   1.0000   1.0000   1.0000   1.0000
     1.0000   1.0000   1.0000   1.0000   1.0000   1.0000   0.0000   0.0000
     0.0000   0.0000   0.0000   0.0000   0.0000   0.0000   0.0000   0.0000
     0.0000   0.0000   0.0000   0.0000   0.0000   0.0000   0.0000   0.0000
     0.0000   0.0000   0.0000   0.0000   0.0000   0.0000   0.0000   0.0000
     0.0000   0.0000   0.0000   0.0000   0.0000   0.0000   0.0000   0.0000
     0.0000   0.0000   0.0000   0.0000   0.0000   0.0000   0.0000   0.0000
     0.0000   0.0000   0.0000   0.0000   0.0000   0.0000   0.0000   0.0000
     0.0000   0.0000

          k = 0.0000 0.0000 0.3467 ( 53576 PWs)   bands (ev):

   -81.5357 -77.4119 -67.8958 -67.8958 -67.8728 -67.8726 -67.6790 -67.6788
   -67.5404 -67.5404 -67.3732 -67.3732 -48.5341 -47.2193 -47.0220 -43.8271
   -43.4825 -43.3990 -34.6646 -34.6630 -34.6482 -34.6440 -34.6405 -34.6371
   -34.6309 -34.6292 -34.6284 -34.6270 -34.6080 -34.6077 -34.4442 -34.4437
   -34.4343 -34.4341 -34.4141 -34.4139 -34.3001 -34.3000 -34.2916 -34.2915
   -34.2842 -34.2841 -34.1360 -34.1359 -34.1233 -34.1231 -34.1159 -34.1157
   -23.4908 -23.4904 -23.4631 -23.4626 -15.2273 -15.2032 -14.8574 -14.8388
   -14.6040 -14.5878 -14.3090 -14.2898 -14.0506 -14.0314 -13.7901 -13.7742
   -13.6066 -13.5228 -13.4364 -13.3466 -13.3169 -13.2781 -13.2184 -13.2128
   -13.1646 -13.1567 -13.1031 -13.0951 -13.0761 -13.0617 -13.0483 -13.0323
   -12.9557 -12.9307 -12.8685 -12.8374 -12.7977 -12.7832 -12.7062 -12.6710
   -12.6550 -12.6109 -12.5374 -12.5148 -12.4327 -12.3694 -12.3498 -12.3018
   -11.7604 -11.6831 -11.5221 -11.4467  -7.0452  -7.0377  -7.0103  -7.0035
    -6.9604  -6.9579  -6.9577  -6.9484  -6.9443  -6.9418  -6.9346  -6.9323
    -4.4986  -4.4646  -3.5191  -3.4902  -3.0172  -2.9859  -2.6011  -2.5602
    -1.9878  -1.9271  -1.8748  -1.5319  -1.4771  -1.4394  -1.3833  -1.3512
    -1.2680  -1.2264  -1.1248  -1.0985  -0.9495  -0.9083  -0.8510  -0.8183
    -0.7904  -0.5907  -0.5313  -0.5067  -0.4544  -0.4487  -0.3782  -0.3373
    -0.2410  -0.2233  -0.1414  -0.0929  -0.0429   0.1642   0.1775   0.2189
     0.2518   0.2819   0.3214   0.3381   0.4576   0.5114   0.5219   0.6145
     0.7072   0.7374   0.8097   0.8474   0.9133   0.9262   0.9578   0.9897
     1.1507   1.1683   1.2008   1.2672   1.2864   1.3394   1.3661   1.3851
     1.4307   1.4501   1.5646   1.6086   1.6381   1.6450   1.7807   1.8449
     1.8812   1.8972   1.9174   1.9452   1.9769   2.0055   2.0718   2.1269
     2.1491   2.1879   2.2175   2.2717   2.2979   2.3511   2.3744   2.3904
     2.3969   2.4361   2.5056   2.5307   2.5469   2.5500   2.5705   2.6001
     2.6242   2.6844   2.7401   2.7647   2.7991   2.8116   2.8366   2.8603
     2.8647   2.8868   2.9251   2.9577   2.9839   3.0521   3.0588   3.0843
     3.1038   3.1344   3.1441   3.1594   3.1785   3.1797   3.2184   3.2320
     3.2728   3.2910   3.3115   3.3433   3.3542   3.3613   3.3661   3.4127
     3.4294   3.4446   3.4834   3.5316   3.5674   3.5922   3.6128   3.6597
     3.6696   3.6856   3.7218   3.8505   3.9203   3.9517   4.0669   4.1148
     4.9910   5.1140   6.0214   6.4730   6.7229   7.8546   8.6186   8.6450
     9.0235   9.6217   9.7810  10.1133  10.6669  10.8912  10.9806  11.1294
    11.2081  11.3746  11.3959  11.6970  11.7059  11.7362  11.7497  12.1471
    12.1878  12.2039  12.2990  12.3178  12.4566  12.6210  12.6820  12.7190
    12.7960  12.8362  12.8969  12.9095  12.9525  12.9856  13.0430  13.1068
    13.1243  13.1969  13.3059  13.3148  13.3361  13.4492  13.4758  13.4880
    13.5339  13.5626  13.5871  13.6221  13.7371  13.7519  13.7737  13.8064
    13.9157  13.9630

     occupation numbers 
     1.0000   1.0000   1.0000   1.0000   1.0000   1.0000   1.0000   1.0000
     1.0000   1.0000   1.0000   1.0000   1.0000   1.0000   1.0000   1.0000
     1.0000   1.0000   1.0000   1.0000   1.0000   1.0000   1.0000   1.0000
     1.0000   1.0000   1.0000   1.0000   1.0000   1.0000   1.0000   1.0000
     1.0000   1.0000   1.0000   1.0000   1.0000   1.0000   1.0000   1.0000
     1.0000   1.0000   1.0000   1.0000   1.0000   1.0000   1.0000   1.0000
     1.0000   1.0000   1.0000   1.0000   1.0000   1.0000   1.0000   1.0000
     1.0000   1.0000   1.0000   1.0000   1.0000   1.0000   1.0000   1.0000
     1.0000   1.0000   1.0000   1.0000   1.0000   1.0000   1.0000   1.0000
     1.0000   1.0000   1.0000   1.0000   1.0000   1.0000   1.0000   1.0000
     1.0000   1.0000   1.0000   1.0000   1.0000   1.0000   1.0000   1.0000
     1.0000   1.0000   1.0000   1.0000   1.0000   1.0000   1.0000   1.0000
     1.0000   1.0000   1.0000   1.0000   1.0000   1.0000   1.0000   1.0000
     1.0000   1.0000   1.0000   1.0000   1.0000   1.0000   1.0000   1.0000
     1.0000   1.0000   1.0000   1.0000   1.0000   1.0000   1.0000   1.0000
     1.0000   1.0000   1.0000   1.0000   1.0000   1.0000   1.0000   1.0000
     1.0000   1.0000   1.0000   1.0000   1.0000   1.0000   1.0000   1.0000
     1.0000   1.0000   1.0000   1.0000   1.0000   1.0000   1.0000   1.0000
     1.0000   1.0000   1.0000   1.0000   1.0000   1.0000   1.0000   1.0000
     1.0000   1.0000   1.0000   1.0000   1.0000   1.0000   1.0000   1.0000
     1.0000   1.0000   1.0000   1.0000   1.0000   1.0000   1.0000   1.0000
     1.0000   1.0000   1.0000   1.0000   1.0000   1.0000   1.0000   1.0000
     1.0000   1.0000   1.0000   1.0000   1.0000   1.0000   1.0000   1.0000
     1.0000   1.0000   1.0000   1.0000   1.0000   1.0000   1.0000   1.0000
     1.0000   1.0000   1.0000   1.0000   1.0000   1.0000   1.0000   1.0000
     1.0000   1.0000   1.0000   1.0000   1.0000   1.0000   1.0000   1.0000
     1.0000   1.0000   1.0000   1.0000   1.0000   1.0000   1.0000   1.0000
     1.0000   1.0000   1.0000   1.0000   1.0000   1.0000   1.0000   1.0000
     1.0000   1.0000   1.0000   1.0000   1.0000   1.0000   1.0000   1.0000
     1.0000   1.0000   1.0000   1.0000   1.0000   1.0000   1.0000   1.0000
     1.0000   1.0000   1.0000   1.0000   1.0000   1.0000   1.0000   1.0000
     1.0000   1.0000   1.0000   1.0000   1.0000   1.0000   1.0000   1.0000
     1.0000   1.0000   1.0000   1.0000   1.0000   1.0000   0.0000   0.0000
     0.0000   0.0000   0.0000   0.0000   0.0000   0.0000   0.0000   0.0000
     0.0000   0.0000   0.0000   0.0000   0.0000   0.0000   0.0000   0.0000
     0.0000   0.0000   0.0000   0.0000   0.0000   0.0000   0.0000   0.0000
     0.0000   0.0000   0.0000   0.0000   0.0000   0.0000   0.0000   0.0000
     0.0000   0.0000   0.0000   0.0000   0.0000   0.0000   0.0000   0.0000
     0.0000   0.0000   0.0000   0.0000   0.0000   0.0000   0.0000   0.0000
     0.0000   0.0000

          k = 0.0000 0.3833 0.0000 ( 53603 PWs)   bands (ev):

   -81.5357 -77.4119 -67.8958 -67.8958 -67.8728 -67.8726 -67.6790 -67.6788
   -67.5404 -67.5404 -67.3732 -67.3732 -48.5342 -47.2193 -47.0220 -43.8271
   -43.4825 -43.3990 -34.6646 -34.6630 -34.6482 -34.6440 -34.6405 -34.6371
   -34.6309 -34.6292 -34.6284 -34.6270 -34.6080 -34.6077 -34.4442 -34.4437
   -34.4343 -34.4341 -34.4141 -34.4139 -34.3002 -34.3000 -34.2916 -34.2914
   -34.2842 -34.2841 -34.1360 -34.1359 -34.1233 -34.1231 -34.1159 -34.1157
   -23.4908 -23.4904 -23.4631 -23.4626 -15.2319 -15.1879 -14.8634 -14.8302
   -14.6104 -14.5805 -14.3539 -14.3112 -14.0578 -14.0332 -13.7899 -13.7746
   -13.5238 -13.4298 -13.4035 -13.3391 -13.3255 -13.2860 -13.2425 -13.2071
   -13.1609 -13.1504 -13.1464 -13.1247 -13.1073 -13.0900 -13.0644 -13.0450
   -12.9467 -12.9401 -12.8602 -12.8315 -12.8080 -12.7728 -12.6991 -12.6875
   -12.6460 -12.6069 -12.5348 -12.5171 -12.4327 -12.3738 -12.3420 -12.2954
   -11.7589 -11.6837 -11.5214 -11.4456  -7.0459  -7.0365  -7.0104  -7.0050
    -6.9595  -6.9575  -6.9569  -6.9484  -6.9452  -6.9419  -6.9353  -6.9322
    -4.4612  -4.4190  -3.5447  -3.4847  -3.0453  -2.9830  -2.7743  -2.6894
    -1.9561  -1.9138  -1.8398  -1.6049  -1.4782  -1.4228  -1.2635  -1.2608
    -1.1859  -1.1500  -1.1295  -1.1274  -0.9034  -0.8981  -0.8724  -0.8515
    -0.8115  -0.5302  -0.5051  -0.4997  -0.4354  -0.4136  -0.3502  -0.3246
    -0.2756  -0.2135  -0.2115  -0.0536   0.0009   0.1333   0.1718   0.2090
     0.2847   0.2893   0.3036   0.3268   0.3713   0.4474   0.5062   0.6361
     0.6608   0.6803   0.7286   0.8277   0.8998   0.9673   0.9813   1.0152
     1.1548   1.1623   1.2312   1.2756   1.2917   1.3368   1.3424   1.4045
     1.4373   1.4665   1.5017   1.5288   1.5755   1.6555   1.7554   1.8673
     1.8726   1.8935   1.9262   1.9297   2.0455   2.1147   2.1300   2.1704
     2.1789   2.2070   2.2238   2.2325   2.3096   2.3156   2.3370   2.3823
     2.4235   2.4822   2.5182   2.5625   2.5756   2.5843   2.6017   2.6126
     2.6801   2.6973   2.7275   2.7572   2.7779   2.7920   2.7951   2.8054
     2.9036   2.9051   2.9384   2.9695   2.9709   3.0147   3.0438   3.0748
     3.1112   3.1397   3.1526   3.1770   3.1939   3.2091   3.2256   3.2503
     3.2566   3.2669   3.3086   3.3139   3.3513   3.3675   3.3762   3.3941
     3.4159   3.4616   3.5216   3.5630   3.5641   3.5769   3.6227   3.6600
     3.6682   3.6750   3.7065   3.8355   3.8684   3.9028   3.9343   4.0502
     4.9937   5.1046   6.0292   6.4476   6.7339   7.8617   8.6187   8.6454
     9.1223   9.6598  10.0495  10.0602  10.5050  10.8290  10.9077  11.0644
    11.3504  11.3791  11.4390  11.4441  11.5345  11.8399  12.0020  12.0160
    12.1389  12.1848  12.2592  12.2972  12.3340  12.5149  12.7028  12.7107
    12.7599  12.8378  12.9005  12.9454  12.9807  13.0486  13.0673  13.1466
    13.1472  13.2065  13.3031  13.3068  13.3648  13.3736  13.4245  13.5273
    13.5397  13.6612  13.7147  13.7697  13.8531  13.8906  13.9219  13.9255
    13.9880  14.0001

     occupation numbers 
     1.0000   1.0000   1.0000   1.0000   1.0000   1.0000   1.0000   1.0000
     1.0000   1.0000   1.0000   1.0000   1.0000   1.0000   1.0000   1.0000
     1.0000   1.0000   1.0000   1.0000   1.0000   1.0000   1.0000   1.0000
     1.0000   1.0000   1.0000   1.0000   1.0000   1.0000   1.0000   1.0000
     1.0000   1.0000   1.0000   1.0000   1.0000   1.0000   1.0000   1.0000
     1.0000   1.0000   1.0000   1.0000   1.0000   1.0000   1.0000   1.0000
     1.0000   1.0000   1.0000   1.0000   1.0000   1.0000   1.0000   1.0000
     1.0000   1.0000   1.0000   1.0000   1.0000   1.0000   1.0000   1.0000
     1.0000   1.0000   1.0000   1.0000   1.0000   1.0000   1.0000   1.0000
     1.0000   1.0000   1.0000   1.0000   1.0000   1.0000   1.0000   1.0000
     1.0000   1.0000   1.0000   1.0000   1.0000   1.0000   1.0000   1.0000
     1.0000   1.0000   1.0000   1.0000   1.0000   1.0000   1.0000   1.0000
     1.0000   1.0000   1.0000   1.0000   1.0000   1.0000   1.0000   1.0000
     1.0000   1.0000   1.0000   1.0000   1.0000   1.0000   1.0000   1.0000
     1.0000   1.0000   1.0000   1.0000   1.0000   1.0000   1.0000   1.0000
     1.0000   1.0000   1.0000   1.0000   1.0000   1.0000   1.0000   1.0000
     1.0000   1.0000   1.0000   1.0000   1.0000   1.0000   1.0000   1.0000
     1.0000   1.0000   1.0000   1.0000   1.0000   1.0000   1.0000   1.0000
     1.0000   1.0000   1.0000   1.0000   1.0000   1.0000   1.0000   1.0000
     1.0000   1.0000   1.0000   1.0000   1.0000   1.0000   1.0000   1.0000
     1.0000   1.0000   1.0000   1.0000   1.0000   1.0000   1.0000   1.0000
     1.0000   1.0000   1.0000   1.0000   1.0000   1.0000   1.0000   1.0000
     1.0000   1.0000   1.0000   1.0000   1.0000   1.0000   1.0000   1.0000
     1.0000   1.0000   1.0000   1.0000   1.0000   1.0000   1.0000   1.0000
     1.0000   1.0000   1.0000   1.0000   1.0000   1.0000   1.0000   1.0000
     1.0000   1.0000   1.0000   1.0000   1.0000   1.0000   1.0000   1.0000
     1.0000   1.0000   1.0000   1.0000   1.0000   1.0000   1.0000   1.0000
     1.0000   1.0000   1.0000   1.0000   1.0000   1.0000   1.0000   1.0000
     1.0000   1.0000   1.0000   1.0000   1.0000   1.0000   1.0000   1.0000
     1.0000   1.0000   1.0000   1.0000   1.0000   1.0000   1.0000   1.0000
     1.0000   1.0000   1.0000   1.0000   1.0000   1.0000   1.0000   1.0000
     1.0000   1.0000   1.0000   1.0000   1.0000   1.0000   1.0000   1.0000
     1.0000   1.0000   1.0000   1.0000   1.0000   1.0000   0.0000   0.0000
     0.0000   0.0000   0.0000   0.0000   0.0000   0.0000   0.0000   0.0000
     0.0000   0.0000   0.0000   0.0000   0.0000   0.0000   0.0000   0.0000
     0.0000   0.0000   0.0000   0.0000   0.0000   0.0000   0.0000   0.0000
     0.0000   0.0000   0.0000   0.0000   0.0000   0.0000   0.0000   0.0000
     0.0000   0.0000   0.0000   0.0000   0.0000   0.0000   0.0000   0.0000
     0.0000   0.0000   0.0000   0.0000   0.0000   0.0000   0.0000   0.0000
     0.0000   0.0000

          k = 0.0000 0.3833 0.3467 ( 53607 PWs)   bands (ev):

   -81.5357 -77.4119 -67.8958 -67.8958 -67.8728 -67.8726 -67.6790 -67.6788
   -67.5404 -67.5404 -67.3732 -67.3732 -48.5342 -47.2193 -47.0220 -43.8271
   -43.4825 -43.3990 -34.6646 -34.6630 -34.6482 -34.6440 -34.6405 -34.6371
   -34.6309 -34.6292 -34.6284 -34.6270 -34.6080 -34.6077 -34.4442 -34.4438
   -34.4343 -34.4341 -34.4141 -34.4139 -34.3001 -34.3000 -34.2916 -34.2914
   -34.2842 -34.2841 -34.1360 -34.1359 -34.1233 -34.1231 -34.1160 -34.1157
   -23.4908 -23.4904 -23.4631 -23.4626 -15.2220 -15.1984 -14.8566 -14.8374
   -14.6037 -14.5873 -14.3440 -14.3218 -14.0538 -14.0373 -13.7902 -13.7743
   -13.5181 -13.4266 -13.4155 -13.3397 -13.3192 -13.2829 -13.2383 -13.2093
   -13.1683 -13.1579 -13.1519 -13.1170 -13.0975 -13.0912 -13.0649 -13.0451
   -12.9453 -12.9388 -12.8597 -12.8343 -12.8033 -12.7829 -12.6943 -12.6755
   -12.6508 -12.6154 -12.5372 -12.5146 -12.4278 -12.3681 -12.3470 -12.3004
   -11.7587 -11.6830 -11.5222 -11.4460  -7.0459  -7.0365  -7.0105  -7.0050
    -6.9595  -6.9575  -6.9569  -6.9483  -6.9452  -6.9418  -6.9352  -6.9322
    -4.4554  -4.4251  -3.5302  -3.4997  -3.0309  -2.9992  -2.7543  -2.7112
    -1.9351  -1.9040  -1.8497  -1.5967  -1.4741  -1.4248  -1.2635  -1.2592
    -1.1822  -1.1562  -1.1236  -1.1164  -0.9064  -0.8975  -0.8695  -0.8469
    -0.8173  -0.5626  -0.4925  -0.4731  -0.4358  -0.4203  -0.3883  -0.3511
    -0.2601  -0.2368  -0.2323  -0.0608  -0.0458   0.1396   0.1755   0.1900
     0.2736   0.2834   0.2873   0.3228   0.3744   0.4544   0.5393   0.6270
     0.6579   0.6972   0.7692   0.8259   0.8612   0.9807   1.0377   1.0604
     1.1334   1.1994   1.2274   1.2770   1.2961   1.3348   1.3818   1.3946
     1.4206   1.4589   1.5515   1.5949   1.6188   1.6360   1.7913   1.8380
     1.8589   1.8885   1.9324   1.9513   2.0347   2.1058   2.1349   2.1479
     2.1564   2.1941   2.2099   2.2369   2.2655   2.3181   2.3285   2.3791
     2.4041   2.4379   2.5258   2.5405   2.5464   2.5641   2.5798   2.6141
     2.6842   2.7121   2.7260   2.7412   2.7807   2.8016   2.8133   2.8343
     2.8925   2.9052   2.9388   2.9679   2.9853   3.0212   3.0433   3.0779
     3.0832   3.1425   3.1643   3.1824   3.2018   3.2209   3.2278   3.2576
     3.2655   3.2810   3.3230   3.3326   3.3444   3.3628   3.3675   3.3827
     3.4135   3.4446   3.4710   3.5312   3.5688   3.5848   3.6020   3.6554
     3.6631   3.6769   3.7287   3.8500   3.8747   3.9331   3.9475   4.0509
     4.9917   5.1040   6.0289   6.4451   6.7358   7.8615   8.6163   8.6461
     9.3764   9.6675   9.9693  10.1268  10.2760  10.7503  10.8218  10.9953
    11.2564  11.4318  11.4453  11.4533  11.4818  11.8423  11.9126  11.9481
    12.1847  12.2385  12.3568  12.3753  12.5468  12.6631  12.7141  12.7317
    12.7749  12.8484  12.9239  12.9664  13.0309  13.0812  13.0932  13.1742
    13.2109  13.2333  13.2715  13.3212  13.3906  13.4399  13.4582  13.4799
    13.5415  13.5907  13.6532  13.7096  13.7292  13.7540  13.8213  13.9022
    13.9214  13.9648

     occupation numbers 
     1.0000   1.0000   1.0000   1.0000   1.0000   1.0000   1.0000   1.0000
     1.0000   1.0000   1.0000   1.0000   1.0000   1.0000   1.0000   1.0000
     1.0000   1.0000   1.0000   1.0000   1.0000   1.0000   1.0000   1.0000
     1.0000   1.0000   1.0000   1.0000   1.0000   1.0000   1.0000   1.0000
     1.0000   1.0000   1.0000   1.0000   1.0000   1.0000   1.0000   1.0000
     1.0000   1.0000   1.0000   1.0000   1.0000   1.0000   1.0000   1.0000
     1.0000   1.0000   1.0000   1.0000   1.0000   1.0000   1.0000   1.0000
     1.0000   1.0000   1.0000   1.0000   1.0000   1.0000   1.0000   1.0000
     1.0000   1.0000   1.0000   1.0000   1.0000   1.0000   1.0000   1.0000
     1.0000   1.0000   1.0000   1.0000   1.0000   1.0000   1.0000   1.0000
     1.0000   1.0000   1.0000   1.0000   1.0000   1.0000   1.0000   1.0000
     1.0000   1.0000   1.0000   1.0000   1.0000   1.0000   1.0000   1.0000
     1.0000   1.0000   1.0000   1.0000   1.0000   1.0000   1.0000   1.0000
     1.0000   1.0000   1.0000   1.0000   1.0000   1.0000   1.0000   1.0000
     1.0000   1.0000   1.0000   1.0000   1.0000   1.0000   1.0000   1.0000
     1.0000   1.0000   1.0000   1.0000   1.0000   1.0000   1.0000   1.0000
     1.0000   1.0000   1.0000   1.0000   1.0000   1.0000   1.0000   1.0000
     1.0000   1.0000   1.0000   1.0000   1.0000   1.0000   1.0000   1.0000
     1.0000   1.0000   1.0000   1.0000   1.0000   1.0000   1.0000   1.0000
     1.0000   1.0000   1.0000   1.0000   1.0000   1.0000   1.0000   1.0000
     1.0000   1.0000   1.0000   1.0000   1.0000   1.0000   1.0000   1.0000
     1.0000   1.0000   1.0000   1.0000   1.0000   1.0000   1.0000   1.0000
     1.0000   1.0000   1.0000   1.0000   1.0000   1.0000   1.0000   1.0000
     1.0000   1.0000   1.0000   1.0000   1.0000   1.0000   1.0000   1.0000
     1.0000   1.0000   1.0000   1.0000   1.0000   1.0000   1.0000   1.0000
     1.0000   1.0000   1.0000   1.0000   1.0000   1.0000   1.0000   1.0000
     1.0000   1.0000   1.0000   1.0000   1.0000   1.0000   1.0000   1.0000
     1.0000   1.0000   1.0000   1.0000   1.0000   1.0000   1.0000   1.0000
     1.0000   1.0000   1.0000   1.0000   1.0000   1.0000   1.0000   1.0000
     1.0000   1.0000   1.0000   1.0000   1.0000   1.0000   1.0000   1.0000
     1.0000   1.0000   1.0000   1.0000   1.0000   1.0000   1.0000   1.0000
     1.0000   1.0000   1.0000   1.0000   1.0000   1.0000   1.0000   1.0000
     1.0000   1.0000   1.0000   1.0000   1.0000   1.0000   0.0000   0.0000
     0.0000   0.0000   0.0000   0.0000   0.0000   0.0000   0.0000   0.0000
     0.0000   0.0000   0.0000   0.0000   0.0000   0.0000   0.0000   0.0000
     0.0000   0.0000   0.0000   0.0000   0.0000   0.0000   0.0000   0.0000
     0.0000   0.0000   0.0000   0.0000   0.0000   0.0000   0.0000   0.0000
     0.0000   0.0000   0.0000   0.0000   0.0000   0.0000   0.0000   0.0000
     0.0000   0.0000   0.0000   0.0000   0.0000   0.0000   0.0000   0.0000
     0.0000   0.0000

          k = 0.3333 0.0000 0.0604 ( 53607 PWs)   bands (ev):

   -81.5357 -77.4119 -67.8958 -67.8958 -67.8728 -67.8726 -67.6790 -67.6788
   -67.5404 -67.5404 -67.3732 -67.3732 -48.5342 -47.2193 -47.0220 -43.8271
   -43.4825 -43.3990 -34.6642 -34.6634 -34.6473 -34.6453 -34.6394 -34.6378
   -34.6307 -34.6300 -34.6277 -34.6271 -34.6080 -34.6078 -34.4442 -34.4438
   -34.4343 -34.4341 -34.4141 -34.4139 -34.3001 -34.3001 -34.2916 -34.2915
   -34.2842 -34.2841 -34.1360 -34.1359 -34.1233 -34.1232 -34.1159 -34.1158
   -23.4907 -23.4905 -23.4630 -23.4628 -15.1792 -15.1359 -15.0192 -14.9797
   -14.4521 -14.4237 -14.3345 -14.2998 -14.0320 -14.0057 -13.9107 -13.8873
   -13.5424 -13.4384 -13.4329 -13.3947 -13.3320 -13.2881 -13.2795 -13.2429
   -13.1643 -13.1181 -13.1047 -13.0807 -13.0561 -13.0479 -13.0416 -13.0290
   -12.9362 -12.9278 -12.8570 -12.8414 -12.7790 -12.7355 -12.7273 -12.6685
   -12.6642 -12.5938 -12.5933 -12.5557 -12.4247 -12.3791 -12.3366 -12.2932
   -11.7492 -11.6998 -11.5028 -11.4577  -7.0431  -7.0393  -7.0086  -7.0052
    -6.9599  -6.9586  -6.9553  -6.9507  -6.9439  -6.9427  -6.9340  -6.9328
    -4.3429  -4.2972  -3.9254  -3.8659  -2.7215  -2.6197  -2.5827  -2.4990
    -2.0222  -2.0150  -1.8834  -1.6573  -1.6061  -1.5888  -1.5082  -1.4431
    -1.0858  -1.0640  -1.0291  -1.0206  -0.9593  -0.9122  -0.9057  -0.8705
    -0.7269  -0.5949  -0.5442  -0.5208  -0.4831  -0.4246  -0.3601  -0.3209
    -0.2437  -0.1514  -0.1005  -0.0877  -0.0135   0.0313   0.1663   0.2030
     0.2706   0.2926   0.3738   0.3814   0.4511   0.4544   0.5292   0.5700
     0.6673   0.7921   0.8195   0.8952   0.9177   0.9290   0.9625   1.0011
     1.1245   1.1641   1.2290   1.2398   1.2960   1.3278   1.3442   1.3792
     1.3994   1.4487   1.4684   1.5976   1.6583   1.7258   1.7316   1.7602
     1.8127   1.8494   1.9377   2.0147   2.0570   2.0838   2.1116   2.1494
     2.1542   2.2026   2.2322   2.2743   2.3315   2.3384   2.3879   2.3903
     2.4397   2.4447   2.4672   2.4917   2.5193   2.5361   2.6112   2.6385
     2.6741   2.6865   2.7087   2.7265   2.7486   2.8187   2.8298   2.8484
     2.8931   2.9047   2.9338   2.9477   2.9687   3.0049   3.0222   3.0419
     3.0606   3.0989   3.1406   3.1488   3.1776   3.1894   3.2198   3.2436
     3.2783   3.2924   3.3445   3.3598   3.3830   3.4079   3.4408   3.4522
     3.4888   3.4997   3.5104   3.5381   3.5751   3.5901   3.6155   3.6222
     3.6309   3.6619   3.7282   3.7997   3.8601   3.8915   4.0064   4.0949
     4.9985   5.1161   6.0221   6.4734   6.7164   7.8550   8.6196   8.6459
     9.0300   9.5796   9.9438  10.1112  10.4177  10.8346  10.9531  11.1115
    11.3215  11.5705  11.5990  11.6530  11.7075  11.7960  11.9032  11.9961
    12.1917  12.3006  12.3442  12.3679  12.3977  12.5726  12.6213  12.6635
    12.7573  12.7915  12.8453  12.8605  12.9159  12.9581  13.1599  13.1679
    13.1805  13.1938  13.2440  13.3063  13.3210  13.3471  13.3493  13.3710
    13.5018  13.5848  13.6838  13.7268  13.7446  13.7873  13.8421  13.9108
    14.0150  14.0483

     occupation numbers 
     1.0000   1.0000   1.0000   1.0000   1.0000   1.0000   1.0000   1.0000
     1.0000   1.0000   1.0000   1.0000   1.0000   1.0000   1.0000   1.0000
     1.0000   1.0000   1.0000   1.0000   1.0000   1.0000   1.0000   1.0000
     1.0000   1.0000   1.0000   1.0000   1.0000   1.0000   1.0000   1.0000
     1.0000   1.0000   1.0000   1.0000   1.0000   1.0000   1.0000   1.0000
     1.0000   1.0000   1.0000   1.0000   1.0000   1.0000   1.0000   1.0000
     1.0000   1.0000   1.0000   1.0000   1.0000   1.0000   1.0000   1.0000
     1.0000   1.0000   1.0000   1.0000   1.0000   1.0000   1.0000   1.0000
     1.0000   1.0000   1.0000   1.0000   1.0000   1.0000   1.0000   1.0000
     1.0000   1.0000   1.0000   1.0000   1.0000   1.0000   1.0000   1.0000
     1.0000   1.0000   1.0000   1.0000   1.0000   1.0000   1.0000   1.0000
     1.0000   1.0000   1.0000   1.0000   1.0000   1.0000   1.0000   1.0000
     1.0000   1.0000   1.0000   1.0000   1.0000   1.0000   1.0000   1.0000
     1.0000   1.0000   1.0000   1.0000   1.0000   1.0000   1.0000   1.0000
     1.0000   1.0000   1.0000   1.0000   1.0000   1.0000   1.0000   1.0000
     1.0000   1.0000   1.0000   1.0000   1.0000   1.0000   1.0000   1.0000
     1.0000   1.0000   1.0000   1.0000   1.0000   1.0000   1.0000   1.0000
     1.0000   1.0000   1.0000   1.0000   1.0000   1.0000   1.0000   1.0000
     1.0000   1.0000   1.0000   1.0000   1.0000   1.0000   1.0000   1.0000
     1.0000   1.0000   1.0000   1.0000   1.0000   1.0000   1.0000   1.0000
     1.0000   1.0000   1.0000   1.0000   1.0000   1.0000   1.0000   1.0000
     1.0000   1.0000   1.0000   1.0000   1.0000   1.0000   1.0000   1.0000
     1.0000   1.0000   1.0000   1.0000   1.0000   1.0000   1.0000   1.0000
     1.0000   1.0000   1.0000   1.0000   1.0000   1.0000   1.0000   1.0000
     1.0000   1.0000   1.0000   1.0000   1.0000   1.0000   1.0000   1.0000
     1.0000   1.0000   1.0000   1.0000   1.0000   1.0000   1.0000   1.0000
     1.0000   1.0000   1.0000   1.0000   1.0000   1.0000   1.0000   1.0000
     1.0000   1.0000   1.0000   1.0000   1.0000   1.0000   1.0000   1.0000
     1.0000   1.0000   1.0000   1.0000   1.0000   1.0000   1.0000   1.0000
     1.0000   1.0000   1.0000   1.0000   1.0000   1.0000   1.0000   1.0000
     1.0000   1.0000   1.0000   1.0000   1.0000   1.0000   1.0000   1.0000
     1.0000   1.0000   1.0000   1.0000   1.0000   1.0000   1.0000   1.0000
     1.0000   1.0000   1.0000   1.0000   1.0000   1.0000   0.0000   0.0000
     0.0000   0.0000   0.0000   0.0000   0.0000   0.0000   0.0000   0.0000
     0.0000   0.0000   0.0000   0.0000   0.0000   0.0000   0.0000   0.0000
     0.0000   0.0000   0.0000   0.0000   0.0000   0.0000   0.0000   0.0000
     0.0000   0.0000   0.0000   0.0000   0.0000   0.0000   0.0000   0.0000
     0.0000   0.0000   0.0000   0.0000   0.0000   0.0000   0.0000   0.0000
     0.0000   0.0000   0.0000   0.0000   0.0000   0.0000   0.0000   0.0000
     0.0000   0.0000

          k = 0.3333 0.0000 0.4070 ( 53609 PWs)   bands (ev):

   -81.5357 -77.4119 -67.8958 -67.8958 -67.8728 -67.8726 -67.6790 -67.6788
   -67.5404 -67.5404 -67.3732 -67.3732 -48.5342 -47.2193 -47.0220 -43.8271
   -43.4825 -43.3990 -34.6642 -34.6634 -34.6473 -34.6453 -34.6394 -34.6378
   -34.6307 -34.6300 -34.6277 -34.6271 -34.6080 -34.6078 -34.4442 -34.4438
   -34.4343 -34.4341 -34.4141 -34.4139 -34.3001 -34.3001 -34.2916 -34.2915
   -34.2842 -34.2841 -34.1360 -34.1359 -34.1233 -34.1232 -34.1159 -34.1157
   -23.4907 -23.4905 -23.4630 -23.4628 -15.1668 -15.1490 -15.0150 -14.9841
   -14.4446 -14.4315 -14.3254 -14.3093 -14.0283 -14.0095 -13.9066 -13.8915
   -13.5345 -13.4482 -13.4362 -13.3895 -13.3266 -13.2913 -13.2826 -13.2403
   -13.1625 -13.1153 -13.1027 -13.0813 -13.0692 -13.0552 -13.0359 -13.0207
   -12.9349 -12.9243 -12.8583 -12.8444 -12.7729 -12.7455 -12.7229 -12.6743
   -12.6507 -12.6038 -12.5878 -12.5603 -12.4185 -12.3741 -12.3418 -12.2983
   -11.7487 -11.6991 -11.5035 -11.4583  -7.0432  -7.0394  -7.0086  -7.0052
    -6.9599  -6.9586  -6.9553  -6.9507  -6.9438  -6.9426  -6.9340  -6.9328
    -4.3446  -4.2957  -3.8998  -3.8923  -2.7131  -2.6295  -2.5656  -2.5194
    -2.0089  -1.9914  -1.8958  -1.6871  -1.5971  -1.5682  -1.4986  -1.4401
    -1.0819  -1.0590  -1.0337  -1.0211  -0.9378  -0.9120  -0.9105  -0.8849
    -0.7072  -0.5979  -0.5445  -0.5109  -0.4674  -0.4562  -0.4421  -0.3647
    -0.2409  -0.1247  -0.1129  -0.0640  -0.0576   0.0603   0.1215   0.1540
     0.2859   0.2927   0.3612   0.3794   0.4323   0.4851   0.5389   0.6180
     0.6504   0.8286   0.8441   0.8953   0.9167   0.9346   0.9937   1.0136
     1.1190   1.1291   1.2299   1.2525   1.2822   1.3230   1.3721   1.4175
     1.4262   1.4417   1.4778   1.6076   1.6909   1.7355   1.7536   1.7805
     1.8144   1.8935   1.9739   2.0201   2.0534   2.0585   2.0888   2.1210
     2.1297   2.1857   2.2084   2.2383   2.3161   2.3250   2.3470   2.3701
     2.4089   2.4622   2.4862   2.5013   2.5186   2.5541   2.5881   2.6051
     2.6388   2.6818   2.7200   2.7408   2.7894   2.8061   2.8217   2.8386
     2.9007   2.9221   2.9305   2.9537   2.9699   2.9951   3.0287   3.0718
     3.0852   3.1152   3.1170   3.1318   3.1639   3.1980   3.2241   3.2691
     3.2877   3.3028   3.3391   3.3659   3.3828   3.3938   3.4344   3.4472
     3.4517   3.4597   3.5000   3.5263   3.5543   3.5798   3.5979   3.6182
     3.6426   3.6605   3.7717   3.8091   3.8771   3.9214   4.0138   4.0933
     4.9959   5.1158   6.0216   6.4728   6.7180   7.8546   8.6185   8.6457
     9.3374   9.7044   9.8434   9.8964  10.1178  10.7727  11.0509  11.2285
    11.3414  11.4556  11.4962  11.6876  11.7611  11.8350  11.9035  11.9757
    12.1487  12.2427  12.3175  12.4364  12.4844  12.5856  12.6878  12.7313
    12.7861  12.8564  12.8761  12.9628  13.0008  13.0077  13.0495  13.0876
[...]
     atom    3 type  5   force =    -0.00000003   -0.00055614    0.00000001
     atom    4 type  5   force =     0.00000003   -0.00055614   -0.00000001
     atom    5 type  6   force =    -0.00000001    0.00045211    0.00000000
     atom    6 type  6   force =    -0.00000000    0.00045235    0.00000000
     atom    7 type  6   force =    -0.00000001   -0.00133719   -0.00000000
     atom    8 type  6   force =    -0.00000001   -0.00133716   -0.00000000
     atom    9 type  6   force =    -0.00000006   -0.00048734   -0.00000001
     atom   10 type  6   force =     0.00000007   -0.00048734    0.00000001
     atom   11 type  6   force =     0.00000006    0.00115595    0.00000001
     atom   12 type  6   force =    -0.00000005    0.00115595   -0.00000001
     atom   13 type  6   force =     0.00000010   -0.00031655    0.00000002
     atom   14 type  6   force =    -0.00000009   -0.00031655   -0.00000003
     atom   15 type  8   force =    -0.00001414   -0.00005978   -0.00012251
     atom   16 type  8   force =    -0.00001413   -0.00005979   -0.00012250
     atom   17 type  8   force =     0.00001413   -0.00005979    0.00012250
     atom   18 type  8   force =     0.00001415   -0.00005978    0.00012251
     atom   19 type  8   force =     0.00004322    0.00001811    0.00024958
     atom   20 type  8   force =     0.00004323    0.00001810    0.00024959
     atom   21 type  8   force =    -0.00004322    0.00001810   -0.00024959
     atom   22 type  8   force =    -0.00004321    0.00001811   -0.00024958
     atom   23 type  8   force =     0.00002058    0.00026181   -0.00024976
     atom   24 type  8   force =     0.00002060    0.00026182   -0.00024975
     atom   25 type  8   force =    -0.00002059    0.00026182    0.00024975
     atom   26 type  8   force =    -0.00002058    0.00026181    0.00024976
     atom   27 type  1   force =    -0.00013540    0.00003025   -0.00095235
     atom   28 type  1   force =    -0.00013541    0.00003026   -0.00095234
     atom   29 type  1   force =     0.00013541    0.00003026    0.00095235
     atom   30 type  1   force =     0.00013540    0.00003025    0.00095235
     atom   31 type  7   force =    -0.00005155    0.00012227    0.00050878
     atom   32 type  7   force =    -0.00005152    0.00012223    0.00050881
     atom   33 type  7   force =     0.00005152    0.00012223   -0.00050881
     atom   34 type  7   force =     0.00005155    0.00012227   -0.00050879
     atom   35 type  7   force =     0.00000143    0.00000496   -0.00038242
     atom   36 type  7   force =     0.00000143    0.00000498   -0.00038238
     atom   37 type  7   force =    -0.00000143    0.00000498    0.00038238
     atom   38 type  7   force =    -0.00000143    0.00000496    0.00038242
     atom   39 type  7   force =    -0.00001972   -0.00000256    0.00038782
     atom   40 type  7   force =    -0.00001974   -0.00000258    0.00038781
     atom   41 type  7   force =     0.00001974   -0.00000258   -0.00038781
     atom   42 type  7   force =     0.00001972   -0.00000256   -0.00038782
     atom   43 type  7   force =    -0.00007967   -0.00001163    0.00001601
     atom   44 type  7   force =    -0.00007967   -0.00001163    0.00001603
     atom   45 type  7   force =     0.00007966   -0.00001163   -0.00001603
     atom   46 type  7   force =     0.00007967   -0.00001163   -0.00001601
     atom   47 type  7   force =    -0.00019260    0.00106943    0.00023494
     atom   48 type  7   force =    -0.00019257    0.00106942    0.00023493
     atom   49 type  7   force =     0.00019257    0.00106942   -0.00023493
     atom   50 type  7   force =     0.00019260    0.00106943   -0.00023494
     atom   51 type  7   force =     0.00081188    0.00006654    0.00021729
     atom   52 type  7   force =     0.00081185    0.00006652    0.00021731
     atom   53 type  7   force =    -0.00081186    0.00006652   -0.00021731
     atom   54 type  7   force =    -0.00081188    0.00006654   -0.00021729
     atom   55 type  7   force =     0.00033823   -0.00048421   -0.00004048
     atom   56 type  7   force =     0.00033822   -0.00048420   -0.00004047
     atom   57 type  7   force =    -0.00033822   -0.00048421    0.00004047
     atom   58 type  7   force =    -0.00033823   -0.00048421    0.00004048
     atom   59 type  7   force =    -0.00014811    0.00023962    0.00002142
     atom   60 type  7   force =    -0.00014810    0.00023961    0.00002141
     atom   61 type  7   force =     0.00014810    0.00023960   -0.00002140
     atom   62 type  7   force =     0.00014811    0.00023962   -0.00002141
     atom   63 type  7   force =     0.00088609   -0.00042643    0.00039940
     atom   64 type  7   force =     0.00088609   -0.00042643    0.00039940
     atom   65 type  7   force =    -0.00088610   -0.00042643   -0.00039940
     atom   66 type  7   force =    -0.00088610   -0.00042643   -0.00039940
     atom   67 type  7   force =     0.00070030   -0.00065292   -0.00039501
     atom   68 type  7   force =     0.00070029   -0.00065289   -0.00039500
     atom   69 type  7   force =    -0.00070029   -0.00065289    0.00039500
     atom   70 type  7   force =    -0.00070029   -0.00065292    0.00039501
     atom   71 type  7   force =    -0.00011022   -0.00016925   -0.00036285
     atom   72 type  7   force =    -0.00011026   -0.00016923   -0.00036288
     atom   73 type  7   force =     0.00011026   -0.00016923    0.00036288
     atom   74 type  7   force =     0.00011022   -0.00016925    0.00036285
     atom   75 type  7   force =     0.00002027   -0.00000669   -0.00052520
     atom   76 type  7   force =     0.00002025   -0.00000668   -0.00052522
     atom   77 type  7   force =    -0.00002025   -0.00000668    0.00052522
     atom   78 type  7   force =    -0.00002028   -0.00000669    0.00052520
     atom   79 type  4   force =    -0.00008282    0.00017344   -0.00010198
     atom   80 type  4   force =    -0.00008282    0.00017340   -0.00010201
     atom   81 type  4   force =     0.00008282    0.00017339    0.00010201
     atom   82 type  4   force =     0.00008282    0.00017344    0.00010198
     atom   83 type  4   force =     0.00012028   -0.00047680   -0.00028732
     atom   84 type  4   force =     0.00012026   -0.00047680   -0.00028734
     atom   85 type  4   force =    -0.00012027   -0.00047680    0.00028733
     atom   86 type  4   force =    -0.00012029   -0.00047680    0.00028731
     atom   87 type  2   force =    -0.00000001    0.00065266   -0.00000000
     atom   88 type  3   force =    -0.00000001    0.00065260   -0.00000000

     Total force =     0.002573     Total SCF correction =     0.000125

     DFT-D3 dispersion Force =     0.006281


     Computing stress (Cartesian axis) and pressure


     negative rho (up, down):  3.793E-04 3.793E-04
          total   stress  (Ry/bohr**3)                   (kbar)     P=       -0.03
  -0.00000072   0.00000000  -0.00000063           -0.11        0.00       -0.09
   0.00000000   0.00000009   0.00000000            0.00        0.01        0.00
  -0.00000063   0.00000000   0.00000009           -0.09        0.00        0.01

     kinetic stress (kbar)  20086.89      0.00    -54.70
                                0.00  20175.76      0.00
                              -54.70      0.00  19870.66

     local   stress (kbar) -40651.25      0.00   -295.33
                                0.00 -39861.21     -0.00
                             -295.33     -0.00  19204.29

     nonloc. stress (kbar)   3808.88      0.00      7.01
                                0.00   3798.09      0.00
                                7.01      0.00   3786.48

     hartree stress (kbar)  22878.55      0.00    108.73
                                0.00  22559.05      0.00
                              108.73      0.00  -6355.07

     exc-cor stress (kbar)  -2823.78      0.00     -0.04
                                0.00  -2823.66      0.00
                               -0.04      0.00  -2820.65

     corecor stress (kbar)  -1859.48     -0.00      0.49
                               -0.00  -1860.19     -0.00
                                0.49     -0.00  -1861.44

     ewald   stress (kbar)  -1425.26     -0.00    233.77
                               -0.00  -1973.09      0.00
                              233.77      0.00 -31813.27

     hubbard stress (kbar)      0.00      0.00      0.00
                                0.00      0.00      0.00
                                0.00      0.00      0.00

     DFT-D   stress (kbar)    -14.66      0.00     -0.02
                                0.00    -14.73      0.00
                               -0.02      0.00    -10.98

     XDM     stress (kbar)      0.00      0.00      0.00
                                0.00      0.00      0.00
                                0.00      0.00      0.00

     dft-nl  stress (kbar)      0.00      0.00      0.00
                                0.00      0.00      0.00
                                0.00      0.00      0.00

     TS-vdW  stress (kbar)      0.00      0.00      0.00
                                0.00      0.00      0.00
                                0.00      0.00      0.00

     MDB     stress (kbar)      0.00      0.00      0.00
                                0.00      0.00      0.00
                                0.00      0.00      0.00

     3D-RISM stress (kbar)      0.00      0.00      0.00
                                0.00      0.00      0.00
                                0.00      0.00      0.00

     Energy error            =      1.4E-05 Ry
     Gradient error          =      4.7E-04 Ry/Bohr
     Cell gradient error     =      1.1E-01 kbar

     number of scf cycles    =   9
     number of bfgs steps    =   8

     enthalpy           old  =   -5262.5288545660 Ry
     enthalpy           new  =   -5262.5288685022 Ry

     CASE: enthalpy          _new < enthalpy          _old

     new trust radius        =       0.0043347607 bohr
ibrav =    -12
 celldm(1) =     20.13584931
 celldm(2) =      0.86948877
 celldm(3) =      0.97721673
 celldm(5) =     -0.17858666
Input lattice vectors:
     1.00003785     0.00000000    -0.00000839
     0.00000000     0.86952168     0.00000000
    -0.17451642     0.00000000     0.96154503
New lattice vectors in INITIAL alat:
     1.00003785     0.00000000     0.00000000
     0.00000000     0.86952168     0.00000000
    -0.17452448     0.00000000     0.96154357
New lattice vectors in NEW alat (for information only):
     1.00000000     0.00000000     0.00000000
     0.00000000     0.86948877     0.00000000
    -0.17451787     0.00000000     0.96150718
Discrepancy in bohr =     0.000008    0.000000    0.000008
     new conv_thr            =       0.0000000100 Ry

     new unit-cell volume =   6825.37257 a.u.^3 (  1011.41587 Ang^3 )
     density =      2.84379 g/cm^3

CELL_PARAMETERS (alat= 20.13508722)
   1.000037849   0.000000000   0.000000000
   0.000000000   0.869521677   0.000000000
  -0.174524479   0.000000000   0.961543567

ATOMIC_POSITIONS (crystal)
K                0.0000000000        0.4931052441        0.0000000000
K                0.5000000000        0.4931052334        0.0000000000
K                0.2499999938        0.0030547606       -0.0000000820
K                0.7500001262        0.0030547606        0.0000000820
Mg              -0.0000000000        0.0062768760        0.4999999400
Mg               0.5000000000        0.0062826173        0.4999999400
Mg              -0.0000000000        0.6670710608        0.4999999400
Mg               0.5000000000        0.6670705481        0.4999999400
Mg               0.2500004513        0.4958381316        0.5000008327
Mg               0.7499998167        0.4958381316        0.4999990473
Mg               0.2500017365        0.8355609869        0.5000002644
Mg               0.7499985315        0.8355609869        0.4999996156
Mg               0.2500024705        0.1705638674        0.5000021991
Mg               0.7499977975        0.1705638674        0.4999976809
Si               0.0463761656        0.1632883722        0.2250678687
Si               0.5463763781        0.1632885376        0.2250678533
Si               0.4536239199        0.1632885376        0.7749320577
Si               0.9536241354        0.1632883722        0.7749320423
Si               0.4668927822        0.8343538818        0.7674079902
Si               0.9668926467        0.8343535351        0.7674064797
Si               0.0331076443        0.8343535351        0.2325934013
Si               0.5331075458        0.8343538818        0.2325918908
Si               0.2828933721        0.6665073121        0.2311926715
Si               0.7828939690        0.6665077210        0.2311925190
Si               0.2171063290        0.6665077210        0.7688073620
Si               0.7171069259        0.6665073121        0.7688072095
Al               0.2029154757        0.3306031926        0.7720238773
Al               0.7029143901        0.3306028671        0.7720207695
Al               0.2970859379        0.3306028671        0.2279790965
Al               0.7970848373        0.3306031926        0.2279759887
O                0.0685075633        0.1577762833        0.3840435654
O                0.5685065961        0.1577786730        0.3840424595
O                0.4314937019        0.1577786730        0.6159574815
O                0.9314927577        0.1577762833        0.6159563756
O                0.4372725510        0.8345850110        0.6092565829
O                0.9372716588        0.8345827977        0.6092549003
O                0.0627286982        0.8345827977        0.3907450097
O                0.5627277770        0.8345850110        0.3907433271
O                0.3135241921        0.6697785245        0.3901128628
O                0.8135254994        0.6697787587        0.3901127342
O                0.1864747536        0.6697787587        0.6098871758
O                0.6864760759        0.6697785245        0.6098870472
O                0.1797062766        0.3332923458        0.6014903156
O                0.6797025919        0.3332925336        0.6014897081
O                0.3202977361        0.3332925336        0.3985101129
O                0.8202940064        0.3332923458        0.3985095054
O                0.1755206569        0.2041952404        0.1691123542
O                0.6755194130        0.2041963757        0.1691101060
O                0.3244809150        0.2041963757        0.8308897150
O                0.8244796261        0.2041952404        0.8308874668
O                0.0040812944        0.9965656624        0.1694935058
O                0.5040829600        0.9965659553        0.1694924449
O                0.4959173680        0.9965659553        0.8305074351
O                0.9959190596        0.9965656624        0.8305063742
O                0.3438433730        0.7688477672        0.8260098060
O                0.8438438172        0.7688480473        0.8260093762
O                0.1561565108        0.7688480473        0.1739905198
O                0.6561569250        0.7688477672        0.1739900900
O                0.4052120770        0.7378489840        0.1728271827
O                0.9052124181        0.7378492897        0.1728275576
O                0.0947878869        0.7378492897        0.8271723234
O                0.5947882210        0.7378489840        0.8271726983
O                0.2553270620        0.5072448300        0.1678694413
O                0.7553271606        0.5072456371        0.1678689688
O                0.2446731524        0.5072456371        0.8321308972
O                0.7446732060        0.5072448300        0.8321304247
O                0.0671346525        0.2750060803        0.8350988112
O                0.5671356270        0.2750038024        0.8350973388
O                0.4328647000        0.2750038024        0.1649025572
O                0.9328656455        0.2750060803        0.1649010848
O                0.0683065161        0.5115768922        0.3933561992
O                0.5683077705        0.5115753788        0.3933571165
O                0.4316925275        0.5115753788        0.6066427945
O                0.9316937819        0.5115768922        0.6066437118
O                0.3173235790        0.9995784265        0.3993908759
O                0.8173236571        0.9995777561        0.3993902530
O                0.1826767149        0.9995777561        0.6006096280
O                0.6826767490        0.9995784265        0.6006090051
H                0.0526994192        0.4911966429        0.3008479359
H                0.5527000176        0.4911984657        0.3008491392
H                0.4473003404        0.4911984657        0.6991507718
H                0.9473009128        0.4911966429        0.6991519751
H                0.2978264545        0.0142610143        0.3060479139
H                0.7978273786        0.0142612265        0.3060475057
H                0.2021729054        0.0142612265        0.6939523753
H                0.7021738725        0.0142610143        0.6939519671
Fe1             -0.0000000000        0.3355056379        0.4999999400
Fe2              0.5000000000        0.3355053477        0.4999999400



     Writing config-only to output data dir ./temp/phl-fe1-fe2x2.save/ :
     XML data file
     NEW-OLD atomic charge density approx. for the potential

     Check: negative core charge=   -0.000004

     negative rho (up, down):  3.791E-04 3.791E-04
     Generating pointlists ...

     total cpu time spent up to now is   125442.4 secs

     Self-consistent Calculation

     iteration #  1     ecut=    60.00 Ry     beta= 0.70
     Davidson diagonalization with overlap

---- Real-time Memory Report at c_bands before calling an iterative solver
          1931 MiB given to the printing process from OS
             0 MiB allocation reported by mallinfo(arena+hblkhd)
          7263 MiB available memory on the node where the printing process lives
------------------
     ethr =  1.00E-06,  avg # of iterations =  3.0

     Threshold (ethr) on eigenvalues was too large:
     Diagonalizing with lowered threshold

     Davidson diagonalization with overlap

---- Real-time Memory Report at c_bands before calling an iterative solver
          1931 MiB given to the printing process from OS
             0 MiB allocation reported by mallinfo(arena+hblkhd)
          7162 MiB available memory on the node where the printing process lives
------------------
     ethr =  4.62E-09,  avg # of iterations =  9.1

     negative rho (up, down):  3.790E-04 3.790E-04

     total cpu time spent up to now is   132411.8 secs

     total energy              =   -5262.52887716 Ry
     estimated scf accuracy    <       0.00002515 Ry

     total magnetization       =    -0.00 Bohr mag/cell
     absolute magnetization    =     8.07 Bohr mag/cell

     iteration #  2     ecut=    60.00 Ry     beta= 0.70
     Davidson diagonalization with overlap

---- Real-time Memory Report at c_bands before calling an iterative solver
          1931 MiB given to the printing process from OS
             0 MiB allocation reported by mallinfo(arena+hblkhd)
          6773 MiB available memory on the node where the printing process lives
------------------
     ethr =  4.80E-09,  avg # of iterations =  2.0

     negative rho (up, down):  3.790E-04 3.790E-04

     total cpu time spent up to now is   134057.1 secs

     total energy              =   -5262.52888084 Ry
     estimated scf accuracy    <       0.00000120 Ry

     total magnetization       =    -0.00 Bohr mag/cell
     absolute magnetization    =     8.07 Bohr mag/cell

     iteration #  3     ecut=    60.00 Ry     beta= 0.70
     Davidson diagonalization with overlap

---- Real-time Memory Report at c_bands before calling an iterative solver
          1931 MiB given to the printing process from OS
             0 MiB allocation reported by mallinfo(arena+hblkhd)
          6743 MiB available memory on the node where the printing process lives
------------------
