 INFO
nunit      1    1    1
unit   cell
celltype   primcell
shape   parapipedal
 END_INFO
 DIM-GROUP
           3           1
 PRIMVEC
   10.6536652900    0.0000000000    0.0000000000
    0.0000000000    9.2660501910    0.0000000000
   -1.8546463360    0.0000000000   10.2448637870
 CONVVEC
   10.6536652900    0.0000000000    0.0000000000
    0.0000000000    9.2660501910    0.0000000000
   -1.8546463360    0.0000000000   10.2448637870
 PRIMCOORD
          88           1
 19      0.0000000000     4.5766075510     0.0000000000     0.0000000000    -0.0004077300     0.0000000000
 19      5.3268309880     4.5766084440     0.0000000000     0.0000000000    -0.0004074300     0.0000000000
 19      2.6634191140     0.0261812760    -0.0000010880    -0.0000011600     0.0001159500    -0.0000003400
 19      7.9902441400     0.0261812760     0.0000010880     0.0000011600     0.0001159500     0.0000003400
 12     -0.9273217670     0.0587208180     5.1224301040     0.0000000000    -0.0001271500     0.0000000000
 12      4.3995092210     0.0587057140     5.1224301040     0.0000000000    -0.0001258300     0.0000000000
 12     -0.9273217670     6.1803973620     5.1224301040     0.0000000000     0.0001539500     0.0000000000
 12      4.3995092210     6.1803973730     5.1224301040     0.0000000000     0.0001691800     0.0000000000
 12      1.7360888470     4.5928369490     5.1224209210    -0.0000166500     0.0002464400     0.0000048900
 12      7.0629324490     4.5928369490     5.1224392880     0.0000166500     0.0002464400    -0.0000048900
 12      1.7360881090     7.7438128660     5.1224297830     0.0000028000    -0.0002389300     0.0000024000
 12      7.0629331880     7.7438128660     5.1224304250    -0.0000028000    -0.0002389300    -0.0000024000
 12      1.7360807410     1.5793049000     5.1224193800    -0.0000044800     0.0000140800     0.0000090000
 12      7.0629405550     1.5793049000     5.1224408280     0.0000044800     0.0000140800    -0.0000090000
 14      0.0791169480     1.5127858570     2.3060551300    -0.0000812800     0.0001364000     0.0000220300
 14      5.4059512760     1.5127824100     2.3060302030    -0.0000792200     0.0001364000     0.0000218400
 14      3.3930702820     1.5127824100     7.9388303230     0.0000792200     0.0001364000    -0.0000218400
 14      8.7199046430     1.5127858570     7.9388053950     0.0000812800     0.0001364000    -0.0000220300
 14      3.5494385840     7.7317565990     7.8594868190     0.0000807700    -0.0000690700     0.0000264000
 14      8.8762706270     7.7317567910     7.8594848390     0.0000824500    -0.0000657900     0.0000245800
 14     -0.0772490870     7.7317567910     2.3853753790    -0.0000824500    -0.0000657900    -0.0000245800
 14      5.2495833490     7.7317565990     2.3853734000    -0.0000807700    -0.0000690700    -0.0000264000
 14      2.5862844610     6.1753607750     2.3707294820    -0.0000790200    -0.0001240000    -0.0000779200
 14      7.9131155100     6.1753600010     2.3707322730    -0.0000799700    -0.0001251500    -0.0000761900
 14      0.8859061040     6.1753600010     7.8741279460     0.0000799700    -0.0001251500     0.0000761900
 14      6.2127371530     6.1753607750     7.8741307360     0.0000790200    -0.0001240000     0.0000779200
 13      0.7271367970     3.0634384160     7.9098378830     0.0001338400    -0.0000059400    -0.0000968400
 13      6.0539718020     3.0634390520     7.9098346370     0.0001348700    -0.0000084900    -0.0000835400
 13      2.7450501590     3.0634390520     2.3350254280    -0.0001348700    -0.0000084900     0.0000835400
 13      8.0718850050     3.0634384160     2.3350221810    -0.0001338400    -0.0000059400     0.0000968400
  8      0.0184434860     1.4607956270     3.9349410250    -0.0000380200     0.0001719100    -0.0000470200
  8      5.3453121460     1.4607635820     3.9349126320    -0.0000538600     0.0001904300    -0.0000321300
  8      3.4537093570     1.4607635820     6.3099482010     0.0000538600     0.0001904300     0.0000321300
  8      8.7805782620     1.4607956270     6.3099198080     0.0000380200     0.0001719100     0.0000470200
  8      3.5264412080     7.7349519330     6.2392532250     0.0002020400    -0.0001335200     0.0002495100
  8      8.8532820690     7.7349598480     6.2392506220     0.0001976900    -0.0001376900     0.0002482100
  8     -0.0542598800     7.7349598480     4.0056098940    -0.0001976900    -0.0001376900    -0.0002482100
  8      5.2725806720     7.7349519330     4.0056072910    -0.0002020400    -0.0001335200    -0.0002495100
  8      2.6171551840     6.2045850950     3.9987478530    -0.0000135700     0.0001405800    -0.0002018800
  8      7.9439883970     6.2045844400     3.9987491910    -0.0000139800     0.0001417500    -0.0002018200
  8      0.8550326840     6.2045844400     6.2461113250     0.0000139800     0.0001417500     0.0002018200
  8      6.1818660560     6.2045850950     6.2461126630     0.0000135700     0.0001405800     0.0002018800
  8      0.7979279770     3.0874365470     6.1624703140     0.0000737600     0.0000360600     0.0000262100
  8      6.1248433990     3.0874383510     6.1624746320     0.0000331500     0.0000351900     0.0000138100
  8      2.6741786460     3.0874383510     4.0823849710    -0.0000331500     0.0000351900    -0.0000138100
  8      8.0010935880     3.0874365470     4.0823892900    -0.0000737600     0.0000360600    -0.0000262100
  8      1.5595261470     1.8915812750     1.7330987730    -0.0000643000     0.0000041600    -0.0001232200
  8      6.8863637670     1.8915836250     1.7330886690    -0.0000691600     0.0000047100    -0.0001242400
  8      1.9126582780     1.8915836250     8.5117709350     0.0000691600     0.0000047100     0.0001242400
  8      7.2394954190     1.8915812750     8.5117608300     0.0000643000     0.0000041600     0.0001232200
  8     -0.2670334910     9.2340019360     1.7369650840    -0.0002757700    -0.0000758100    -0.0001733800
  8      5.0597995340     9.2339955190     1.7369472530    -0.0002765800    -0.0000734300    -0.0001739400
  8      3.7392224020     9.2339955190     8.5079129560     0.0002765800    -0.0000734300     0.0001739400
  8      9.0660557030     9.2340019360     8.5078951240     0.0002757700    -0.0000758100     0.0001733800
  8      2.1323365680     7.1196175370     8.4611306700    -0.0001139600     0.0003370300     0.0001511300
  8      7.4591670070     7.1196204530     8.4611314270    -0.0001110800     0.0003386000     0.0001501200
  8      1.3398548990     7.1196204530     1.7837289450     0.0001110800     0.0003386000    -0.0001501200
  8      6.6666850180     7.1196175370     1.7837297020     0.0001139600     0.0003370300    -0.0001511300
  8      3.9961590930     6.8404398910     1.7737835480     0.0000135300    -0.0001906200    -0.0002853700
  8      9.3229890830     6.8404400130     1.7737867100     0.0000128400    -0.0001895600    -0.0002873300
  8     -0.5239673950     6.8404400130     8.4710735090    -0.0000128400    -0.0001895600     0.0002873300
  8      4.8028625210     6.8404398910     8.4710766700    -0.0000135300    -0.0001906200     0.0002853700
  8      2.4152049190     4.7002967580     1.7198280140    -0.0004211400    -0.0000154100    -0.0000768100
  8      7.7420359450     4.7002958690     1.7198324040    -0.0004249800    -0.0000124100    -0.0000786300
  8      1.0569858570     4.7002958690     8.5250276610     0.0004249800    -0.0000124100     0.0000786300
  8      6.3838164030     4.7002967580     8.5250320510     0.0004211400    -0.0000154100     0.0000768100
  8     -0.8369566100     2.5482604350     8.5559484570     0.0001905100     0.0000299700     0.0000216300
  8      4.4898766570     2.5482588380     8.5559762030     0.0001939400     0.0000292400     0.0000052600
  8      4.3091452380     2.5482588380     1.6888841690    -0.0001939400     0.0000292400    -0.0000052600
  8      9.6359781960     2.5482604350     1.6889119140    -0.0001905100     0.0000299700    -0.0000216300
  8     -0.0001912040     4.7406596040     4.0281794490    -0.0001332500    -0.0001157300    -0.0002734500
  8      5.3266734150     4.7406941700     4.0281697410    -0.0001456200    -0.0001333200    -0.0002660800
  8      3.4723481440     4.7406941700     6.2166907850     0.0001456200    -0.0001333200     0.0002660800
  8      8.7992127620     4.7406596040     6.2166810760     0.0001332500    -0.0001157300     0.0002734500
  8      2.6405404490     9.2618409320     4.0874333960    -0.0000370600     0.0001000000     0.0000309100
  8      7.9673845230     9.2618417430     4.0874346460    -0.0000412200     0.0000990500     0.0000300900
  8      0.8316378790     9.2618417430     6.1574255720     0.0000412200     0.0000990500    -0.0000300900
  8      6.1584814850     9.2618409320     6.1574268220     0.0000370600     0.0001000000    -0.0000309100
  1      0.0046843130     4.5482187360     3.0811518700    -0.0000714900     0.0002237600     0.0003114900
  1      5.3315146550     4.5482228850     3.0811508350    -0.0000701600     0.0002234000     0.0003078700
  1      3.4675075430     4.5482228850     7.1637096910     0.0000701600     0.0002234000    -0.0003078700
  1      8.7943376080     4.5482187360     7.1637086550     0.0000714900     0.0002237600    -0.0003114900
  1      2.6071861390     0.1367108190     3.1314477620    -0.0001127800    -0.0002769100     0.0004814900
  1      7.9340185980     0.1367106030     3.1314498580    -0.0001127000    -0.0002762700     0.0004820100
  1      0.8650028670     0.1367106030     7.1134103610     0.0001127000    -0.0002762700    -0.0004820100
  1      6.1918357840     0.1367108190     7.1134124570     0.0001127800    -0.0002769100    -0.0004814900
 26     -0.9273217670     3.1097033890     5.1224301040     0.0000000000    -0.0001088600     0.0000000000
 26      4.3995092210     3.1097228560     5.1224301040     0.0000000000    -0.0001202500     0.0000000000
 CONVCOORD
          88           1
 19      0.0000000000     4.5766075510     0.0000000000
 19      5.3268309880     4.5766084440     0.0000000000
 19      2.6634191140     0.0261812760    -0.0000010880
 19      7.9902441400     0.0261812760     0.0000010880
 12     -0.9273217670     0.0587208180     5.1224301040
 12      4.3995092210     0.0587057140     5.1224301040
 12     -0.9273217670     6.1803973620     5.1224301040
 12      4.3995092210     6.1803973730     5.1224301040
 12      1.7360888470     4.5928369490     5.1224209210
 12      7.0629324490     4.5928369490     5.1224392880
 12      1.7360881090     7.7438128660     5.1224297830
 12      7.0629331880     7.7438128660     5.1224304250
 12      1.7360807410     1.5793049000     5.1224193800
 12      7.0629405550     1.5793049000     5.1224408280
 14      0.0791169480     1.5127858570     2.3060551300
 14      5.4059512760     1.5127824100     2.3060302030
 14      3.3930702820     1.5127824100     7.9388303230
 14      8.7199046430     1.5127858570     7.9388053950
 14      3.5494385840     7.7317565990     7.8594868190
 14      8.8762706270     7.7317567910     7.8594848390
 14     -0.0772490870     7.7317567910     2.3853753790
 14      5.2495833490     7.7317565990     2.3853734000
 14      2.5862844610     6.1753607750     2.3707294820
 14      7.9131155100     6.1753600010     2.3707322730
 14      0.8859061040     6.1753600010     7.8741279460
 14      6.2127371530     6.1753607750     7.8741307360
 13      0.7271367970     3.0634384160     7.9098378830
 13      6.0539718020     3.0634390520     7.9098346370
 13      2.7450501590     3.0634390520     2.3350254280
 13      8.0718850050     3.0634384160     2.3350221810
  8      0.0184434860     1.4607956270     3.9349410250
  8      5.3453121460     1.4607635820     3.9349126320
  8      3.4537093570     1.4607635820     6.3099482010
  8      8.7805782620     1.4607956270     6.3099198080
  8      3.5264412080     7.7349519330     6.2392532250
  8      8.8532820690     7.7349598480     6.2392506220
  8     -0.0542598800     7.7349598480     4.0056098940
  8      5.2725806720     7.7349519330     4.0056072910
  8      2.6171551840     6.2045850950     3.9987478530
  8      7.9439883970     6.2045844400     3.9987491910
  8      0.8550326840     6.2045844400     6.2461113250
  8      6.1818660560     6.2045850950     6.2461126630
  8      0.7979279770     3.0874365470     6.1624703140
  8      6.1248433990     3.0874383510     6.1624746320
  8      2.6741786460     3.0874383510     4.0823849710
  8      8.0010935880     3.0874365470     4.0823892900
  8      1.5595261470     1.8915812750     1.7330987730
  8      6.8863637670     1.8915836250     1.7330886690
  8      1.9126582780     1.8915836250     8.5117709350
  8      7.2394954190     1.8915812750     8.5117608300
  8     -0.2670334910     9.2340019360     1.7369650840
  8      5.0597995340     9.2339955190     1.7369472530
  8      3.7392224020     9.2339955190     8.5079129560
  8      9.0660557030     9.2340019360     8.5078951240
  8      2.1323365680     7.1196175370     8.4611306700
  8      7.4591670070     7.1196204530     8.4611314270
  8      1.3398548990     7.1196204530     1.7837289450
  8      6.6666850180     7.1196175370     1.7837297020
  8      3.9961590930     6.8404398910     1.7737835480
  8      9.3229890830     6.8404400130     1.7737867100
  8     -0.5239673950     6.8404400130     8.4710735090
  8      4.8028625210     6.8404398910     8.4710766700
  8      2.4152049190     4.7002967580     1.7198280140
  8      7.7420359450     4.7002958690     1.7198324040
  8      1.0569858570     4.7002958690     8.5250276610
  8      6.3838164030     4.7002967580     8.5250320510
  8     -0.8369566100     2.5482604350     8.5559484570
  8      4.4898766570     2.5482588380     8.5559762030
  8      4.3091452380     2.5482588380     1.6888841690
  8      9.6359781960     2.5482604350     1.6889119140
  8     -0.0001912040     4.7406596040     4.0281794490
  8      5.3266734150     4.7406941700     4.0281697410
  8      3.4723481440     4.7406941700     6.2166907850
  8      8.7992127620     4.7406596040     6.2166810760
  8      2.6405404490     9.2618409320     4.0874333960
  8      7.9673845230     9.2618417430     4.0874346460
  8      0.8316378790     9.2618417430     6.1574255720
  8      6.1584814850     9.2618409320     6.1574268220
  1      0.0046843130     4.5482187360     3.0811518700
  1      5.3315146550     4.5482228850     3.0811508350
  1      3.4675075430     4.5482228850     7.1637096910
  1      8.7943376080     4.5482187360     7.1637086550
  1      2.6071861390     0.1367108190     3.1314477620
  1      7.9340185980     0.1367106030     3.1314498580
  1      0.8650028670     0.1367106030     7.1134103610
  1      6.1918357840     0.1367108190     7.1134124570
 26     -0.9273217670     3.1097033890     5.1224301040
 26      4.3995092210     3.1097228560     5.1224301040
 RECIP-PRIMVEC
    0.0938644094   -0.0000000000    0.0169924449

    0.0000000000    0.1079208486   -0.0000000000

    0.0000000000    0.0000000000    0.0976098873

 RECIP-CONVVEC
    0.0938644094   -0.0000000000    0.0169924449

    0.0000000000    0.1079208486   -0.0000000000

    0.0000000000    0.0000000000    0.0976098873

 WIGNER-SEITZ-PRIMCELL
           6
 -0.5326833E+01 -0.4633025E+01 -0.4325981E+01  -0.4648493E-31 -0.1000000E+01  0.4186991E-15
 -0.3472186E+01 -0.4633025E+01 -0.5918883E+01  -0.4648493E-31 -0.1000000E+01  0.4186991E-15
  0.5326833E+01 -0.4633025E+01 -0.4325981E+01  -0.4648493E-31 -0.1000000E+01  0.4186991E-15
  0.5326833E+01 -0.4633025E+01  0.4325981E+01  -0.4648493E-31 -0.1000000E+01  0.4186991E-15
  0.3472186E+01 -0.4633025E+01  0.5918883E+01  -0.4648493E-31 -0.1000000E+01  0.4186991E-15
 -0.5326833E+01 -0.4633025E+01  0.4325981E+01  -0.4648493E-31 -0.1000000E+01  0.4186991E-15
           4
  0.3472186E+01  0.4633025E+01  0.5918883E+01   0.6515469E+00  0.7841372E-16  0.7586084E+00
  0.3472186E+01 -0.4633025E+01  0.5918883E+01   0.6515469E+00  0.7841372E-16  0.7586084E+00
  0.5326833E+01 -0.4633025E+01  0.4325981E+01   0.6515469E+00  0.7841372E-16  0.7586084E+00
  0.5326833E+01  0.4633025E+01  0.4325981E+01   0.6515469E+00  0.7841372E-16  0.7586084E+00
           4
  0.3472186E+01  0.4633025E+01  0.5918883E+01  -0.1781364E+00  0.8575490E-16  0.9840058E+00
 -0.5326833E+01  0.4633025E+01  0.4325981E+01  -0.1781364E+00  0.8575490E-16  0.9840058E+00
 -0.5326833E+01 -0.4633025E+01  0.4325981E+01  -0.1781364E+00  0.8575490E-16  0.9840058E+00
  0.3472186E+01 -0.4633025E+01  0.5918883E+01  -0.1781364E+00  0.8575490E-16  0.9840058E+00
           4
  0.5326833E+01  0.4633025E+01  0.4325981E+01   0.1000000E+01  0.9585297E-16  0.1026563E-15
  0.5326833E+01 -0.4633025E+01  0.4325981E+01   0.1000000E+01  0.9585297E-16  0.1026563E-15
  0.5326833E+01 -0.4633025E+01 -0.4325981E+01   0.1000000E+01  0.9585297E-16  0.1026563E-15
  0.5326833E+01  0.4633025E+01 -0.4325981E+01   0.1000000E+01  0.9585297E-16  0.1026563E-15
           4
 -0.5326833E+01  0.4633025E+01 -0.4325981E+01  -0.1000000E+01  0.9585297E-16  0.1026563E-15
 -0.5326833E+01 -0.4633025E+01 -0.4325981E+01  -0.1000000E+01  0.9585297E-16  0.1026563E-15
 -0.5326833E+01 -0.4633025E+01  0.4325981E+01  -0.1000000E+01  0.9585297E-16  0.1026563E-15
 -0.5326833E+01  0.4633025E+01  0.4325981E+01  -0.1000000E+01  0.9585297E-16  0.1026563E-15
           4
  0.5326833E+01 -0.4633025E+01 -0.4325981E+01   0.1781364E+00  0.3938315E-16 -0.9840058E+00
 -0.3472186E+01 -0.4633025E+01 -0.5918883E+01   0.1781364E+00  0.3938315E-16 -0.9840058E+00
 -0.3472186E+01  0.4633025E+01 -0.5918883E+01   0.1781364E+00  0.3938315E-16 -0.9840058E+00
  0.5326833E+01  0.4633025E+01 -0.4325981E+01   0.1781364E+00  0.3938315E-16 -0.9840058E+00
           4
 -0.5326833E+01  0.4633025E+01 -0.4325981E+01  -0.6515469E+00 -0.1905088E-15 -0.7586084E+00
 -0.3472186E+01  0.4633025E+01 -0.5918883E+01  -0.6515469E+00 -0.1905088E-15 -0.7586084E+00
 -0.3472186E+01 -0.4633025E+01 -0.5918883E+01  -0.6515469E+00 -0.1905088E-15 -0.7586084E+00
 -0.5326833E+01 -0.4633025E+01 -0.4325981E+01  -0.6515469E+00 -0.1905088E-15 -0.7586084E+00
           6
  0.3472186E+01  0.4633025E+01  0.5918883E+01  -0.4788937E-15  0.1000000E+01  0.0000000E+00
  0.5326833E+01  0.4633025E+01  0.4325981E+01  -0.4788937E-15  0.1000000E+01  0.0000000E+00
  0.5326833E+01  0.4633025E+01 -0.4325981E+01  -0.4788937E-15  0.1000000E+01  0.0000000E+00
 -0.3472186E+01  0.4633025E+01 -0.5918883E+01  -0.4788937E-15  0.1000000E+01  0.0000000E+00
 -0.5326833E+01  0.4633025E+01 -0.4325981E+01  -0.4788937E-15  0.1000000E+01  0.0000000E+00
 -0.5326833E+01  0.4633025E+01  0.4325981E+01  -0.4788937E-15  0.1000000E+01  0.0000000E+00
 WIGNER-SEITZ-PRIMCELL_END
 WIGNER-SEITZ-CONVCELL
           6
 -0.5326833E+01 -0.4633025E+01 -0.4325981E+01  -0.4648493E-31 -0.1000000E+01  0.4186991E-15
 -0.3472186E+01 -0.4633025E+01 -0.5918883E+01  -0.4648493E-31 -0.1000000E+01  0.4186991E-15
  0.5326833E+01 -0.4633025E+01 -0.4325981E+01  -0.4648493E-31 -0.1000000E+01  0.4186991E-15
  0.5326833E+01 -0.4633025E+01  0.4325981E+01  -0.4648493E-31 -0.1000000E+01  0.4186991E-15
  0.3472186E+01 -0.4633025E+01  0.5918883E+01  -0.4648493E-31 -0.1000000E+01  0.4186991E-15
 -0.5326833E+01 -0.4633025E+01  0.4325981E+01  -0.4648493E-31 -0.1000000E+01  0.4186991E-15
           4
  0.3472186E+01  0.4633025E+01  0.5918883E+01   0.6515469E+00  0.7841372E-16  0.7586084E+00
  0.3472186E+01 -0.4633025E+01  0.5918883E+01   0.6515469E+00  0.7841372E-16  0.7586084E+00
  0.5326833E+01 -0.4633025E+01  0.4325981E+01   0.6515469E+00  0.7841372E-16  0.7586084E+00
  0.5326833E+01  0.4633025E+01  0.4325981E+01   0.6515469E+00  0.7841372E-16  0.7586084E+00
           4
  0.3472186E+01  0.4633025E+01  0.5918883E+01  -0.1781364E+00  0.8575490E-16  0.9840058E+00
 -0.5326833E+01  0.4633025E+01  0.4325981E+01  -0.1781364E+00  0.8575490E-16  0.9840058E+00
 -0.5326833E+01 -0.4633025E+01  0.4325981E+01  -0.1781364E+00  0.8575490E-16  0.9840058E+00
  0.3472186E+01 -0.4633025E+01  0.5918883E+01  -0.1781364E+00  0.8575490E-16  0.9840058E+00
           4
  0.5326833E+01  0.4633025E+01  0.4325981E+01   0.1000000E+01  0.9585297E-16  0.1026563E-15
  0.5326833E+01 -0.4633025E+01  0.4325981E+01   0.1000000E+01  0.9585297E-16  0.1026563E-15
  0.5326833E+01 -0.4633025E+01 -0.4325981E+01   0.1000000E+01  0.9585297E-16  0.1026563E-15
  0.5326833E+01  0.4633025E+01 -0.4325981E+01   0.1000000E+01  0.9585297E-16  0.1026563E-15
           4
 -0.5326833E+01  0.4633025E+01 -0.4325981E+01  -0.1000000E+01  0.9585297E-16  0.1026563E-15
 -0.5326833E+01 -0.4633025E+01 -0.4325981E+01  -0.1000000E+01  0.9585297E-16  0.1026563E-15
 -0.5326833E+01 -0.4633025E+01  0.4325981E+01  -0.1000000E+01  0.9585297E-16  0.1026563E-15
 -0.5326833E+01  0.4633025E+01  0.4325981E+01  -0.1000000E+01  0.9585297E-16  0.1026563E-15
           4
  0.5326833E+01 -0.4633025E+01 -0.4325981E+01   0.1781364E+00  0.3938315E-16 -0.9840058E+00
 -0.3472186E+01 -0.4633025E+01 -0.5918883E+01   0.1781364E+00  0.3938315E-16 -0.9840058E+00
 -0.3472186E+01  0.4633025E+01 -0.5918883E+01   0.1781364E+00  0.3938315E-16 -0.9840058E+00
  0.5326833E+01  0.4633025E+01 -0.4325981E+01   0.1781364E+00  0.3938315E-16 -0.9840058E+00
           4
 -0.5326833E+01  0.4633025E+01 -0.4325981E+01  -0.6515469E+00 -0.1905088E-15 -0.7586084E+00
 -0.3472186E+01  0.4633025E+01 -0.5918883E+01  -0.6515469E+00 -0.1905088E-15 -0.7586084E+00
 -0.3472186E+01 -0.4633025E+01 -0.5918883E+01  -0.6515469E+00 -0.1905088E-15 -0.7586084E+00
 -0.5326833E+01 -0.4633025E+01 -0.4325981E+01  -0.6515469E+00 -0.1905088E-15 -0.7586084E+00
           6
  0.3472186E+01  0.4633025E+01  0.5918883E+01  -0.4788937E-15  0.1000000E+01  0.0000000E+00
  0.5326833E+01  0.4633025E+01  0.4325981E+01  -0.4788937E-15  0.1000000E+01  0.0000000E+00
  0.5326833E+01  0.4633025E+01 -0.4325981E+01  -0.4788937E-15  0.1000000E+01  0.0000000E+00
 -0.3472186E+01  0.4633025E+01 -0.5918883E+01  -0.4788937E-15  0.1000000E+01  0.0000000E+00
 -0.5326833E+01  0.4633025E+01 -0.4325981E+01  -0.4788937E-15  0.1000000E+01  0.0000000E+00
 -0.5326833E+01  0.4633025E+01  0.4325981E+01  -0.4788937E-15  0.1000000E+01  0.0000000E+00
 WIGNER-SEITZ-CONVCELL_END
 BRILLOUIN-ZONE-PRIMCELL
           4
 -0.5422937E-01  0.5396042E-01  0.3181250E-01  -0.9840058E+00 -0.2452469E-16 -0.1781364E+00
 -0.3963504E-01  0.5396042E-01 -0.4880494E-01  -0.9840058E+00 -0.2452469E-16 -0.1781364E+00
 -0.3963504E-01 -0.5396042E-01 -0.4880494E-01  -0.9840058E+00 -0.2452469E-16 -0.1781364E+00
 -0.5422937E-01 -0.5396042E-01  0.3181250E-01  -0.9840058E+00 -0.2452469E-16 -0.1781364E+00
           4
 -0.5422937E-01  0.5396042E-01  0.3181250E-01  -0.7586084E+00  0.4485044E-16  0.6515469E+00
 -0.5422937E-01 -0.5396042E-01  0.3181250E-01  -0.7586084E+00  0.4485044E-16  0.6515469E+00
 -0.3963504E-01 -0.5396042E-01  0.4880494E-01  -0.7586084E+00  0.4485044E-16  0.6515469E+00
 -0.3963504E-01  0.5396042E-01  0.4880494E-01  -0.7586084E+00  0.4485044E-16  0.6515469E+00
           6
  0.3963504E-01 -0.5396042E-01  0.4880494E-01  -0.0000000E+00 -0.1000000E+01  0.0000000E+00
 -0.3963504E-01 -0.5396042E-01  0.4880494E-01  -0.0000000E+00 -0.1000000E+01  0.0000000E+00
 -0.5422937E-01 -0.5396042E-01  0.3181250E-01  -0.0000000E+00 -0.1000000E+01  0.0000000E+00
 -0.3963504E-01 -0.5396042E-01 -0.4880494E-01  -0.0000000E+00 -0.1000000E+01  0.0000000E+00
  0.3963504E-01 -0.5396042E-01 -0.4880494E-01  -0.0000000E+00 -0.1000000E+01  0.0000000E+00
  0.5422937E-01 -0.5396042E-01 -0.3181250E-01  -0.0000000E+00 -0.1000000E+01  0.0000000E+00
           4
 -0.3963504E-01  0.5396042E-01 -0.4880494E-01   0.1013878E-15 -0.5069389E-16 -0.1000000E+01
  0.3963504E-01  0.5396042E-01 -0.4880494E-01   0.1013878E-15 -0.5069389E-16 -0.1000000E+01
  0.3963504E-01 -0.5396042E-01 -0.4880494E-01   0.1013878E-15 -0.5069389E-16 -0.1000000E+01
 -0.3963504E-01 -0.5396042E-01 -0.4880494E-01   0.1013878E-15 -0.5069389E-16 -0.1000000E+01
           4
 -0.3963504E-01 -0.5396042E-01  0.4880494E-01  -0.0000000E+00 -0.5069389E-16  0.1000000E+01
  0.3963504E-01 -0.5396042E-01  0.4880494E-01  -0.0000000E+00 -0.5069389E-16  0.1000000E+01
  0.3963504E-01  0.5396042E-01  0.4880494E-01  -0.0000000E+00 -0.5069389E-16  0.1000000E+01
 -0.3963504E-01  0.5396042E-01  0.4880494E-01  -0.0000000E+00 -0.5069389E-16  0.1000000E+01
           6
  0.5422937E-01  0.5396042E-01 -0.3181250E-01   0.0000000E+00  0.1000000E+01 -0.6439247E-15
  0.3963504E-01  0.5396042E-01 -0.4880494E-01   0.0000000E+00  0.1000000E+01 -0.6439247E-15
 -0.3963504E-01  0.5396042E-01 -0.4880494E-01   0.0000000E+00  0.1000000E+01 -0.6439247E-15
 -0.5422937E-01  0.5396042E-01  0.3181250E-01   0.0000000E+00  0.1000000E+01 -0.6439247E-15
 -0.3963504E-01  0.5396042E-01  0.4880494E-01   0.0000000E+00  0.1000000E+01 -0.6439247E-15
  0.3963504E-01  0.5396042E-01  0.4880494E-01   0.0000000E+00  0.1000000E+01 -0.6439247E-15
           4
  0.5422937E-01  0.5396042E-01 -0.3181250E-01   0.7586084E+00  0.1345513E-15 -0.6515469E+00
  0.5422937E-01 -0.5396042E-01 -0.3181250E-01   0.7586084E+00  0.1345513E-15 -0.6515469E+00
  0.3963504E-01 -0.5396042E-01 -0.4880494E-01   0.7586084E+00  0.1345513E-15 -0.6515469E+00
  0.3963504E-01  0.5396042E-01 -0.4880494E-01   0.7586084E+00  0.1345513E-15 -0.6515469E+00
           4
  0.3963504E-01 -0.5396042E-01  0.4880494E-01   0.9840058E+00  0.3065587E-16  0.1781364E+00
  0.5422937E-01 -0.5396042E-01 -0.3181250E-01   0.9840058E+00  0.3065587E-16  0.1781364E+00
  0.5422937E-01  0.5396042E-01 -0.3181250E-01   0.9840058E+00  0.3065587E-16  0.1781364E+00
  0.3963504E-01  0.5396042E-01  0.4880494E-01   0.9840058E+00  0.3065587E-16  0.1781364E+00
 BRILLOUIN-ZONE-PRIMCELL_END
 BRILLOUIN-ZONE-CONVCELL
           4
 -0.5422937E-01  0.5396042E-01  0.3181250E-01  -0.9840058E+00 -0.2452469E-16 -0.1781364E+00
 -0.3963504E-01  0.5396042E-01 -0.4880494E-01  -0.9840058E+00 -0.2452469E-16 -0.1781364E+00
 -0.3963504E-01 -0.5396042E-01 -0.4880494E-01  -0.9840058E+00 -0.2452469E-16 -0.1781364E+00
 -0.5422937E-01 -0.5396042E-01  0.3181250E-01  -0.9840058E+00 -0.2452469E-16 -0.1781364E+00
           4
 -0.5422937E-01  0.5396042E-01  0.3181250E-01  -0.7586084E+00  0.4485044E-16  0.6515469E+00
 -0.5422937E-01 -0.5396042E-01  0.3181250E-01  -0.7586084E+00  0.4485044E-16  0.6515469E+00
 -0.3963504E-01 -0.5396042E-01  0.4880494E-01  -0.7586084E+00  0.4485044E-16  0.6515469E+00
 -0.3963504E-01  0.5396042E-01  0.4880494E-01  -0.7586084E+00  0.4485044E-16  0.6515469E+00
           6
  0.3963504E-01 -0.5396042E-01  0.4880494E-01  -0.0000000E+00 -0.1000000E+01  0.0000000E+00
 -0.3963504E-01 -0.5396042E-01  0.4880494E-01  -0.0000000E+00 -0.1000000E+01  0.0000000E+00
 -0.5422937E-01 -0.5396042E-01  0.3181250E-01  -0.0000000E+00 -0.1000000E+01  0.0000000E+00
 -0.3963504E-01 -0.5396042E-01 -0.4880494E-01  -0.0000000E+00 -0.1000000E+01  0.0000000E+00
  0.3963504E-01 -0.5396042E-01 -0.4880494E-01  -0.0000000E+00 -0.1000000E+01  0.0000000E+00
  0.5422937E-01 -0.5396042E-01 -0.3181250E-01  -0.0000000E+00 -0.1000000E+01  0.0000000E+00
           4
 -0.3963504E-01  0.5396042E-01 -0.4880494E-01   0.1013878E-15 -0.5069389E-16 -0.1000000E+01
  0.3963504E-01  0.5396042E-01 -0.4880494E-01   0.1013878E-15 -0.5069389E-16 -0.1000000E+01
  0.3963504E-01 -0.5396042E-01 -0.4880494E-01   0.1013878E-15 -0.5069389E-16 -0.1000000E+01
 -0.3963504E-01 -0.5396042E-01 -0.4880494E-01   0.1013878E-15 -0.5069389E-16 -0.1000000E+01
           4
 -0.3963504E-01 -0.5396042E-01  0.4880494E-01  -0.0000000E+00 -0.5069389E-16  0.1000000E+01
  0.3963504E-01 -0.5396042E-01  0.4880494E-01  -0.0000000E+00 -0.5069389E-16  0.1000000E+01
  0.3963504E-01  0.5396042E-01  0.4880494E-01  -0.0000000E+00 -0.5069389E-16  0.1000000E+01
 -0.3963504E-01  0.5396042E-01  0.4880494E-01  -0.0000000E+00 -0.5069389E-16  0.1000000E+01
           6
  0.5422937E-01  0.5396042E-01 -0.3181250E-01   0.0000000E+00  0.1000000E+01 -0.6439247E-15
  0.3963504E-01  0.5396042E-01 -0.4880494E-01   0.0000000E+00  0.1000000E+01 -0.6439247E-15
 -0.3963504E-01  0.5396042E-01 -0.4880494E-01   0.0000000E+00  0.1000000E+01 -0.6439247E-15
 -0.5422937E-01  0.5396042E-01  0.3181250E-01   0.0000000E+00  0.1000000E+01 -0.6439247E-15
 -0.3963504E-01  0.5396042E-01  0.4880494E-01   0.0000000E+00  0.1000000E+01 -0.6439247E-15
  0.3963504E-01  0.5396042E-01  0.4880494E-01   0.0000000E+00  0.1000000E+01 -0.6439247E-15
           4
  0.5422937E-01  0.5396042E-01 -0.3181250E-01   0.7586084E+00  0.1345513E-15 -0.6515469E+00
  0.5422937E-01 -0.5396042E-01 -0.3181250E-01   0.7586084E+00  0.1345513E-15 -0.6515469E+00
  0.3963504E-01 -0.5396042E-01 -0.4880494E-01   0.7586084E+00  0.1345513E-15 -0.6515469E+00
  0.3963504E-01  0.5396042E-01 -0.4880494E-01   0.7586084E+00  0.1345513E-15 -0.6515469E+00
           4
  0.3963504E-01 -0.5396042E-01  0.4880494E-01   0.9840058E+00  0.3065587E-16  0.1781364E+00
  0.5422937E-01 -0.5396042E-01 -0.3181250E-01   0.9840058E+00  0.3065587E-16  0.1781364E+00
  0.5422937E-01  0.5396042E-01 -0.3181250E-01   0.9840058E+00  0.3065587E-16  0.1781364E+00
  0.3963504E-01  0.5396042E-01  0.4880494E-01   0.9840058E+00  0.3065587E-16  0.1781364E+00
 BRILLOUIN-ZONE-CONVCELL_END
 ATOMS
   19    0.0000000000    4.5766075510    0.0000000000    0.0000000000   -0.0004077300    0.0000000000
   19    5.3268309880    4.5766084440    0.0000000000    0.0000000000   -0.0004074300    0.0000000000
   19    2.6634191140    0.0261812760   -0.0000010880   -0.0000011600    0.0001159500   -0.0000003400
   19    7.9902441400    0.0261812760    0.0000010880    0.0000011600    0.0001159500    0.0000003400
   12   -0.9273217670    0.0587208180    5.1224301040    0.0000000000   -0.0001271500    0.0000000000
   12    4.3995092210    0.0587057140    5.1224301040    0.0000000000   -0.0001258300    0.0000000000
   12   -0.9273217670    6.1803973620    5.1224301040    0.0000000000    0.0001539500    0.0000000000
   12    4.3995092210    6.1803973730    5.1224301040    0.0000000000    0.0001691800    0.0000000000
   12    1.7360888470    4.5928369490    5.1224209210   -0.0000166500    0.0002464400    0.0000048900