
     Program PWSCF v.7.3.1 starts on 18Dec2024 at 15:18: 1 

     This program is part of the open-source Quantum ESPRESSO suite
     for quantum simulation of materials; please cite
         "P. Giannozzi et al., J. Phys.:Condens. Matter 21 395502 (2009);
         "P. Giannozzi et al., J. Phys.:Condens. Matter 29 465901 (2017);
         "P. Giannozzi et al., J. Chem. Phys. 152 154105 (2020);
          URL http://www.quantum-espresso.org", 
     in publications or presentations arising from this work. More details at
     http://www.quantum-espresso.org/quote

     Parallel version (MPI), running on    12 processors

     MPI processes distributed on     1 nodes
     8104 MiB available memory on the printing compute node when the environment starts

     Reading input from vc_relax.in

     Current dimensions of program PWSCF are:
     Max number of different atomic species (ntypx) = 10
     Max number of k-points (npk) =  40000
     Max angular momentum in pseudopotentials (lmaxx) =  4
     file Al.pbe-n-kjpaw_psl.1.0.0.UPF: wavefunction(s)  3S 3P renormalized
     file Fe.pbe-spn-kjpaw_psl.1.0.0.UPF: wavefunction(s)  3P 3D renormalized
     file H.pbe-kjpaw_psl.1.0.0.UPF: wavefunction(s)  1S renormalized
     file K.pbe-spn-kjpaw_psl.1.0.0.UPF: wavefunction(s)  3S renormalized
     file Mg.pbe-spnl-kjpaw_psl.1.0.0.UPF: wavefunction(s)  2P renormalized
     file O.pbe-n-kjpaw_psl.1.0.0.UPF: wavefunction(s)  2S 2P renormalized
     file Si.pbe-n-kjpaw_psl.1.0.0.UPF: wavefunction(s)  3S 3P renormalized

     R & G space division:  proc/nbgrp/npool/nimage =      12
     Subspace diagonalization in iterative solution of the eigenvalue problem:
     one sub-group per band group will be used
     custom distributed-memory algorithm (size of sub-group:  2*  2 procs)


     Parallelization info
     --------------------
     sticks:   dense  smooth     PW     G-vecs:    dense   smooth      PW
     Min         550     276     75                48625    17197    2446
     Max         551     277     76                48631    17201    2449
     Sum        6609    3313    901               583539   206401   29369

     Using Slab Decomposition



     bravais-lattice index     =          -12
     lattice parameter (alat)  =       9.9883  a.u.
     unit-cell volume          =    3285.8057 (a.u.)^3
     number of atoms/cell      =           44
     number of atomic types    =            7
     number of electrons       =       262.00
     number of Kohn-Sham states=          157
     kinetic-energy cutoff     =      60.0000  Ry
     charge density cutoff     =     480.0000  Ry
     scf convergence threshold =      1.0E-06
     mixing beta               =       0.7000
     number of iterations used =            8  plain     mixing
     energy convergence thresh.=      1.0E-04
     force convergence thresh. =      1.0E-03
     press convergence thresh. =      5.0E-01
     Exchange-correlation= SLA  PW   PBX  PBC
                           (   1   4   3   4   0   0   0)
     nstep                     =           50


     celldm(1)=   9.988336  celldm(2)=   1.736567  celldm(3)=   1.928182
     celldm(4)=   0.000000  celldm(5)=  -0.174018  celldm(6)=   0.000000

     crystal axes: (cart. coord. in units of alat)
               a(1) = (   1.000000   0.000000   0.000000 )  
               a(2) = (   0.000000   1.736567   0.000000 )  
               a(3) = (  -0.335538   0.000000   1.898763 )  

     reciprocal axes: (cart. coord. in units 2 pi/alat)
               b(1) = (  1.000000 -0.000000  0.176714 )  
               b(2) = (  0.000000  0.575849 -0.000000 )  
               b(3) = (  0.000000  0.000000  0.526659 )  


     PseudoPot. # 1 for Al read from file:
     ./../../pseudos/Al.pbe-n-kjpaw_psl.1.0.0.UPF
     MD5 check sum: 502b6b27b9c6270cab5dd1084b96fa6d
     Pseudo is Projector augmented-wave + core cor, Zval =  3.0
     Generated using &quot;atomic&quot; code by A. Dal Corso  v.6.3
     Shape of augmentation charge: PSQ
     Using radial grid of 1135 points,  6 beta functions with: 
                l(1) =   0
                l(2) =   0
                l(3) =   1
                l(4) =   1
                l(5) =   2
                l(6) =   2
     Q(r) pseudized with 0 coefficients 


     PseudoPot. # 2 for Fe read from file:
     ./../../pseudos/Fe.pbe-spn-kjpaw_psl.1.0.0.UPF
     MD5 check sum: fc81f059e5c5069939230b1155715ae8
     Pseudo is Projector augmented-wave + core cor, Zval = 16.0
     Generated using &quot;atomic&quot; code by A. Dal Corso  v.6.3
     Shape of augmentation charge: PSQ
     Using radial grid of 1191 points,  6 beta functions with: 
                l(1) =   0
                l(2) =   0
                l(3) =   1
                l(4) =   1
                l(5) =   2
                l(6) =   2
     Q(r) pseudized with 0 coefficients 


     PseudoPot. # 3 for H  read from file:
     ./../../pseudos/H.pbe-kjpaw_psl.1.0.0.UPF
     MD5 check sum: d81a744832360e4a8af0b0b5b123bc2a
     Pseudo is Projector augmented-wave, Zval =  1.0
     Generated using &quot;atomic&quot; code by A. Dal Corso  v.6.3MaX
     Shape of augmentation charge: PSQ
     Using radial grid of  929 points,  2 beta functions with: 
                l(1) =   0
                l(2) =   0
     Q(r) pseudized with 0 coefficients 


     PseudoPot. # 4 for K  read from file:
     ./../../pseudos/K.pbe-spn-kjpaw_psl.1.0.0.UPF
     MD5 check sum: 34cc42130a09071ebe376fd42eb21491
     Pseudo is Projector augmented-wave + core cor, Zval =  9.0
     Generated using &quot;atomic&quot; code by A. Dal Corso  v.6.2.2
     Shape of augmentation charge: PSQ
     Using radial grid of 1165 points,  6 beta functions with: 
                l(1) =   0
                l(2) =   0
                l(3) =   1
                l(4) =   1
                l(5) =   2
                l(6) =   2
     Q(r) pseudized with 0 coefficients 


     PseudoPot. # 5 for Mg read from file:
     ./../../pseudos/Mg.pbe-spnl-kjpaw_psl.1.0.0.UPF
     MD5 check sum: fda14e0d92a6a9a5ebed782e5a4b3067
     Pseudo is Projector augmented-wave + core cor, Zval = 10.0
     Generated using &quot;atomic&quot; code by A. Dal Corso  v.6.3
     Shape of augmentation charge: PSQ
     Using radial grid of 1129 points,  4 beta functions with: 
                l(1) =   0
                l(2) =   0
                l(3) =   1
                l(4) =   1
     Q(r) pseudized with 0 coefficients 


     PseudoPot. # 6 for O  read from file:
     ./../../pseudos/O.pbe-n-kjpaw_psl.1.0.0.UPF
     MD5 check sum: e99d9cef9b487d1ca56f5b95ecd0fd7a
     Pseudo is Projector augmented-wave + core cor, Zval =  6.0
     Generated using &quot;atomic&quot; code by A. Dal Corso  v.6.3
     Shape of augmentation charge: PSQ
     Using radial grid of 1095 points,  4 beta functions with: 
                l(1) =   0
                l(2) =   0
                l(3) =   1
                l(4) =   1
     Q(r) pseudized with 0 coefficients 


     PseudoPot. # 7 for Si read from file:
     ./../../pseudos/Si.pbe-n-kjpaw_psl.1.0.0.UPF
     MD5 check sum: c39c59da582df4a0d9f10159256ea34e
     Pseudo is Projector augmented-wave + core cor, Zval =  4.0
     Generated using &quot;atomic&quot; code by A. Dal Corso  v.6.3
     Shape of augmentation charge: PSQ
     Using radial grid of 1141 points,  6 beta functions with: 
                l(1) =   0
                l(2) =   0
                l(3) =   1
                l(4) =   1
                l(5) =   2
                l(6) =   2
     Q(r) pseudized with 0 coefficients 


     atomic species   valence    mass     pseudopotential
     Al                3.00    26.98154     Al( 1.00)
     Fe               16.00    55.84500     Fe( 1.00)
     H                 1.00     1.00794     H ( 1.00)
     K                 9.00    39.09830     K ( 1.00)
     Mg               10.00    24.30500     Mg( 1.00)
     O                 6.00    15.99940     O ( 1.00)
     Si                4.00    28.08550     Si( 1.00)

     Starting magnetic structure 
     atomic species   magnetization
     Al              0.000
     Fe              0.300
     H               0.000
     K               0.000
     Mg              0.000
     O               0.000
     Si              0.000

      2 Sym. Ops. (no inversion) found


                                    s                        frac. trans.

      isym =  1     identity                                     

 cryst.   s( 1) = (     1          0          0      )
                  (     0          1          0      )
                  (     0          0          1      )

 cart.    s( 1) = (  1.0000000  0.0000000  0.0000000 )
                  (  0.0000000  1.0000000  0.0000000 )
                  (  0.0000000  0.0000000  1.0000000 )


      isym =  2     180 deg rotation - cart. axis [0,1,0]        

 cryst.   s( 2) = (    -1          0          0      )
                  (     0          1          0      )
                  (     0          0         -1      )

 cart.    s( 2) = ( -1.0000000  0.0000000  0.0000000 )
                  (  0.0000000  1.0000000  0.0000000 )
                  (  0.0000000  0.0000000 -1.0000000 )


     point group C_2  (2)   
     there are  2 classes
     the character table:

       E     C2   
A      1.00  1.00
B      1.00 -1.00

     the symmetry operations in each class and the name of the first element:

     E        1
          identity                                               
     C2       2
          180 deg rotation - cart. axis [0,1,0]                  

   Cartesian axes

     site n.     atom                  positions (alat units)
         1        K      tau(   1) = (   0.0000000   0.8646693   0.0000000  )
         2        K      tau(   2) = (   0.5000000   0.0015640   0.0000000  )
         3        Mg     tau(   3) = (  -0.1677688   0.0058617   0.9493815  )
         4        Mg     tau(   4) = (  -0.1677688   0.5754339   0.9493815  )
         5        Mg     tau(   5) = (  -0.1677688   1.1563460   0.9493815  )
         6        Mg     tau(   6) = (   0.3322312   1.4513759   0.9493815  )
         7        Mg     tau(   7) = (   0.3322312   0.2920804   0.9493815  )
         8        Fe     tau(   8) = (   0.3322312   0.8552530   0.9493815  )
         9        Si     tau(   9) = (   0.0092378   0.2864513   0.4210148  )
        10        Si     tau(  10) = (   0.6552246   0.2864513   1.4777482  )
        11        Si     tau(  11) = (   0.6741097   1.4491888   1.4666057  )
        12        Si     tau(  12) = (  -0.0096473   1.4491888   0.4321574  )
        13        Si     tau(  13) = (   0.4902093   1.1595200   0.4289633  )
        14        Si     tau(  14) = (   0.1742531   1.1595200   1.4697999  )
        15        Al     tau(  15) = (   0.1543345   0.5747204   1.4740001  )
        16        Al     tau(  16) = (   0.5101278   0.5747204   0.4247630  )
        17        O      tau(  17) = (  -0.0012592   0.2818481   0.7295089  )
        18        O      tau(  18) = (   0.6657216   0.2818481   1.1692542  )
        19        O      tau(  19) = (   0.6685961   1.4471586   1.1606636  )
        20        O      tau(  20) = (  -0.0041337   1.4471586   0.7380994  )
        21        O      tau(  21) = (   0.4987436   1.1712706   0.7358849  )
        22        O      tau(  22) = (   0.1657189   1.1712706   1.1628781  )
        23        O      tau(  23) = (   0.1567635   0.5694478   1.1461466  )
        24        O      tau(  24) = (   0.5076990   0.5694478   0.7526164  )
        25        O      tau(  25) = (   0.2902540   0.3495747   0.3129592  )
        26        O      tau(  26) = (   0.3742085   0.3495747   1.5858038  )
        27        O      tau(  27) = (   0.9372223   1.7319282   0.3154897  )
        28        O      tau(  28) = (  -0.2727599   1.7319282   1.5832733  )
        29        O      tau(  29) = (   0.4000729   1.3503650   1.5810637  )
        30        O      tau(  30) = (   0.2643895   1.3503650   0.3176993  )
        31        O      tau(  31) = (   0.7640372   1.2675250   0.3146147  )
        32        O      tau(  32) = (  -0.0995748   1.2675250   1.5841484  )
        33        O      tau(  33) = (   0.4387614   0.8823365   0.3103250  )
        34        O      tau(  34) = (   0.2257009   0.8823365   1.5884380  )
        35        O      tau(  35) = (  -0.1417505   0.4835473   1.5977894  )
        36        O      tau(  36) = (   0.8062129   0.4835473   0.3009737  )
        37        O      tau(  37) = (  -0.0121541   0.8741612   0.7428984  )
        38        O      tau(  38) = (   0.6766165   0.8741612   1.1558646  )
        39        O      tau(  39) = (   0.5005262   1.7348389   0.7531903  )
        40        O      tau(  40) = (   0.1639362   1.7348389   1.1455728  )
        41        H      tau(  41) = (   0.0055574   0.8589091   0.5615861  )
        42        H      tau(  42) = (   0.6589050   0.8589091   1.3371770  )
        43        H      tau(  43) = (   0.4957218   0.0282432   0.5730505  )
        44        H      tau(  44) = (   0.1687407   0.0282432   1.3257126  )

     -------------------------------------------------
     Parameters for Dispersion (Grimme-D2) Correction:
     -------------------------------------------------
       atom      VdW radius       C_6     

        Al         3.097        374.319
        Fe         2.952        374.666
        H          1.892          4.857
        K          2.806        374.666
        Mg         2.578        198.087
        O          2.536         24.284
        Si         3.243        320.200

   Crystallographic axes

     site n.     atom                  positions (cryst. coord.)
         1        K      tau(   1) = (  0.0000000  0.4979187  0.0000000  )
         2        K      tau(   2) = (  0.5000000  0.0009007  0.0000000  )
         3        Mg     tau(   3) = (  0.0000000  0.0033755  0.5000000  )
         4        Mg     tau(   4) = (  0.0000000  0.3313628  0.5000000  )
         5        Mg     tau(   5) = (  0.0000000  0.6658803  0.5000000  )
         6        Mg     tau(   6) = (  0.5000000  0.8357729  0.5000000  )
         7        Mg     tau(   7) = (  0.5000000  0.1681941  0.5000000  )
         8        Fe     tau(   8) = (  0.5000000  0.4924963  0.5000000  )
         9        Si     tau(   9) = (  0.0836369  0.1649526  0.2217311  )
        10        Si     tau(  10) = (  0.9163631  0.1649526  0.7782689  )
        11        Si     tau(  11) = (  0.9332791  0.8345135  0.7724006  )
        12        Si     tau(  12) = (  0.0667209  0.8345135  0.2275995  )
        13        Si     tau(  13) = (  0.5660130  0.6677081  0.2259172  )
        14        Si     tau(  14) = (  0.4339870  0.6677081  0.7740828  )
        15        Al     tau(  15) = (  0.4148107  0.3309520  0.7762949  )
        16        Al     tau(  16) = (  0.5851893  0.3309520  0.2237051  )
        17        O      tau(  17) = (  0.1276551  0.1623018  0.3842022  )
        18        O      tau(  18) = (  0.8723449  0.1623018  0.6157978  )
        19        O      tau(  19) = (  0.8737013  0.8333444  0.6112735  )
        20        O      tau(  20) = (  0.1262987  0.8333444  0.3887264  )
        21        O      tau(  21) = (  0.6287846  0.6744747  0.3875601  )
        22        O      tau(  22) = (  0.3712154  0.6744747  0.6124398  )
        23        O      tau(  23) = (  0.3593034  0.3279158  0.6036280  )
        24        O      tau(  24) = (  0.6406966  0.3279158  0.3963720  )
        25        O      tau(  25) = (  0.3455582  0.2013021  0.1648227  )
        26        O      tau(  26) = (  0.6544418  0.2013021  0.8351773  )
        27        O      tau(  27) = (  0.9929737  0.9973286  0.1661554  )
        28        O      tau(  28) = (  0.0070263  0.9973286  0.8338446  )
        29        O      tau(  29) = (  0.6794686  0.7776060  0.8326809  )
        30        O      tau(  30) = (  0.3205314  0.7776060  0.1673191  )
        31        O      tau(  31) = (  0.8196340  0.7299026  0.1656946  )
        32        O      tau(  32) = (  0.1803660  0.7299026  0.8343055  )
        33        O      tau(  33) = (  0.4936002  0.5080923  0.1634354  )
        34        O      tau(  34) = (  0.5063998  0.5080923  0.8365646  )
        35        O      tau(  35) = (  0.1406009  0.2784501  0.8414896  )
        36        O      tau(  36) = (  0.8593991  0.2784501  0.1585104  )
        37        O      tau(  37) = (  0.1191263  0.5033846  0.3912539  )
        38        O      tau(  38) = (  0.8808737  0.5033846  0.6087461  )
        39        O      tau(  39) = (  0.6336253  0.9990047  0.3966742  )
        40        O      tau(  40) = (  0.3663747  0.9990047  0.6033258  )
        41        H      tau(  41) = (  0.1047974  0.4946017  0.2957642  )
        42        H      tau(  42) = (  0.8952026  0.4946017  0.7042359  )
        43        H      tau(  43) = (  0.5969877  0.0162638  0.3018020  )
        44        H      tau(  44) = (  0.4030123  0.0162638  0.6981980  )

     number of k points=    20  Gaussian smearing, width (Ry)=  0.0010
                       cart. coord. in units 2pi/alat
        k(    1) = (   0.0000000   0.0000000   0.0000000), wk =   0.0185185
        k(    2) = (   0.0000000   0.0000000   0.1755529), wk =   0.0370370
        k(    3) = (   0.0000000   0.1919496   0.0000000), wk =   0.0370370
        k(    4) = (   0.0000000   0.1919496   0.1755529), wk =   0.0740741
        k(    5) = (   0.1666667   0.0000000   0.0294523), wk =   0.0370370
        k(    6) = (   0.1666667   0.0000000   0.2050052), wk =   0.0370370
        k(    7) = (   0.1666667   0.0000000  -0.1461006), wk =   0.0370370
        k(    8) = (   0.1666667   0.1919496   0.0294523), wk =   0.0740741
        k(    9) = (   0.1666667   0.1919496   0.2050052), wk =   0.0740741
        k(   10) = (   0.1666667   0.1919496  -0.1461006), wk =   0.0740741
        k(   11) = (   0.3333333   0.0000000   0.0589046), wk =   0.0370370
        k(   12) = (   0.3333333   0.0000000   0.2344575), wk =   0.0370370
        k(   13) = (   0.3333333   0.0000000  -0.1166483), wk =   0.0370370
        k(   14) = (   0.3333333   0.1919496   0.0589046), wk =   0.0740741
        k(   15) = (   0.3333333   0.1919496   0.2344575), wk =   0.0740741
        k(   16) = (   0.3333333   0.1919496  -0.1166483), wk =   0.0740741
        k(   17) = (  -0.5000000   0.0000000  -0.0883569), wk =   0.0185185
        k(   18) = (  -0.5000000   0.0000000   0.0871960), wk =   0.0370370
        k(   19) = (  -0.5000000   0.1919496  -0.0883569), wk =   0.0370370
        k(   20) = (  -0.5000000   0.1919496   0.0871960), wk =   0.0740741

                       cryst. coord.
        k(    1) = (   0.0000000   0.0000000   0.0000000), wk =   0.0185185
        k(    2) = (   0.0000000   0.0000000   0.3333333), wk =   0.0370370
        k(    3) = (   0.0000000   0.3333333   0.0000000), wk =   0.0370370
        k(    4) = (   0.0000000   0.3333333   0.3333333), wk =   0.0740741
        k(    5) = (   0.1666667   0.0000000   0.0000000), wk =   0.0370370
        k(    6) = (   0.1666667   0.0000000   0.3333333), wk =   0.0370370
        k(    7) = (   0.1666667   0.0000000  -0.3333333), wk =   0.0370370
        k(    8) = (   0.1666667   0.3333333   0.0000000), wk =   0.0740741
        k(    9) = (   0.1666667   0.3333333   0.3333333), wk =   0.0740741
        k(   10) = (   0.1666667   0.3333333  -0.3333333), wk =   0.0740741
        k(   11) = (   0.3333333   0.0000000   0.0000000), wk =   0.0370370
        k(   12) = (   0.3333333   0.0000000   0.3333333), wk =   0.0370370
        k(   13) = (   0.3333333   0.0000000  -0.3333333), wk =   0.0370370
        k(   14) = (   0.3333333   0.3333333   0.0000000), wk =   0.0740741
        k(   15) = (   0.3333333   0.3333333   0.3333333), wk =   0.0740741
        k(   16) = (   0.3333333   0.3333333  -0.3333333), wk =   0.0740741
        k(   17) = (  -0.5000000   0.0000000   0.0000000), wk =   0.0185185
        k(   18) = (  -0.5000000   0.0000000   0.3333333), wk =   0.0370370
        k(   19) = (  -0.5000000   0.3333333   0.0000000), wk =   0.0370370
        k(   20) = (  -0.5000000   0.3333333   0.3333333), wk =   0.0740741

     Dense  grid:   583539 G-vectors     FFT dimensions: (  72, 125, 135)

     Smooth grid:   206401 G-vectors     FFT dimensions: (  50,  90,  96)

     Dynamical RAM for                 wfc:       5.15 MB

     Dynamical RAM for     wfc (w. buffer):     211.08 MB

     Dynamical RAM for           str. fact:       5.19 MB

     Dynamical RAM for           local pot:       0.00 MB

     Dynamical RAM for          nlocal pot:      14.36 MB

     Dynamical RAM for                qrad:      24.61 MB

     Dynamical RAM for          rho,v,vnew:       9.40 MB

     Dynamical RAM for               rhoin:       3.13 MB

     Dynamical RAM for            rho*nmix:      23.74 MB

     Dynamical RAM for           G-vectors:       2.91 MB

     Dynamical RAM for          h,s,v(r/c):       1.13 MB

     Dynamical RAM for          <psi|beta>:       1.05 MB

     Dynamical RAM for                 psi:      10.30 MB

     Dynamical RAM for                hpsi:      10.30 MB

     Dynamical RAM for                spsi:      10.30 MB

     Dynamical RAM for      wfcinit/wfcrot:      12.77 MB

     Dynamical RAM for           addusdens:     156.57 MB

     Dynamical RAM for          addusforce:     190.89 MB

     Dynamical RAM for         addusstress:     150.26 MB

     Estimated static dynamical RAM per process >     281.57 MB

     Estimated max dynamical RAM per process >     496.20 MB

     Estimated total dynamical RAM >       5.81 GB

     Check: negative core charge=   -0.000004
     Generating pointlists ...
     new r_m :   0.1353 (alat units)  1.3510 (a.u.) for type    1
     new r_m :   0.1604 (alat units)  1.6021 (a.u.) for type    2
     new r_m :   0.0754 (alat units)  0.7527 (a.u.) for type    3
     new r_m :   0.2116 (alat units)  2.1132 (a.u.) for type    4
     new r_m :   0.1566 (alat units)  1.5639 (a.u.) for type    5
     new r_m :   0.0754 (alat units)  0.7527 (a.u.) for type    6
     new r_m :   0.1262 (alat units)  1.2602 (a.u.) for type    7

     Initial potential from superposition of free atoms

     starting charge     261.9493, renormalised to     262.0000
     Starting wfcs are  183 randomized atomic wfcs
     Checking if some PAW data can be deallocated... 
       PAW data deallocated on   11 nodes for type:  1
       PAW data deallocated on   11 nodes for type:  2
       PAW data deallocated on   10 nodes for type:  3
       PAW data deallocated on   11 nodes for type:  4
       PAW data deallocated on   10 nodes for type:  5
       PAW data deallocated on    5 nodes for type:  6
       PAW data deallocated on   10 nodes for type:  7

     total cpu time spent up to now is      245.0 secs

     Self-consistent Calculation

     iteration #  1     ecut=    60.00 Ry     beta= 0.70
     Davidson diagonalization with overlap

---- Real-time Memory Report at c_bands before calling an iterative solver
           339 MiB given to the printing process from OS
             0 MiB allocation reported by mallinfo(arena+hblkhd)
          4068 MiB available memory on the node where the printing process lives
------------------
     ethr =  1.00E-02,  avg # of iterations =  5.9

     total cpu time spent up to now is     1020.1 secs

     total energy              =   -2623.83584595 Ry
     estimated scf accuracy    <      12.42903905 Ry

     total magnetization       =     4.00 Bohr mag/cell
     absolute magnetization    =     4.05 Bohr mag/cell

     iteration #  2     ecut=    60.00 Ry     beta= 0.70
     Davidson diagonalization with overlap

---- Real-time Memory Report at c_bands before calling an iterative solver
           525 MiB given to the printing process from OS
             0 MiB allocation reported by mallinfo(arena+hblkhd)
          3757 MiB available memory on the node where the printing process lives
------------------
     ethr =  4.74E-03,  avg # of iterations =  5.1

     total cpu time spent up to now is     2228.5 secs

     total energy              =   -2628.87923105 Ry
     estimated scf accuracy    <      12.60538971 Ry

     total magnetization       =     3.39 Bohr mag/cell
     absolute magnetization    =     3.72 Bohr mag/cell

     iteration #  3     ecut=    60.00 Ry     beta= 0.70
     Davidson diagonalization with overlap

---- Real-time Memory Report at c_bands before calling an iterative solver
           526 MiB given to the printing process from OS
             0 MiB allocation reported by mallinfo(arena+hblkhd)
          3607 MiB available memory on the node where the printing process lives
------------------
     ethr =  4.74E-03,  avg # of iterations =  2.0

     total cpu time spent up to now is     2811.5 secs

     total energy              =   -2629.52173489 Ry
     estimated scf accuracy    <      10.10703847 Ry

     total magnetization       =     3.11 Bohr mag/cell
     absolute magnetization    =     3.53 Bohr mag/cell

     iteration #  4     ecut=    60.00 Ry     beta= 0.70
     Davidson diagonalization with overlap

---- Real-time Memory Report at c_bands before calling an iterative solver
           527 MiB given to the printing process from OS
             0 MiB allocation reported by mallinfo(arena+hblkhd)
          3754 MiB available memory on the node where the printing process lives
------------------
     ethr =  3.86E-03,  avg # of iterations =  2.0

     total cpu time spent up to now is     3408.2 secs

     total energy              =   -2630.75369545 Ry
     estimated scf accuracy    <       0.81184632 Ry

     total magnetization       =     4.00 Bohr mag/cell
     absolute magnetization    =     4.26 Bohr mag/cell

     iteration #  5     ecut=    60.00 Ry     beta= 0.70
     Davidson diagonalization with overlap

---- Real-time Memory Report at c_bands before calling an iterative solver
           529 MiB given to the printing process from OS
             0 MiB allocation reported by mallinfo(arena+hblkhd)
          3669 MiB available memory on the node where the printing process lives
------------------
     c_bands:  1 eigenvalues not converged
     c_bands:  1 eigenvalues not converged
     ethr =  3.10E-04,  avg # of iterations = 10.0

     total cpu time spent up to now is     4631.7 secs

     total energy              =   -2631.34582319 Ry
     estimated scf accuracy    <       0.10062403 Ry

     total magnetization       =     4.00 Bohr mag/cell
     absolute magnetization    =     4.05 Bohr mag/cell

     iteration #  6     ecut=    60.00 Ry     beta= 0.70
     Davidson diagonalization with overlap

---- Real-time Memory Report at c_bands before calling an iterative solver
           530 MiB given to the printing process from OS
             0 MiB allocation reported by mallinfo(arena+hblkhd)
          3601 MiB available memory on the node where the printing process lives
------------------
     c_bands:  3 eigenvalues not converged
     c_bands:  1 eigenvalues not converged
     c_bands:  1 eigenvalues not converged
     c_bands:  1 eigenvalues not converged
     c_bands:  1 eigenvalues not converged
     c_bands:  1 eigenvalues not converged
     c_bands:  1 eigenvalues not converged
     c_bands:  2 eigenvalues not converged
     c_bands:  1 eigenvalues not converged
     c_bands:  2 eigenvalues not converged
     c_bands:  1 eigenvalues not converged
     c_bands:  2 eigenvalues not converged
     c_bands:  1 eigenvalues not converged
     c_bands:  1 eigenvalues not converged
     c_bands:  2 eigenvalues not converged
     c_bands:  1 eigenvalues not converged
     c_bands:  1 eigenvalues not converged
     ethr =  3.84E-05,  avg # of iterations = 18.0

     negative rho (up, down):  0.000E+00 4.985E-05

     total cpu time spent up to now is     5956.7 secs

     total energy              =   -2631.37625810 Ry
     estimated scf accuracy    <       0.03317564 Ry

     total magnetization       =     4.00 Bohr mag/cell
     absolute magnetization    =     4.05 Bohr mag/cell

     iteration #  7     ecut=    60.00 Ry     beta= 0.70
     Davidson diagonalization with overlap

---- Real-time Memory Report at c_bands before calling an iterative solver
           531 MiB given to the printing process from OS
             0 MiB allocation reported by mallinfo(arena+hblkhd)
          3715 MiB available memory on the node where the printing process lives
------------------
     c_bands:  1 eigenvalues not converged
     c_bands:  1 eigenvalues not converged
     c_bands:  1 eigenvalues not converged
     c_bands:  1 eigenvalues not converged
     c_bands:  1 eigenvalues not converged
     c_bands:  1 eigenvalues not converged
     ethr =  1.27E-05,  avg # of iterations = 13.6

     negative rho (up, down):  0.000E+00 1.030E-04

     total cpu time spent up to now is     6944.2 secs

     total energy              =   -2631.38424679 Ry
     estimated scf accuracy    <       0.00944665 Ry

     total magnetization       =     4.00 Bohr mag/cell
     absolute magnetization    =     4.05 Bohr mag/cell

     iteration #  8     ecut=    60.00 Ry     beta= 0.70
     Davidson diagonalization with overlap

---- Real-time Memory Report at c_bands before calling an iterative solver
           533 MiB given to the printing process from OS
             0 MiB allocation reported by mallinfo(arena+hblkhd)
          3496 MiB available memory on the node where the printing process lives
------------------
     c_bands:  1 eigenvalues not converged
     c_bands:  1 eigenvalues not converged
     c_bands:  1 eigenvalues not converged
     c_bands:  1 eigenvalues not converged
     c_bands:  1 eigenvalues not converged
     c_bands:  1 eigenvalues not converged
     c_bands:  1 eigenvalues not converged
     c_bands:  1 eigenvalues not converged
     ethr =  3.61E-06,  avg # of iterations = 13.2

     negative rho (up, down):  0.000E+00 1.245E-04

     total cpu time spent up to now is     7872.3 secs

     total energy              =   -2631.38614379 Ry
     estimated scf accuracy    <       0.00514098 Ry

     total magnetization       =     4.00 Bohr mag/cell
     absolute magnetization    =     4.06 Bohr mag/cell

     iteration #  9     ecut=    60.00 Ry     beta= 0.70
     Davidson diagonalization with overlap

---- Real-time Memory Report at c_bands before calling an iterative solver
           534 MiB given to the printing process from OS
             0 MiB allocation reported by mallinfo(arena+hblkhd)
          3378 MiB available memory on the node where the printing process lives
------------------
     c_bands:  1 eigenvalues not converged
     c_bands:  1 eigenvalues not converged
     ethr =  1.96E-06,  avg # of iterations =  3.3

     negative rho (up, down):  0.000E+00 1.409E-04

     total cpu time spent up to now is     8549.0 secs

     total energy              =   -2631.38642677 Ry
     estimated scf accuracy    <       0.00316688 Ry

     total magnetization       =     4.00 Bohr mag/cell
     absolute magnetization    =     4.06 Bohr mag/cell

     iteration # 10     ecut=    60.00 Ry     beta= 0.70
     Davidson diagonalization with overlap

---- Real-time Memory Report at c_bands before calling an iterative solver
           535 MiB given to the printing process from OS
             0 MiB allocation reported by mallinfo(arena+hblkhd)
          3515 MiB available memory on the node where the printing process lives
------------------
     ethr =  1.21E-06,  avg # of iterations =  2.4

     negative rho (up, down):  0.000E+00 1.609E-04

     total cpu time spent up to now is     9183.9 secs

     total energy              =   -2631.38648007 Ry
     estimated scf accuracy    <       0.00155586 Ry

     total magnetization       =     4.00 Bohr mag/cell
     absolute magnetization    =     4.06 Bohr mag/cell

     iteration # 11     ecut=    60.00 Ry     beta= 0.70
     Davidson diagonalization with overlap

---- Real-time Memory Report at c_bands before calling an iterative solver
           535 MiB given to the printing process from OS
             0 MiB allocation reported by mallinfo(arena+hblkhd)
          3632 MiB available memory on the node where the printing process lives
------------------
     ethr =  5.94E-07,  avg # of iterations =  6.5

     negative rho (up, down):  0.000E+00 1.674E-04

     total cpu time spent up to now is    10028.9 secs

     total energy              =   -2631.38759145 Ry
     estimated scf accuracy    <       0.00052001 Ry

     total magnetization       =     4.00 Bohr mag/cell
     absolute magnetization    =     4.06 Bohr mag/cell

     iteration # 12     ecut=    60.00 Ry     beta= 0.70
     Davidson diagonalization with overlap

---- Real-time Memory Report at c_bands before calling an iterative solver
           535 MiB given to the printing process from OS
             0 MiB allocation reported by mallinfo(arena+hblkhd)
          3673 MiB available memory on the node where the printing process lives
------------------
     ethr =  1.98E-07,  avg # of iterations =  5.2

     negative rho (up, down):  0.000E+00 1.649E-04

     total cpu time spent up to now is    10840.5 secs

     total energy              =   -2631.38794109 Ry
     estimated scf accuracy    <       0.00051907 Ry

     total magnetization       =     4.00 Bohr mag/cell
     absolute magnetization    =     4.06 Bohr mag/cell

     iteration # 13     ecut=    60.00 Ry     beta= 0.70
     Davidson diagonalization with overlap

---- Real-time Memory Report at c_bands before calling an iterative solver
           535 MiB given to the printing process from OS
             0 MiB allocation reported by mallinfo(arena+hblkhd)
          3787 MiB available memory on the node where the printing process lives
------------------
     ethr =  1.98E-07,  avg # of iterations =  3.9

     negative rho (up, down):  0.000E+00 1.641E-04

     total cpu time spent up to now is    11541.6 secs

     total energy              =   -2631.38800525 Ry
     estimated scf accuracy    <       0.00054556 Ry

     total magnetization       =     4.00 Bohr mag/cell
     absolute magnetization    =     4.06 Bohr mag/cell

     iteration # 14     ecut=    60.00 Ry     beta= 0.70
     Davidson diagonalization with overlap

---- Real-time Memory Report at c_bands before calling an iterative solver
           535 MiB given to the printing process from OS
             0 MiB allocation reported by mallinfo(arena+hblkhd)
          3516 MiB available memory on the node where the printing process lives
------------------
     ethr =  1.98E-07,  avg # of iterations =  1.5

     negative rho (up, down):  0.000E+00 1.661E-04

     total cpu time spent up to now is    12077.6 secs

     total energy              =   -2631.38774047 Ry
     estimated scf accuracy    <       0.00047781 Ry

     total magnetization       =     4.00 Bohr mag/cell
     absolute magnetization    =     4.06 Bohr mag/cell

     iteration # 15     ecut=    60.00 Ry     beta= 0.70
     Davidson diagonalization with overlap

---- Real-time Memory Report at c_bands before calling an iterative solver
           535 MiB given to the printing process from OS
             0 MiB allocation reported by mallinfo(arena+hblkhd)
          3707 MiB available memory on the node where the printing process lives
------------------
     ethr =  1.82E-07,  avg # of iterations =  2.0

     negative rho (up, down):  0.000E+00 1.725E-04

     total cpu time spent up to now is    12664.3 secs

     total energy              =   -2631.38796201 Ry
     estimated scf accuracy    <       0.00041289 Ry

     total magnetization       =     4.00 Bohr mag/cell
     absolute magnetization    =     4.06 Bohr mag/cell

     iteration # 16     ecut=    60.00 Ry     beta= 0.70
     Davidson diagonalization with overlap

---- Real-time Memory Report at c_bands before calling an iterative solver
           535 MiB given to the printing process from OS
             0 MiB allocation reported by mallinfo(arena+hblkhd)
          3633 MiB available memory on the node where the printing process lives
------------------
     ethr =  1.58E-07,  avg # of iterations =  4.1

     negative rho (up, down):  0.000E+00 1.726E-04

     total cpu time spent up to now is    13480.5 secs

     total energy              =   -2631.38809650 Ry
     estimated scf accuracy    <       0.00106505 Ry

     total magnetization       =     4.00 Bohr mag/cell
     absolute magnetization    =     4.06 Bohr mag/cell

     iteration # 17     ecut=    60.00 Ry     beta= 0.70
     Davidson diagonalization with overlap

---- Real-time Memory Report at c_bands before calling an iterative solver
           535 MiB given to the printing process from OS
             0 MiB allocation reported by mallinfo(arena+hblkhd)
          3455 MiB available memory on the node where the printing process lives
------------------
     ethr =  1.58E-07,  avg # of iterations =  1.2

     negative rho (up, down):  0.000E+00 1.663E-04

     total cpu time spent up to now is    13991.9 secs

     total energy              =   -2631.38734413 Ry
     estimated scf accuracy    <       0.00116013 Ry

     total magnetization       =     4.00 Bohr mag/cell
     absolute magnetization    =     4.06 Bohr mag/cell

     iteration # 18     ecut=    60.00 Ry     beta= 0.70
     Davidson diagonalization with overlap

---- Real-time Memory Report at c_bands before calling an iterative solver
           535 MiB given to the printing process from OS
             0 MiB allocation reported by mallinfo(arena+hblkhd)
          3811 MiB available memory on the node where the printing process lives
------------------
     ethr =  1.58E-07,  avg # of iterations =  2.5

     negative rho (up, down):  0.000E+00 1.708E-04

     total cpu time spent up to now is    14697.4 secs

     total energy              =   -2631.38773051 Ry
     estimated scf accuracy    <       0.00065436 Ry

     total magnetization       =     4.00 Bohr mag/cell
     absolute magnetization    =     4.06 Bohr mag/cell

     iteration # 19     ecut=    60.00 Ry     beta= 0.70
     Davidson diagonalization with overlap

---- Real-time Memory Report at c_bands before calling an iterative solver
           535 MiB given to the printing process from OS
             0 MiB allocation reported by mallinfo(arena+hblkhd)
          3563 MiB available memory on the node where the printing process lives
------------------
     ethr =  1.58E-07,  avg # of iterations =  2.6

     negative rho (up, down):  0.000E+00 2.014E-04

     total cpu time spent up to now is    15311.8 secs

     total energy              =   -2631.38312743 Ry
     estimated scf accuracy    <       0.00058185 Ry

     total magnetization       =     4.00 Bohr mag/cell
     absolute magnetization    =     4.06 Bohr mag/cell

     iteration # 20     ecut=    60.00 Ry     beta= 0.70
     Davidson diagonalization with overlap

---- Real-time Memory Report at c_bands before calling an iterative solver
           535 MiB given to the printing process from OS
             0 MiB allocation reported by mallinfo(arena+hblkhd)
          3674 MiB available memory on the node where the printing process lives
------------------
     ethr =  1.58E-07,  avg # of iterations =  7.0

     negative rho (up, down):  0.000E+00 1.813E-04

     total cpu time spent up to now is    16295.6 secs

     total energy              =   -2631.38790735 Ry
     estimated scf accuracy    <       0.00275193 Ry

     total magnetization       =     4.00 Bohr mag/cell
     absolute magnetization    =     4.05 Bohr mag/cell

     iteration # 21     ecut=    60.00 Ry     beta= 0.70
     Davidson diagonalization with overlap

---- Real-time Memory Report at c_bands before calling an iterative solver
           535 MiB given to the printing process from OS
             0 MiB allocation reported by mallinfo(arena+hblkhd)
          3541 MiB available memory on the node where the printing process lives
------------------
     ethr =  1.58E-07,  avg # of iterations =  5.5

     negative rho (up, down):  0.000E+00 1.730E-04

     total cpu time spent up to now is    17086.0 secs

     total energy              =   -2631.38781614 Ry
     estimated scf accuracy    <       0.00044263 Ry

     total magnetization       =     4.00 Bohr mag/cell
     absolute magnetization    =     4.05 Bohr mag/cell

     iteration # 22     ecut=    60.00 Ry     beta= 0.70
     Davidson diagonalization with overlap

---- Real-time Memory Report at c_bands before calling an iterative solver
           535 MiB given to the printing process from OS
             0 MiB allocation reported by mallinfo(arena+hblkhd)
          3481 MiB available memory on the node where the printing process lives
------------------
     ethr =  1.58E-07,  avg # of iterations =  5.0

     negative rho (up, down):  0.000E+00 1.743E-04

     total cpu time spent up to now is    17784.6 secs

     total energy              =   -2631.38853647 Ry
     estimated scf accuracy    <       0.00057014 Ry

     total magnetization       =     4.00 Bohr mag/cell
     absolute magnetization    =     4.05 Bohr mag/cell

     iteration # 23     ecut=    60.00 Ry     beta= 0.70
     Davidson diagonalization with overlap

---- Real-time Memory Report at c_bands before calling an iterative solver
           535 MiB given to the printing process from OS
             0 MiB allocation reported by mallinfo(arena+hblkhd)
          3604 MiB available memory on the node where the printing process lives
------------------
     ethr =  1.58E-07,  avg # of iterations =  2.0

     negative rho (up, down):  0.000E+00 1.723E-04

     total cpu time spent up to now is    18370.8 secs

     total energy              =   -2631.38805473 Ry
     estimated scf accuracy    <       0.00053059 Ry

     total magnetization       =     4.00 Bohr mag/cell
     absolute magnetization    =     4.05 Bohr mag/cell

     iteration # 24     ecut=    60.00 Ry     beta= 0.70
     Davidson diagonalization with overlap

---- Real-time Memory Report at c_bands before calling an iterative solver
           535 MiB given to the printing process from OS
             0 MiB allocation reported by mallinfo(arena+hblkhd)
          3731 MiB available memory on the node where the printing process lives
------------------
     ethr =  1.58E-07,  avg # of iterations =  3.4

     negative rho (up, down):  0.000E+00 1.820E-04

     total cpu time spent up to now is    19036.7 secs

     total energy              =   -2631.38829901 Ry
     estimated scf accuracy    <       0.00074750 Ry

     total magnetization       =     4.00 Bohr mag/cell
     absolute magnetization    =     4.06 Bohr mag/cell

     iteration # 25     ecut=    60.00 Ry     beta= 0.70
     Davidson diagonalization with overlap

---- Real-time Memory Report at c_bands before calling an iterative solver
           535 MiB given to the printing process from OS
             0 MiB allocation reported by mallinfo(arena+hblkhd)
          3575 MiB available memory on the node where the printing process lives
------------------
     ethr =  1.58E-07,  avg # of iterations =  3.5

     negative rho (up, down):  0.000E+00 1.987E-04

     total cpu time spent up to now is    19683.8 secs

     total energy              =   -2631.38788596 Ry
     estimated scf accuracy    <       0.00132733 Ry

     total magnetization       =     4.00 Bohr mag/cell
     absolute magnetization    =     4.05 Bohr mag/cell

     iteration # 26     ecut=    60.00 Ry     beta= 0.70
     Davidson diagonalization with overlap

---- Real-time Memory Report at c_bands before calling an iterative solver
           535 MiB given to the printing process from OS
             0 MiB allocation reported by mallinfo(arena+hblkhd)
          3769 MiB available memory on the node where the printing process lives
------------------
     ethr =  1.58E-07,  avg # of iterations =  6.2

     negative rho (up, down):  0.000E+00 2.167E-04

     total cpu time spent up to now is    20428.0 secs

     total energy              =   -2631.38801521 Ry
     estimated scf accuracy    <       0.00039086 Ry

     total magnetization       =     4.00 Bohr mag/cell
     absolute magnetization    =     4.05 Bohr mag/cell

     iteration # 27     ecut=    60.00 Ry     beta= 0.70
     Davidson diagonalization with overlap

---- Real-time Memory Report at c_bands before calling an iterative solver
           535 MiB given to the printing process from OS
             0 MiB allocation reported by mallinfo(arena+hblkhd)
          3690 MiB available memory on the node where the printing process lives
------------------
     ethr =  1.49E-07,  avg # of iterations =  6.0

     negative rho (up, down):  0.000E+00 1.997E-04

     total cpu time spent up to now is    21180.3 secs

     total energy              =   -2631.38831459 Ry
     estimated scf accuracy    <       0.00056248 Ry

     total magnetization       =     4.00 Bohr mag/cell
     absolute magnetization    =     4.04 Bohr mag/cell

     iteration # 28     ecut=    60.00 Ry     beta= 0.70
     Davidson diagonalization with overlap

---- Real-time Memory Report at c_bands before calling an iterative solver
           535 MiB given to the printing process from OS
             0 MiB allocation reported by mallinfo(arena+hblkhd)
          3711 MiB available memory on the node where the printing process lives
------------------
     ethr =  1.49E-07,  avg # of iterations =  5.8

     negative rho (up, down):  0.000E+00 2.014E-04

     total cpu time spent up to now is    21904.7 secs

     total energy              =   -2631.38934305 Ry
     estimated scf accuracy    <       0.00016635 Ry

     total magnetization       =     4.00 Bohr mag/cell
     absolute magnetization    =     4.05 Bohr mag/cell

     iteration # 29     ecut=    60.00 Ry     beta= 0.70
     Davidson diagonalization with overlap

---- Real-time Memory Report at c_bands before calling an iterative solver
           535 MiB given to the printing process from OS
             0 MiB allocation reported by mallinfo(arena+hblkhd)
          3629 MiB available memory on the node where the printing process lives
------------------
     ethr =  6.35E-08,  avg # of iterations =  2.0

     negative rho (up, down):  0.000E+00 2.038E-04

     total cpu time spent up to now is    22485.5 secs

     total energy              =   -2631.38936681 Ry
     estimated scf accuracy    <       0.00010994 Ry

     total magnetization       =     4.00 Bohr mag/cell
     absolute magnetization    =     4.05 Bohr mag/cell

     iteration # 30     ecut=    60.00 Ry     beta= 0.70
     Davidson diagonalization with overlap

---- Real-time Memory Report at c_bands before calling an iterative solver
           535 MiB given to the printing process from OS
             0 MiB allocation reported by mallinfo(arena+hblkhd)
          3630 MiB available memory on the node where the printing process lives
------------------
     ethr =  4.20E-08,  avg # of iterations =  3.2

     negative rho (up, down):  0.000E+00 2.076E-04

     total cpu time spent up to now is    23108.1 secs

     total energy              =   -2631.38937121 Ry
     estimated scf accuracy    <       0.00005251 Ry

     total magnetization       =     4.00 Bohr mag/cell
     absolute magnetization    =     4.05 Bohr mag/cell

     iteration # 31     ecut=    60.00 Ry     beta= 0.70
     Davidson diagonalization with overlap

---- Real-time Memory Report at c_bands before calling an iterative solver
           535 MiB given to the printing process from OS
             0 MiB allocation reported by mallinfo(arena+hblkhd)
          3406 MiB available memory on the node where the printing process lives
------------------
     ethr =  2.00E-08,  avg # of iterations =  5.3

     negative rho (up, down):  0.000E+00 2.092E-04

     total cpu time spent up to now is    23794.7 secs

     total energy              =   -2631.38941728 Ry
     estimated scf accuracy    <       0.00000264 Ry

     total magnetization       =     4.00 Bohr mag/cell
     absolute magnetization    =     4.05 Bohr mag/cell

     iteration # 32     ecut=    60.00 Ry     beta= 0.70
     Davidson diagonalization with overlap

---- Real-time Memory Report at c_bands before calling an iterative solver
           535 MiB given to the printing process from OS
             0 MiB allocation reported by mallinfo(arena+hblkhd)
          3596 MiB available memory on the node where the printing process lives
------------------
     ethr =  1.01E-09,  avg # of iterations =  6.6

     negative rho (up, down):  0.000E+00 2.091E-04

     Magnetic moment per site  (integrated on atomic sphere of radius R)
     atom   1 (R=0.212)  charge=  7.4848  magn=  0.0001
     atom   2 (R=0.212)  charge=  7.4891  magn=  0.0000
     atom   3 (R=0.157)  charge=  8.0959  magn= -0.0000
     atom   4 (R=0.157)  charge=  8.0977  magn=  0.0003
     atom   5 (R=0.157)  charge=  8.0925  magn=  0.0000
     atom   6 (R=0.157)  charge=  8.0964  magn=  0.0001
     atom   7 (R=0.157)  charge=  8.1020  magn=  0.0005
     atom   8 (R=0.160)  charge= 13.3539  magn=  3.3109
     atom   9 (R=0.126)  charge=  0.5491  magn=  0.0000
     atom  10 (R=0.126)  charge=  0.5491  magn=  0.0000
     atom  11 (R=0.126)  charge=  0.5422  magn= -0.0000
     atom  12 (R=0.126)  charge=  0.5422  magn= -0.0000
     atom  13 (R=0.126)  charge=  0.5412  magn=  0.0010
     atom  14 (R=0.126)  charge=  0.5412  magn=  0.0010
     atom  15 (R=0.135)  charge=  0.3370  magn=  0.0011
     atom  16 (R=0.135)  charge=  0.3370  magn=  0.0011
     atom  17 (R=0.075)  charge=  1.9398  magn=  0.0003
     atom  18 (R=0.075)  charge=  1.9398  magn=  0.0003
     atom  19 (R=0.075)  charge=  1.9405  magn=  0.0001
     atom  20 (R=0.075)  charge=  1.9405  magn=  0.0001
     atom  21 (R=0.075)  charge=  1.9363  magn=  0.0154
     atom  22 (R=0.075)  charge=  1.9363  magn=  0.0154
     atom  23 (R=0.075)  charge=  1.9350  magn=  0.0275
     atom  24 (R=0.075)  charge=  1.9350  magn=  0.0275
     atom  25 (R=0.075)  charge=  1.9413  magn=  0.0003
     atom  26 (R=0.075)  charge=  1.9413  magn=  0.0003
     atom  27 (R=0.075)  charge=  1.9439  magn=  0.0000
     atom  28 (R=0.075)  charge=  1.9439  magn=  0.0000
     atom  29 (R=0.075)  charge=  1.9451  magn=  0.0003
     atom  30 (R=0.075)  charge=  1.9451  magn=  0.0003
     atom  31 (R=0.075)  charge=  1.9441  magn=  0.0009
     atom  32 (R=0.075)  charge=  1.9441  magn=  0.0009
     atom  33 (R=0.075)  charge=  1.9388  magn= -0.0001
     atom  34 (R=0.075)  charge=  1.9388  magn= -0.0001
     atom  35 (R=0.075)  charge=  1.9410  magn=  0.0008
     atom  36 (R=0.075)  charge=  1.9410  magn=  0.0008
     atom  37 (R=0.075)  charge=  1.9359  magn=  0.0208
     atom  38 (R=0.075)  charge=  1.9359  magn=  0.0208
     atom  39 (R=0.075)  charge=  1.9421  magn=  0.0007
     atom  40 (R=0.075)  charge=  1.9421  magn=  0.0007
     atom  41 (R=0.075)  charge=  0.4008  magn=  0.0000
     atom  42 (R=0.075)  charge=  0.4008  magn=  0.0000
     atom  43 (R=0.075)  charge=  0.3994  magn= -0.0000
     atom  44 (R=0.075)  charge=  0.3994  magn= -0.0000

     total cpu time spent up to now is    24842.8 secs

     End of self-consistent calculation

 ------ SPIN UP ------------


          k = 0.0000 0.0000 0.0000 ( 25799 PWs)   bands (ev):

   -81.1352 -67.4208 -67.4119 -67.3349 -66.8730 -66.8630 -48.1704 -46.9780
   -46.4261 -34.1952 -34.1785 -34.1752 -34.1651 -34.1586 -34.1469 -34.0991
   -34.0946 -34.0676 -33.6460 -33.6446 -33.6290 -33.6108 -33.6090 -33.5899
   -22.8556 -22.8516 -14.9937 -14.9375 -14.0400 -13.9916 -13.5354 -13.5095
   -13.3093 -13.1880 -13.1563 -12.9687 -12.7633 -12.7543 -12.7287 -12.7104
   -12.6522 -12.5546 -12.4373 -12.3797 -12.1712 -12.1522 -12.1231 -11.9953
   -11.2397 -11.0061  -6.4387  -6.4156  -6.3548  -6.3494  -6.3369  -6.3307
    -4.1532  -4.0943  -2.2914  -2.1880  -1.7631  -1.2979  -1.0779  -1.0432
    -0.9716  -0.8859  -0.5849  -0.5003  -0.3313  -0.2899  -0.2106  -0.0743
     0.0729   0.1477   0.2696   0.5634   0.6995   0.7022   0.7598   0.9269
     0.9707   1.1867   1.2572   1.3182   1.4557   1.5855   1.6035   1.7348
     1.8145   1.8528   2.0480   2.1316   2.2096   2.2490   2.2608   2.3395
     2.4336   2.4542   2.6181   2.7579   2.7709   2.7831   2.8028   2.8534
     2.9495   3.0506   3.0907   3.1224   3.1719   3.2165   3.3728   3.3794
     3.4490   3.4497   3.5183   3.5258   3.6350   3.7363   3.8377   3.8620
     3.9041   3.9257   3.9407   4.0376   4.0415   4.2715   4.4121   4.4693
     5.3383   5.4809   6.5476   6.9529   7.1523   9.2151  10.7464  11.3870
    11.7028  12.0574  12.2475  12.3267  12.5860  12.7199  13.1192  13.1836
    13.2120  13.3540  13.4002  13.5645  13.6980  13.7193  13.8120  13.8361
    13.8895  14.1020  14.4120  14.4418  14.4627

     occupation numbers 
     1.0000   1.0000   1.0000   1.0000   1.0000   1.0000   1.0000   1.0000
     1.0000   1.0000   1.0000   1.0000   1.0000   1.0000   1.0000   1.0000
     1.0000   1.0000   1.0000   1.0000   1.0000   1.0000   1.0000   1.0000
     1.0000   1.0000   1.0000   1.0000   1.0000   1.0000   1.0000   1.0000
     1.0000   1.0000   1.0000   1.0000   1.0000   1.0000   1.0000   1.0000
     1.0000   1.0000   1.0000   1.0000   1.0000   1.0000   1.0000   1.0000
     1.0000   1.0000   1.0000   1.0000   1.0000   1.0000   1.0000   1.0000
     1.0000   1.0000   1.0000   1.0000   1.0000   1.0000   1.0000   1.0000
     1.0000   1.0000   1.0000   1.0000   1.0000   1.0000   1.0000   1.0000
     1.0000   1.0000   1.0000   1.0000   1.0000   1.0000   1.0000   1.0000
     1.0000   1.0000   1.0000   1.0000   1.0000   1.0000   1.0000   1.0000
     1.0000   1.0000   1.0000   1.0000   1.0000   1.0000   1.0000   1.0000
     1.0000   1.0000   1.0000   1.0000   1.0000   1.0000   1.0000   1.0000
     1.0000   1.0000   1.0000   1.0000   1.0000   1.0000   1.0000   1.0000
     1.0000   1.0000   1.0000   1.0000   1.0000   1.0000   1.0000   1.0000
     1.0000   1.0000   1.0000   1.0000   1.0000   1.0000   1.0000   1.0000
     1.0000   1.0000   1.0000   1.0000   1.0000   0.0000   0.0000   0.0000
     0.0000   0.0000   0.0000   0.0000   0.0000   0.0000   0.0000   0.0000
     0.0000   0.0000   0.0000   0.0000   0.0000   0.0000   0.0000   0.0000
     0.0000   0.0000   0.0000   0.0000   0.0000

          k = 0.0000 0.0000 0.1756 ( 25812 PWs)   bands (ev):

   -81.1352 -67.4208 -67.4119 -67.3349 -66.8730 -66.8630 -48.1704 -46.9781
   -46.4262 -34.1953 -34.1785 -34.1752 -34.1651 -34.1586 -34.1470 -34.0991
   -34.0947 -34.0677 -33.6460 -33.6446 -33.6290 -33.6108 -33.6090 -33.5899
   -22.8556 -22.8516 -14.9802 -14.9520 -14.0286 -14.0037 -13.5360 -13.5089
   -13.2978 -13.2085 -13.1476 -12.9646 -12.7665 -12.7482 -12.7372 -12.7114
   -12.6441 -12.5587 -12.4298 -12.3869 -12.1764 -12.1422 -12.1203 -12.0025
   -11.2394 -11.0069  -6.4388  -6.4157  -6.3548  -6.3494  -6.3369  -6.3305
    -4.1518  -4.0961  -2.2678  -2.2164  -1.7294  -1.2856  -1.0779  -1.0372
    -0.9673  -0.9074  -0.5555  -0.5117  -0.3758  -0.2648  -0.2237  -0.1694
     0.0834   0.1893   0.2303   0.5017   0.6780   0.6941   0.7776   0.9653
     1.0125   1.1968   1.2559   1.3179   1.5196   1.5369   1.6592   1.7607
     1.8366   1.8737   2.1078   2.1711   2.2059   2.2462   2.2807   2.3366
     2.3951   2.4496   2.6292   2.7180   2.7350   2.7399   2.7578   2.8689
     2.8993   3.0122   3.0848   3.1669   3.1968   3.2145   3.3386   3.3916
     3.4311   3.4645   3.4684   3.6217   3.6446   3.7604   3.8260   3.8412
     3.8988   3.9212   3.9357   3.9988   4.0149   4.3270   4.4075   4.4693
     5.3375   5.4796   6.5490   6.9443   7.1551   9.5306  10.2602  11.4742
    11.7570  11.9040  12.2253  12.3303  12.7719  12.9240  13.0501  13.1541
    13.2835  13.3306  13.4333  13.5464  13.5755  13.7244  13.8173  13.8426
    13.9965  14.1273  14.1548  14.3911  14.4479

     occupation numbers 
     1.0000   1.0000   1.0000   1.0000   1.0000   1.0000   1.0000   1.0000
     1.0000   1.0000   1.0000   1.0000   1.0000   1.0000   1.0000   1.0000
     1.0000   1.0000   1.0000   1.0000   1.0000   1.0000   1.0000   1.0000
     1.0000   1.0000   1.0000   1.0000   1.0000   1.0000   1.0000   1.0000
     1.0000   1.0000   1.0000   1.0000   1.0000   1.0000   1.0000   1.0000
     1.0000   1.0000   1.0000   1.0000   1.0000   1.0000   1.0000   1.0000
     1.0000   1.0000   1.0000   1.0000   1.0000   1.0000   1.0000   1.0000
     1.0000   1.0000   1.0000   1.0000   1.0000   1.0000   1.0000   1.0000
     1.0000   1.0000   1.0000   1.0000   1.0000   1.0000   1.0000   1.0000
     1.0000   1.0000   1.0000   1.0000   1.0000   1.0000   1.0000   1.0000
     1.0000   1.0000   1.0000   1.0000   1.0000   1.0000   1.0000   1.0000
     1.0000   1.0000   1.0000   1.0000   1.0000   1.0000   1.0000   1.0000
     1.0000   1.0000   1.0000   1.0000   1.0000   1.0000   1.0000   1.0000
     1.0000   1.0000   1.0000   1.0000   1.0000   1.0000   1.0000   1.0000
     1.0000   1.0000   1.0000   1.0000   1.0000   1.0000   1.0000   1.0000
     1.0000   1.0000   1.0000   1.0000   1.0000   1.0000   1.0000   1.0000
     1.0000   1.0000   1.0000   1.0000   1.0000   0.0000   0.0000   0.0000
     0.0000   0.0000   0.0000   0.0000   0.0000   0.0000   0.0000   0.0000
     0.0000   0.0000   0.0000   0.0000   0.0000   0.0000   0.0000   0.0000
     0.0000   0.0000   0.0000   0.0000   0.0000

          k = 0.0000 0.1919 0.0000 ( 25771 PWs)   bands (ev):

   -81.1352 -67.4208 -67.4119 -67.3349 -66.8730 -66.8630 -48.1704 -46.9780
   -46.4262 -34.1952 -34.1785 -34.1752 -34.1651 -34.1586 -34.1470 -34.0990
   -34.0947 -34.0676 -33.6460 -33.6446 -33.6290 -33.6108 -33.6089 -33.5899
   -22.8555 -22.8517 -14.9888 -14.9326 -14.0741 -14.0222 -13.5355 -13.5096
   -13.2264 -13.1359 -13.0811 -12.9916 -12.8479 -12.8027 -12.7560 -12.6866
   -12.6760 -12.5570 -12.4248 -12.3755 -12.1709 -12.1504 -12.1188 -11.9916
   -11.2380 -11.0057  -6.4337  -6.4210  -6.3534  -6.3447  -6.3389  -6.3349
    -4.1155  -4.0551  -2.4337  -2.3261  -1.7119  -1.3483  -0.9833  -0.9564
    -0.8908  -0.8215  -0.6631  -0.5663  -0.3400  -0.2526  -0.1503  -0.0531
     0.0031   0.2028   0.2677   0.5455   0.6391   0.6583   0.7793   0.9363
     0.9645   1.1500   1.1845   1.3191   1.4616   1.6249   1.6264   1.7521
     1.8594   1.9033   2.0555   2.1596   2.2101   2.2397   2.3280   2.3965
     2.4382   2.5187   2.6008   2.6866   2.7537   2.7582   2.8291   2.9114
     2.9862   3.0591   3.0611   3.1140   3.1854   3.2051   3.3342   3.3380
     3.4294   3.4644   3.5036   3.5805   3.6513   3.6620   3.8265   3.8748
     3.8842   3.9085   3.9988   4.0304   4.0388   4.1890   4.2836   4.4493
     5.3510   5.4751   6.5479   6.9144   7.1606   9.6205  10.5755  10.9790
    11.5847  11.9836  12.4022  12.6455  12.6922  12.8704  12.9948  13.1599
    13.2420  13.3492  13.4058  13.5141  13.5681  13.6843  13.7399  13.8357
    13.8498  13.8940  14.4406  14.4471  14.6216

     occupation numbers 
     1.0000   1.0000   1.0000   1.0000   1.0000   1.0000   1.0000   1.0000
     1.0000   1.0000   1.0000   1.0000   1.0000   1.0000   1.0000   1.0000
     1.0000   1.0000   1.0000   1.0000   1.0000   1.0000   1.0000   1.0000
     1.0000   1.0000   1.0000   1.0000   1.0000   1.0000   1.0000   1.0000
     1.0000   1.0000   1.0000   1.0000   1.0000   1.0000   1.0000   1.0000
     1.0000   1.0000   1.0000   1.0000   1.0000   1.0000   1.0000   1.0000
     1.0000   1.0000   1.0000   1.0000   1.0000   1.0000   1.0000   1.0000
     1.0000   1.0000   1.0000   1.0000   1.0000   1.0000   1.0000   1.0000
     1.0000   1.0000   1.0000   1.0000   1.0000   1.0000   1.0000   1.0000
     1.0000   1.0000   1.0000   1.0000   1.0000   1.0000   1.0000   1.0000
     1.0000   1.0000   1.0000   1.0000   1.0000   1.0000   1.0000   1.0000
     1.0000   1.0000   1.0000   1.0000   1.0000   1.0000   1.0000   1.0000
     1.0000   1.0000   1.0000   1.0000   1.0000   1.0000   1.0000   1.0000
     1.0000   1.0000   1.0000   1.0000   1.0000   1.0000   1.0000   1.0000
     1.0000   1.0000   1.0000   1.0000   1.0000   1.0000   1.0000   1.0000
     1.0000   1.0000   1.0000   1.0000   1.0000   1.0000   1.0000   1.0000
     1.0000   1.0000   1.0000   1.0000   1.0000   0.0000   0.0000   0.0000
     0.0000   0.0000   0.0000   0.0000   0.0000   0.0000   0.0000   0.0000
     0.0000   0.0000   0.0000   0.0000   0.0000   0.0000   0.0000   0.0000
     0.0000   0.0000   0.0000   0.0000   0.0000

          k = 0.0000 0.1919 0.1756 ( 25786 PWs)   bands (ev):

   -81.1352 -67.4208 -67.4119 -67.3349 -66.8730 -66.8630 -48.1704 -46.9780
   -46.4262 -34.1953 -34.1785 -34.1752 -34.1651 -34.1586 -34.1470 -34.0990
   -34.0947 -34.0677 -33.6460 -33.6446 -33.6290 -33.6108 -33.6089 -33.5899
   -22.8555 -22.8517 -14.9752 -14.9471 -14.0616 -14.0356 -13.5362 -13.5089
   -13.2193 -13.1279 -13.0996 -12.9820 -12.8624 -12.7880 -12.7575 -12.6896
   -12.6729 -12.5609 -12.4178 -12.3826 -12.1758 -12.1417 -12.1147 -11.9987
   -11.2377 -11.0065  -6.4338  -6.4211  -6.3534  -6.3446  -6.3389  -6.3347
    -4.1109  -4.0601  -2.4096  -2.3531  -1.6828  -1.3372  -0.9718  -0.9582
    -0.8791  -0.8442  -0.6414  -0.5914  -0.3738  -0.2244  -0.1884  -0.1221
     0.0455   0.1994   0.2239   0.5170   0.6223   0.6417   0.8054   0.9486
     1.0233   1.1031   1.1766   1.3677   1.5452   1.6139   1.7136   1.7605
     1.8631   1.9189   2.0808   2.1091   2.1956   2.3013   2.3297   2.4103
     2.4550   2.4793   2.5957   2.6758   2.7025   2.7555   2.8244   2.8846
     2.9246   2.9925   3.0759   3.1418   3.1547   3.2327   3.2848   3.3503
     3.4575   3.4806   3.5270   3.5866   3.6602   3.6892   3.7547   3.8650
     3.9004   3.9356   3.9731   4.0000   4.0322   4.1977   4.3350   4.4520
     5.3512   5.4720   6.5493   6.9047   7.1633   9.8940  10.5472  10.7696
    11.2765  11.9717  12.3942  12.7227  12.8066  13.0293  13.0878  13.1556
    13.3031  13.3322  13.4733  13.5050  13.6166  13.6728  13.6857  13.7776
    13.8416  14.0380  14.3116  14.4309  14.5114

     occupation numbers 
     1.0000   1.0000   1.0000   1.0000   1.0000   1.0000   1.0000   1.0000
     1.0000   1.0000   1.0000   1.0000   1.0000   1.0000   1.0000   1.0000
     1.0000   1.0000   1.0000   1.0000   1.0000   1.0000   1.0000   1.0000
     1.0000   1.0000   1.0000   1.0000   1.0000   1.0000   1.0000   1.0000
     1.0000   1.0000   1.0000   1.0000   1.0000   1.0000   1.0000   1.0000
     1.0000   1.0000   1.0000   1.0000   1.0000   1.0000   1.0000   1.0000
     1.0000   1.0000   1.0000   1.0000   1.0000   1.0000   1.0000   1.0000
     1.0000   1.0000   1.0000   1.0000   1.0000   1.0000   1.0000   1.0000
     1.0000   1.0000   1.0000   1.0000   1.0000   1.0000   1.0000   1.0000
     1.0000   1.0000   1.0000   1.0000   1.0000   1.0000   1.0000   1.0000
     1.0000   1.0000   1.0000   1.0000   1.0000   1.0000   1.0000   1.0000
     1.0000   1.0000   1.0000   1.0000   1.0000   1.0000   1.0000   1.0000
     1.0000   1.0000   1.0000   1.0000   1.0000   1.0000   1.0000   1.0000
     1.0000   1.0000   1.0000   1.0000   1.0000   1.0000   1.0000   1.0000
     1.0000   1.0000   1.0000   1.0000   1.0000   1.0000   1.0000   1.0000
     1.0000   1.0000   1.0000   1.0000   1.0000   1.0000   1.0000   1.0000
     1.0000   1.0000   1.0000   1.0000   1.0000   0.0000   0.0000   0.0000
     0.0000   0.0000   0.0000   0.0000   0.0000   0.0000   0.0000   0.0000
     0.0000   0.0000   0.0000   0.0000   0.0000   0.0000   0.0000   0.0000
     0.0000   0.0000   0.0000   0.0000   0.0000

          k = 0.1667 0.0000 0.0295 ( 25803 PWs)   bands (ev):

   -81.1352 -67.4208 -67.4120 -67.3349 -66.8730 -66.8631 -48.1704 -46.9780
   -46.4262 -34.1944 -34.1807 -34.1740 -34.1647 -34.1587 -34.1470 -34.0990
   -34.0948 -34.0677 -33.6479 -33.6421 -33.6296 -33.6116 -33.6077 -33.5904
   -22.8554 -22.8515 -14.9347 -14.8797 -14.0602 -14.0151 -13.6476 -13.6138
   -13.2422 -13.1281 -13.0950 -12.9541 -12.7715 -12.7705 -12.7341 -12.7053
   -12.6419 -12.5644 -12.4534 -12.3900 -12.2415 -12.1945 -12.1055 -11.9816
   -11.2360 -11.0098  -6.4390  -6.4193  -6.3525  -6.3475  -6.3342  -6.3311
    -3.9970  -3.9345  -2.2635  -2.1584  -1.7471  -1.3281  -1.2977  -1.2581
    -0.7986  -0.6941  -0.5746  -0.5474  -0.3216  -0.2577  -0.2249  -0.0750
     0.0442   0.1976   0.2566   0.5382   0.6112   0.7147   0.7553   0.8541
     1.0959   1.1995   1.2745   1.3084   1.4057   1.4842   1.6310   1.6465
     1.7472   1.9788   2.0184   2.0686   2.1632   2.2986   2.3490   2.4025
     2.4252   2.4758   2.6202   2.6837   2.7420   2.7844   2.8285   2.8814
     2.9581   3.0130   3.0769   3.1484   3.1526   3.2800   3.3138   3.3593
     3.4320   3.4602   3.5219   3.5424   3.6545   3.7228   3.7953   3.8493
     3.8784   3.9184   3.9708   3.9890   4.0213   4.2071   4.3002   4.4224
     5.3255   5.4410   6.5513   6.9582   7.1551   9.5422  10.9247  11.4597
    11.8195  12.0931  12.2579  12.4674  12.6176  12.8212  12.9785  13.1029
    13.1958  13.3314  13.4223  13.5687  13.6526  13.6930  13.7636  13.8520
    13.9325  14.1747  14.2414  14.3872  14.5216

     occupation numbers 
     1.0000   1.0000   1.0000   1.0000   1.0000   1.0000   1.0000   1.0000
     1.0000   1.0000   1.0000   1.0000   1.0000   1.0000   1.0000   1.0000
     1.0000   1.0000   1.0000   1.0000   1.0000   1.0000   1.0000   1.0000
     1.0000   1.0000   1.0000   1.0000   1.0000   1.0000   1.0000   1.0000
     1.0000   1.0000   1.0000   1.0000   1.0000   1.0000   1.0000   1.0000
     1.0000   1.0000   1.0000   1.0000   1.0000   1.0000   1.0000   1.0000
     1.0000   1.0000   1.0000   1.0000   1.0000   1.0000   1.0000   1.0000
     1.0000   1.0000   1.0000   1.0000   1.0000   1.0000   1.0000   1.0000
     1.0000   1.0000   1.0000   1.0000   1.0000   1.0000   1.0000   1.0000
     1.0000   1.0000   1.0000   1.0000   1.0000   1.0000   1.0000   1.0000
     1.0000   1.0000   1.0000   1.0000   1.0000   1.0000   1.0000   1.0000
     1.0000   1.0000   1.0000   1.0000   1.0000   1.0000   1.0000   1.0000
     1.0000   1.0000   1.0000   1.0000   1.0000   1.0000   1.0000   1.0000
     1.0000   1.0000   1.0000   1.0000   1.0000   1.0000   1.0000   1.0000
     1.0000   1.0000   1.0000   1.0000   1.0000   1.0000   1.0000   1.0000
     1.0000   1.0000   1.0000   1.0000   1.0000   1.0000   1.0000   1.0000
     1.0000   1.0000   1.0000   1.0000   1.0000   0.0000   0.0000   0.0000
     0.0000   0.0000   0.0000   0.0000   0.0000   0.0000   0.0000   0.0000
     0.0000   0.0000   0.0000   0.0000   0.0000   0.0000   0.0000   0.0000
     0.0000   0.0000   0.0000   0.0000   0.0000

          k = 0.1667 0.0000 0.2050 ( 25826 PWs)   bands (ev):

   -81.1352 -67.4208 -67.4120 -67.3349 -66.8730 -66.8631 -48.1704 -46.9780
   -46.4262 -34.1945 -34.1807 -34.1741 -34.1647 -34.1587 -34.1470 -34.0990
   -34.0948 -34.0677 -33.6479 -33.6421 -33.6296 -33.6116 -33.6078 -33.5904
   -22.8554 -22.8515 -14.9177 -14.8978 -14.0506 -14.0253 -13.6434 -13.6181
   -13.2311 -13.1433 -13.0917 -12.9492 -12.7717 -12.7639 -12.7472 -12.7052
   -12.6341 -12.5683 -12.4483 -12.3955 -12.2370 -12.2000 -12.0944 -11.9909
   -11.2354 -11.0108  -6.4391  -6.4193  -6.3525  -6.3475  -6.3342  -6.3309
    -4.0010  -3.9306  -2.2430  -2.1844  -1.7109  -1.3666  -1.2720  -1.2386
    -0.7946  -0.6959  -0.5865  -0.5242  -0.3483  -0.2414  -0.2255  -0.1955
     0.0804   0.2085   0.2435   0.4724   0.5874   0.6938   0.7539   0.9127
     1.1488   1.1771   1.2906   1.3038   1.4274   1.5180   1.6260   1.7228
     1.7551   1.9873   2.0410   2.0898   2.2510   2.2772   2.3290   2.3710
     2.4412   2.4985   2.6142   2.6416   2.6753   2.7355   2.7897   2.8542
     2.9440   3.0364   3.0680   3.1364   3.2120   3.2523   3.2915   3.3898
     3.4038   3.4578   3.5114   3.5646   3.6806   3.7599   3.8178   3.8316
     3.8583   3.9089   3.9445   3.9483   3.9990   4.2699   4.3108   4.4301
     5.3231   5.4405   6.5526   6.9519   7.1549   9.9097  10.3781  11.5349
    11.8609  11.9656  12.3140  12.3756  12.5849  12.9313  13.1207  13.2251
    13.2606  13.4065  13.4130  13.4673  13.5983  13.6871  13.8018  13.8698
    13.9334  13.9899  14.2457  14.3767  14.5188

     occupation numbers 
     1.0000   1.0000   1.0000   1.0000   1.0000   1.0000   1.0000   1.0000
     1.0000   1.0000   1.0000   1.0000   1.0000   1.0000   1.0000   1.0000
     1.0000   1.0000   1.0000   1.0000   1.0000   1.0000   1.0000   1.0000
     1.0000   1.0000   1.0000   1.0000   1.0000   1.0000   1.0000   1.0000
     1.0000   1.0000   1.0000   1.0000   1.0000   1.0000   1.0000   1.0000
     1.0000   1.0000   1.0000   1.0000   1.0000   1.0000   1.0000   1.0000
     1.0000   1.0000   1.0000   1.0000   1.0000   1.0000   1.0000   1.0000
     1.0000   1.0000   1.0000   1.0000   1.0000   1.0000   1.0000   1.0000
     1.0000   1.0000   1.0000   1.0000   1.0000   1.0000   1.0000   1.0000
     1.0000   1.0000   1.0000   1.0000   1.0000   1.0000   1.0000   1.0000
     1.0000   1.0000   1.0000   1.0000   1.0000   1.0000   1.0000   1.0000
     1.0000   1.0000   1.0000   1.0000   1.0000   1.0000   1.0000   1.0000
     1.0000   1.0000   1.0000   1.0000   1.0000   1.0000   1.0000   1.0000
     1.0000   1.0000   1.0000   1.0000   1.0000   1.0000   1.0000   1.0000
     1.0000   1.0000   1.0000   1.0000   1.0000   1.0000   1.0000   1.0000
     1.0000   1.0000   1.0000   1.0000   1.0000   1.0000   1.0000   1.0000
     1.0000   1.0000   1.0000   1.0000   1.0000   0.0000   0.0000   0.0000
     0.0000   0.0000   0.0000   0.0000   0.0000   0.0000   0.0000   0.0000
     0.0000   0.0000   0.0000   0.0000   0.0000   0.0000   0.0000   0.0000
     0.0000   0.0000   0.0000   0.0000   0.0000

          k = 0.1667 0.0000-0.1461 ( 25786 PWs)   bands (ev):

   -81.1352 -67.4208 -67.4120 -67.3349 -66.8730 -66.8631 -48.1704 -46.9780
   -46.4262 -34.1944 -34.1807 -34.1740 -34.1647 -34.1587 -34.1470 -34.0990
   -34.0948 -34.0677 -33.6479 -33.6421 -33.6296 -33.6116 -33.6077 -33.5904
   -22.8554 -22.8515 -14.9251 -14.8900 -14.0514 -14.0244 -13.6424 -13.6191
   -13.2354 -13.1282 -13.1035 -12.9504 -12.7720 -12.7634 -12.7445 -12.7031
   -12.6381 -12.5688 -12.4424 -12.4008 -12.2239 -12.2133 -12.0951 -11.9892
   -11.2352 -11.0107  -6.4392  -6.4194  -6.3525  -6.3475  -6.3342  -6.3309
    -3.9834  -3.9486  -2.2394  -2.1858  -1.7252  -1.3636  -1.2674  -1.2467
    -0.7806  -0.7133  -0.5627  -0.5245  -0.3492  -0.2682  -0.2323  -0.1517
     0.0485   0.2111   0.2481   0.4840   0.6315   0.7312   0.7522   0.9016
     1.1133   1.1427   1.2671   1.3176   1.4495   1.5570   1.6063   1.6489
     1.7945   1.9704   2.0115   2.1164   2.1517   2.2914   2.3532   2.3822
     2.4252   2.5015   2.6046   2.6585   2.7289   2.7447   2.7839   2.8860
     2.9174   3.0186   3.1237   3.1825   3.1933   3.2445   3.3082   3.3796
     3.4193   3.4408   3.5448   3.5834   3.6413   3.7372   3.7834   3.8159
     3.8656   3.9006   3.9248   3.9754   4.0072   4.2516   4.3162   4.4385
     5.3241   5.4419   6.5518   6.9501   7.1567   9.7364  10.6032  11.5791
    11.9040  11.9527  12.3533  12.3613  12.6427  12.9415  13.0058  13.1429
    13.2170  13.3048  13.4025  13.4938  13.5815  13.7059  13.7535  13.8583
    13.9631  14.2354  14.2662  14.3393  14.5279

     occupation numbers 
     1.0000   1.0000   1.0000   1.0000   1.0000   1.0000   1.0000   1.0000
     1.0000   1.0000   1.0000   1.0000   1.0000   1.0000   1.0000   1.0000
     1.0000   1.0000   1.0000   1.0000   1.0000   1.0000   1.0000   1.0000
     1.0000   1.0000   1.0000   1.0000   1.0000   1.0000   1.0000   1.0000
     1.0000   1.0000   1.0000   1.0000   1.0000   1.0000   1.0000   1.0000
     1.0000   1.0000   1.0000   1.0000   1.0000   1.0000   1.0000   1.0000
     1.0000   1.0000   1.0000   1.0000   1.0000   1.0000   1.0000   1.0000
     1.0000   1.0000   1.0000   1.0000   1.0000   1.0000   1.0000   1.0000
     1.0000   1.0000   1.0000   1.0000   1.0000   1.0000   1.0000   1.0000
     1.0000   1.0000   1.0000   1.0000   1.0000   1.0000   1.0000   1.0000
     1.0000   1.0000   1.0000   1.0000   1.0000   1.0000   1.0000   1.0000
     1.0000   1.0000   1.0000   1.0000   1.0000   1.0000   1.0000   1.0000
     1.0000   1.0000   1.0000   1.0000   1.0000   1.0000   1.0000   1.0000
     1.0000   1.0000   1.0000   1.0000   1.0000   1.0000   1.0000   1.0000
     1.0000   1.0000   1.0000   1.0000   1.0000   1.0000   1.0000   1.0000
     1.0000   1.0000   1.0000   1.0000   1.0000   1.0000   1.0000   1.0000
     1.0000   1.0000   1.0000   1.0000   1.0000   0.0000   0.0000   0.0000
     0.0000   0.0000   0.0000   0.0000   0.0000   0.0000   0.0000   0.0000
     0.0000   0.0000   0.0000   0.0000   0.0000   0.0000   0.0000   0.0000
     0.0000   0.0000   0.0000   0.0000   0.0000

          k = 0.1667 0.1919 0.0295 ( 25796 PWs)   bands (ev):

   -81.1352 -67.4208 -67.4120 -67.3349 -66.8730 -66.8631 -48.1704 -46.9780
   -46.4262 -34.1944 -34.1807 -34.1741 -34.1647 -34.1587 -34.1470 -34.0989
   -34.0948 -34.0677 -33.6479 -33.6421 -33.6296 -33.6116 -33.6077 -33.5904
   -22.8554 -22.8516 -14.9300 -14.8750 -14.0899 -14.0412 -13.6353 -13.6050
   -13.1883 -13.1068 -13.0285 -12.9555 -12.8320 -12.8028 -12.7671 -12.6920
   -12.6716 -12.5666 -12.4468 -12.3784 -12.2363 -12.1953 -12.1029 -11.9797
   -11.2347 -11.0096  -6.4355  -6.4234  -6.3520  -6.3433  -6.3364  -6.3334
    -3.9621  -3.8984  -2.4186  -2.3117  -1.6795  -1.3128  -1.1855  -1.1581
    -0.7969  -0.7015  -0.6646  -0.5145  -0.3359  -0.2109  -0.1807  -0.0327
     0.0465   0.1853   0.2447   0.5230   0.5717   0.7062   0.7401   0.8154
     1.1007   1.1214   1.2602   1.3299   1.3902   1.5143   1.6349   1.6879
     1.7845   1.9345   1.9983   2.1155   2.1849   2.2514   2.3693   2.4405
     2.4609   2.5638   2.6015   2.7002   2.7676   2.8066   2.8445   2.9122
     2.9512   3.0215   3.0768   3.1280   3.1840   3.2571   3.3022   3.3397
     3.4255   3.4478   3.4937   3.5596   3.6665   3.6801   3.7439   3.8177
     3.8510   3.9186   3.9472   4.0219   4.0538   4.1685   4.2333   4.3948
     5.3375   5.4354   6.5512   6.9209   7.1674   9.8971  10.7594  11.1349
    11.6779  12.0174  12.3736  12.6678  12.7491  12.9168  12.9854  13.1058
    13.2211  13.3224  13.3851  13.5067  13.5393  13.6471  13.7564  13.8347
    13.9835  14.0526  14.3692  14.4760  14.6166

     occupation numbers 
     1.0000   1.0000   1.0000   1.0000   1.0000   1.0000   1.0000   1.0000
     1.0000   1.0000   1.0000   1.0000   1.0000   1.0000   1.0000   1.0000
     1.0000   1.0000   1.0000   1.0000   1.0000   1.0000   1.0000   1.0000
     1.0000   1.0000   1.0000   1.0000   1.0000   1.0000   1.0000   1.0000
     1.0000   1.0000   1.0000   1.0000   1.0000   1.0000   1.0000   1.0000
     1.0000   1.0000   1.0000   1.0000   1.0000   1.0000   1.0000   1.0000
     1.0000   1.0000   1.0000   1.0000   1.0000   1.0000   1.0000   1.0000
     1.0000   1.0000   1.0000   1.0000   1.0000   1.0000   1.0000   1.0000
     1.0000   1.0000   1.0000   1.0000   1.0000   1.0000   1.0000   1.0000
     1.0000   1.0000   1.0000   1.0000   1.0000   1.0000   1.0000   1.0000
     1.0000   1.0000   1.0000   1.0000   1.0000   1.0000   1.0000   1.0000
     1.0000   1.0000   1.0000   1.0000   1.0000   1.0000   1.0000   1.0000
     1.0000   1.0000   1.0000   1.0000   1.0000   1.0000   1.0000   1.0000
     1.0000   1.0000   1.0000   1.0000   1.0000   1.0000   1.0000   1.0000
     1.0000   1.0000   1.0000   1.0000   1.0000   1.0000   1.0000   1.0000
     1.0000   1.0000   1.0000   1.0000   1.0000   1.0000   1.0000   1.0000
     1.0000   1.0000   1.0000   1.0000   1.0000   0.0000   0.0000   0.0000
     0.0000   0.0000   0.0000   0.0000   0.0000   0.0000   0.0000   0.0000
     0.0000   0.0000   0.0000   0.0000   0.0000   0.0000   0.0000   0.0000
     0.0000   0.0000   0.0000   0.0000   0.0000

          k = 0.1667 0.1919 0.2050 ( 25776 PWs)   bands (ev):

   -81.1352 -67.4208 -67.4120 -67.3349 -66.8730 -66.8631 -48.1704 -46.9780
   -46.4262 -34.1944 -34.1807 -34.1741 -34.1647 -34.1587 -34.1470 -34.0989
   -34.0948 -34.0677 -33.6479 -33.6421 -33.6296 -33.6116 -33.6077 -33.5904
   -22.8554 -22.8516 -14.9130 -14.8931 -14.0774 -14.0546 -13.6333 -13.6070
   -13.1814 -13.0989 -13.0487 -12.9432 -12.8481 -12.7873 -12.7688 -12.6936
   -12.6687 -12.5710 -12.4434 -12.3826 -12.2343 -12.1980 -12.0920 -11.9887
   -11.2342 -11.0105  -6.4357  -6.4234  -6.3520  -6.3433  -6.3363  -6.3332
    -3.9626  -3.8979  -2.3928  -2.3407  -1.6509  -1.3009  -1.2051  -1.1399
    -0.7938  -0.7053  -0.6598  -0.5036  -0.3696  -0.2458  -0.1691  -0.0922
     0.0815   0.1681   0.2395   0.4764   0.5530   0.6886   0.7255   0.8682
     1.0773   1.1445   1.2567   1.3627   1.4435   1.5641   1.6434   1.7470
     1.8429   1.9020   1.9782   2.1047   2.1868   2.3317   2.3617   2.4282
     2.4775   2.5467   2.5912   2.6986   2.7150   2.7388   2.8242   2.8995
     2.9261   3.0051   3.0678   3.1243   3.1854   3.2406   3.2892   3.3224
     3.4266   3.4705   3.5529   3.6032   3.6510   3.6853   3.7396   3.8086
     3.8377   3.8891   3.9491   3.9820   4.0504   4.1870   4.2959   4.4001
     5.3354   5.4336   6.5527   6.9143   7.1676  10.2112  10.6559  10.9680
    11.3571  11.9982  12.3611  12.6654  12.8189  12.9466  13.1341  13.2678
    13.3204  13.3795  13.4145  13.4840  13.5680  13.6814  13.7446  13.8156
    13.8828  14.0008  14.2677  14.3917  14.5532

     occupation numbers 
     1.0000   1.0000   1.0000   1.0000   1.0000   1.0000   1.0000   1.0000
     1.0000   1.0000   1.0000   1.0000   1.0000   1.0000   1.0000   1.0000
     1.0000   1.0000   1.0000   1.0000   1.0000   1.0000   1.0000   1.0000
     1.0000   1.0000   1.0000   1.0000   1.0000   1.0000   1.0000   1.0000
     1.0000   1.0000   1.0000   1.0000   1.0000   1.0000   1.0000   1.0000
     1.0000   1.0000   1.0000   1.0000   1.0000   1.0000   1.0000   1.0000
     1.0000   1.0000   1.0000   1.0000   1.0000   1.0000   1.0000   1.0000
     1.0000   1.0000   1.0000   1.0000   1.0000   1.0000   1.0000   1.0000
     1.0000   1.0000   1.0000   1.0000   1.0000   1.0000   1.0000   1.0000
     1.0000   1.0000   1.0000   1.0000   1.0000   1.0000   1.0000   1.0000
     1.0000   1.0000   1.0000   1.0000   1.0000   1.0000   1.0000   1.0000
     1.0000   1.0000   1.0000   1.0000   1.0000   1.0000   1.0000   1.0000
     1.0000   1.0000   1.0000   1.0000   1.0000   1.0000   1.0000   1.0000
     1.0000   1.0000   1.0000   1.0000   1.0000   1.0000   1.0000   1.0000
     1.0000   1.0000   1.0000   1.0000   1.0000   1.0000   1.0000   1.0000
     1.0000   1.0000   1.0000   1.0000   1.0000   1.0000   1.0000   1.0000
     1.0000   1.0000   1.0000   1.0000   1.0000   0.0000   0.0000   0.0000
     0.0000   0.0000   0.0000   0.0000   0.0000   0.0000   0.0000   0.0000
     0.0000   0.0000   0.0000   0.0000   0.0000   0.0000   0.0000   0.0000
     0.0000   0.0000   0.0000   0.0000   0.0000

          k = 0.1667 0.1919-0.1461 ( 25782 PWs)   bands (ev):

   -81.1352 -67.4208 -67.4120 -67.3349 -66.8730 -66.8631 -48.1704 -46.9780
   -46.4262 -34.1944 -34.1807 -34.1741 -34.1647 -34.1587 -34.1470 -34.0989
   -34.0948 -34.0677 -33.6479 -33.6421 -33.6296 -33.6116 -33.6077 -33.5904
   -22.8554 -22.8516 -14.9204 -14.8853 -14.0801 -14.0517 -13.6306 -13.6099
   -13.1841 -13.0989 -13.0431 -12.9486 -12.8444 -12.7911 -12.7679 -12.6932
   -12.6699 -12.5704 -12.4365 -12.3882 -12.2229 -12.2101 -12.0926 -11.9872
   -11.2339 -11.0105  -6.4357  -6.4235  -6.3520  -6.3433  -6.3363  -6.3332
    -3.9460  -3.9150  -2.3943  -2.3385  -1.6615  -1.3045  -1.2099  -1.1344
    -0.7740  -0.7242  -0.6337  -0.5229  -0.3738  -0.2200  -0.1828  -0.0779
     0.0500   0.1852   0.2175   0.5083   0.5873   0.6930   0.7602   0.8552
     1.0704   1.1044   1.2434   1.3402   1.4630   1.5486   1.6650   1.7343
     1.7694   1.9149   1.9763   2.1436   2.2017   2.2710   2.3546   2.4397
     2.4870   2.5115   2.6166   2.6943   2.7202   2.7759   2.8391   2.8788
     2.9232   3.0068   3.0858   3.1617   3.2012   3.2506   3.2863   3.3355
     3.4605   3.4750   3.5179   3.5881   3.6640   3.6879   3.7070   3.8133
     3.8347   3.8935   3.9484   3.9812   4.0112   4.1880   4.2945   4.3986
[...]
     atom   11 type  7   force =     0.00040256    0.00355585   -0.01374437
     atom   12 type  7   force =    -0.00040258    0.00355584    0.01374441
     atom   13 type  7   force =    -0.00142395   -0.01078139    0.01128779
     atom   14 type  7   force =     0.00142393   -0.01078141   -0.01128762
     atom   15 type  1   force =    -0.00092229   -0.00338504   -0.00982182
     atom   16 type  1   force =     0.00092224   -0.00338505    0.00982179
     atom   17 type  6   force =    -0.00015433    0.00020710    0.00649184
     atom   18 type  6   force =     0.00015432    0.00020710   -0.00649185
     atom   19 type  6   force =    -0.00009921   -0.00000104   -0.00702859
     atom   20 type  6   force =     0.00009920   -0.00000104    0.00702859
     atom   21 type  6   force =     0.00046823    0.00057319    0.00668331
     atom   22 type  6   force =    -0.00046821    0.00057319   -0.00668331
     atom   23 type  6   force =    -0.00051513   -0.00108950   -0.00268205
     atom   24 type  6   force =     0.00051514   -0.00108950    0.00268205
     atom   25 type  6   force =     0.00465945   -0.00187288   -0.00578757
     atom   26 type  6   force =    -0.00465945   -0.00187288    0.00578756
     atom   27 type  6   force =    -0.00367232    0.00083730   -0.00711006
     atom   28 type  6   force =     0.00367232    0.00083730    0.00711006
     atom   29 type  6   force =    -0.00170457    0.00248177    0.00734063
     atom   30 type  6   force =     0.00170457    0.00248177   -0.00734065
     atom   31 type  6   force =     0.00105291   -0.00241350   -0.00756841
     atom   32 type  6   force =    -0.00105291   -0.00241350    0.00756846
     atom   33 type  6   force =    -0.00264410   -0.00351513   -0.00628858
     atom   34 type  6   force =     0.00264409   -0.00351514    0.00628855
     atom   35 type  6   force =     0.00096221    0.00425728    0.00646128
     atom   36 type  6   force =    -0.00096222    0.00425728   -0.00646127
     atom   37 type  6   force =    -0.00213441    0.00067729    0.01101499
     atom   38 type  6   force =     0.00213440    0.00067728   -0.01101497
     atom   39 type  6   force =     0.00017058   -0.00185685    0.01085318
     atom   40 type  6   force =    -0.00017059   -0.00185686   -0.01085320
     atom   41 type  3   force =     0.00000000    0.00000000    0.00000000
     atom   42 type  3   force =     0.00000000    0.00000000    0.00000000
     atom   43 type  3   force =     0.00000000    0.00000000    0.00000000
     atom   44 type  3   force =     0.00000000    0.00000000    0.00000000
     The Hubbard contrib.    to forces
     atom    1 type  4   force =     0.00000000    0.00000000    0.00000000
     atom    2 type  4   force =     0.00000000    0.00000000    0.00000000
     atom    3 type  5   force =     0.00000000    0.00000000    0.00000000
     atom    4 type  5   force =     0.00000000    0.00000000    0.00000000
     atom    5 type  5   force =     0.00000000    0.00000000    0.00000000
     atom    6 type  5   force =     0.00000000    0.00000000    0.00000000
     atom    7 type  5   force =     0.00000000    0.00000000    0.00000000
     atom    8 type  2   force =     0.00000000    0.00000000    0.00000000
     atom    9 type  7   force =     0.00000000    0.00000000    0.00000000
     atom   10 type  7   force =     0.00000000    0.00000000    0.00000000
     atom   11 type  7   force =     0.00000000    0.00000000    0.00000000
     atom   12 type  7   force =     0.00000000    0.00000000    0.00000000
     atom   13 type  7   force =     0.00000000    0.00000000    0.00000000
     atom   14 type  7   force =     0.00000000    0.00000000    0.00000000
     atom   15 type  1   force =     0.00000000    0.00000000    0.00000000
     atom   16 type  1   force =     0.00000000    0.00000000    0.00000000
     atom   17 type  6   force =     0.00000000    0.00000000    0.00000000
     atom   18 type  6   force =     0.00000000    0.00000000    0.00000000
     atom   19 type  6   force =     0.00000000    0.00000000    0.00000000
     atom   20 type  6   force =     0.00000000    0.00000000    0.00000000
     atom   21 type  6   force =     0.00000000    0.00000000    0.00000000
     atom   22 type  6   force =     0.00000000    0.00000000    0.00000000
     atom   23 type  6   force =     0.00000000    0.00000000    0.00000000
     atom   24 type  6   force =     0.00000000    0.00000000    0.00000000
     atom   25 type  6   force =     0.00000000    0.00000000    0.00000000
     atom   26 type  6   force =     0.00000000    0.00000000    0.00000000
     atom   27 type  6   force =     0.00000000    0.00000000    0.00000000
     atom   28 type  6   force =     0.00000000    0.00000000    0.00000000
     atom   29 type  6   force =     0.00000000    0.00000000    0.00000000
     atom   30 type  6   force =     0.00000000    0.00000000    0.00000000
     atom   31 type  6   force =     0.00000000    0.00000000    0.00000000
     atom   32 type  6   force =     0.00000000    0.00000000    0.00000000
     atom   33 type  6   force =     0.00000000    0.00000000    0.00000000
     atom   34 type  6   force =     0.00000000    0.00000000    0.00000000
     atom   35 type  6   force =     0.00000000    0.00000000    0.00000000
     atom   36 type  6   force =     0.00000000    0.00000000    0.00000000
     atom   37 type  6   force =     0.00000000    0.00000000    0.00000000
     atom   38 type  6   force =     0.00000000    0.00000000    0.00000000
     atom   39 type  6   force =     0.00000000    0.00000000    0.00000000
     atom   40 type  6   force =     0.00000000    0.00000000    0.00000000
     atom   41 type  3   force =     0.00000000    0.00000000    0.00000000
     atom   42 type  3   force =     0.00000000    0.00000000    0.00000000
     atom   43 type  3   force =     0.00000000    0.00000000    0.00000000
     atom   44 type  3   force =     0.00000000    0.00000000    0.00000000
     The SCF correction term to forces
     atom    1 type  4   force =    -0.00000000    0.00000606   -0.00000000
     atom    2 type  4   force =     0.00000000   -0.00000620   -0.00000000
     atom    3 type  5   force =     0.00000000   -0.00000237    0.00000000
     atom    4 type  5   force =     0.00000000   -0.00000823    0.00000000
     atom    5 type  5   force =     0.00000000    0.00001087    0.00000000
     atom    6 type  5   force =    -0.00000000    0.00000529    0.00000000
     atom    7 type  5   force =    -0.00000000   -0.00000753   -0.00000000
     atom    8 type  2   force =    -0.00000000   -0.00000539    0.00000000
     atom    9 type  7   force =    -0.00000015   -0.00000474   -0.00000235
     atom   10 type  7   force =     0.00000015   -0.00000474    0.00000235
     atom   11 type  7   force =     0.00000028    0.00000253    0.00000312
     atom   12 type  7   force =    -0.00000028    0.00000253   -0.00000312
     atom   13 type  7   force =     0.00000058    0.00000536   -0.00000166
     atom   14 type  7   force =    -0.00000058    0.00000536    0.00000166
     atom   15 type  1   force =    -0.00000038   -0.00000211   -0.00000039
     atom   16 type  1   force =     0.00000038   -0.00000211    0.00000039
     atom   17 type  6   force =    -0.00000008   -0.00000764   -0.00000412
     atom   18 type  6   force =     0.00000008   -0.00000764    0.00000412
     atom   19 type  6   force =     0.00000067    0.00000393    0.00000648
     atom   20 type  6   force =    -0.00000067    0.00000393   -0.00000648
     atom   21 type  6   force =     0.00000296    0.00001171   -0.00000855
     atom   22 type  6   force =    -0.00000296    0.00001171    0.00000855
     atom   23 type  6   force =    -0.00000327   -0.00001043    0.00000176
     atom   24 type  6   force =     0.00000327   -0.00001043   -0.00000176
     atom   25 type  6   force =    -0.00000401   -0.00000990   -0.00000245
     atom   26 type  6   force =     0.00000401   -0.00000990    0.00000245
     atom   27 type  6   force =     0.00000158   -0.00000506   -0.00000142
     atom   28 type  6   force =    -0.00000158   -0.00000506    0.00000142
     atom   29 type  6   force =     0.00000193    0.00000673    0.00000217
     atom   30 type  6   force =    -0.00000193    0.00000673   -0.00000217
     atom   31 type  6   force =     0.00000157    0.00000814   -0.00000139
     atom   32 type  6   force =    -0.00000157    0.00000814    0.00000139
     atom   33 type  6   force =     0.00000016    0.00000721   -0.00000393
     atom   34 type  6   force =    -0.00000016    0.00000721    0.00000393
     atom   35 type  6   force =    -0.00000387   -0.00000754    0.00000226
     atom   36 type  6   force =     0.00000387   -0.00000754   -0.00000226
     atom   37 type  6   force =    -0.00000582    0.00000335   -0.00000738
     atom   38 type  6   force =     0.00000582    0.00000335    0.00000738
     atom   39 type  6   force =     0.00000015   -0.00000320   -0.00000417
     atom   40 type  6   force =    -0.00000015   -0.00000320    0.00000417
     atom   41 type  3   force =    -0.00000043    0.00000054   -0.00000072
     atom   42 type  3   force =     0.00000043    0.00000054    0.00000072
     atom   43 type  3   force =     0.00000001   -0.00000061   -0.00000072
     atom   44 type  3   force =    -0.00000001   -0.00000061    0.00000072

     Dispersion contribution to forces:
     atom    1 type  4   force =    -0.00000000    0.00239803   -0.00000000
     atom    2 type  4   force =     0.00000000   -0.00189683   -0.00000000
     atom    3 type  5   force =    -0.00000000    0.00051595    0.00000000
     atom    4 type  5   force =    -0.00000000   -0.00226214   -0.00000000
     atom    5 type  5   force =     0.00000000    0.00079550    0.00000000
     atom    6 type  5   force =    -0.00000000    0.00238733    0.00000001
     atom    7 type  5   force =    -0.00000000   -0.00389701   -0.00000000
     atom    8 type  2   force =     0.00000000    0.00309068    0.00000001
     atom    9 type  7   force =    -0.00014911   -0.00044866    0.00146030
     atom   10 type  7   force =     0.00014911   -0.00044866   -0.00146030
     atom   11 type  7   force =    -0.00008652    0.00016350   -0.00089547
     atom   12 type  7   force =     0.00008652    0.00016350    0.00089546
     atom   13 type  7   force =     0.00044407    0.00156832   -0.00044021
     atom   14 type  7   force =    -0.00044407    0.00156832    0.00044020
     atom   15 type  1   force =    -0.00074713   -0.00146205   -0.00143017
     atom   16 type  1   force =     0.00074713   -0.00146205    0.00143017
     atom   17 type  6   force =    -0.00015252    0.00015834    0.00038298
     atom   18 type  6   force =     0.00015252    0.00015834   -0.00038298
     atom   19 type  6   force =     0.00010055   -0.00017604   -0.00026267
     atom   20 type  6   force =    -0.00010055   -0.00017604    0.00026267
     atom   21 type  6   force =    -0.00015428   -0.00014714    0.00060389
     atom   22 type  6   force =     0.00015427   -0.00014714   -0.00060389
     atom   23 type  6   force =    -0.00016619   -0.00008541    0.00092061
     atom   24 type  6   force =     0.00016619   -0.00008541   -0.00092061
     atom   25 type  6   force =     0.00036561    0.00189416    0.00142224
     atom   26 type  6   force =    -0.00036561    0.00189416   -0.00142224
     atom   27 type  6   force =     0.00024264    0.00014329    0.00051279
     atom   28 type  6   force =    -0.00024264    0.00014329   -0.00051279
     atom   29 type  6   force =    -0.00001273    0.00008296    0.00001354
     atom   30 type  6   force =     0.00001273    0.00008296   -0.00001354
     atom   31 type  6   force =     0.00019804   -0.00031667   -0.00031087
     atom   32 type  6   force =    -0.00019803   -0.00031667    0.00031086
     atom   33 type  6   force =     0.00073160   -0.00152622    0.00110110
     atom   34 type  6   force =    -0.00073160   -0.00152622   -0.00110110
     atom   35 type  6   force =     0.00151878   -0.00030107   -0.00117662
     atom   36 type  6   force =    -0.00151878   -0.00030107    0.00117662
     atom   37 type  6   force =     0.00006115    0.00013185   -0.00214762
     atom   38 type  6   force =    -0.00006115    0.00013185    0.00214762
     atom   39 type  6   force =     0.00016142    0.00009654   -0.00243865
     atom   40 type  6   force =    -0.00016142    0.00009654    0.00243864
     atom   41 type  3   force =    -0.00074372   -0.00017921   -0.00013460
     atom   42 type  3   force =     0.00074372   -0.00017921    0.00013460
     atom   43 type  3   force =     0.00036271   -0.00016224    0.00085641
     atom   44 type  3   force =    -0.00036271   -0.00016224   -0.00085641

     Total force =     0.003443     Total SCF correction =     0.000051

     Total Dispersion Force =     0.011098


     Computing stress (Cartesian axis) and pressure


     negative rho (up, down):  0.000E+00 1.989E-04
          total   stress  (Ry/bohr**3)                   (kbar)     P=       -0.33
  -0.00000059   0.00000000   0.00000073           -0.09        0.00        0.11
   0.00000000  -0.00000269   0.00000000            0.00       -0.40        0.00
   0.00000073   0.00000000  -0.00000343            0.11        0.00       -0.50

     kinetic stress (kbar)  20787.56      0.00     18.41
                                0.00  20694.95      0.00
                               18.41      0.00  20530.33

     local   stress (kbar) -38400.74     -0.00    142.11
                               -0.00 -38282.21      0.00
                              142.11      0.00  17180.33

     nonloc. stress (kbar)   3915.63      0.00     -0.04
                                0.00   3918.43      0.00
                               -0.04      0.00   3895.71

     hartree stress (kbar)  21932.85      0.00    -51.87
                                0.00  21873.15      0.00
                              -51.87      0.00  -5244.04

     exc-cor stress (kbar)  -2911.71      0.00     -0.07
                                0.00  -2911.99      0.00
                               -0.07      0.00  -2908.32

     corecor stress (kbar)  -1916.46     -0.00     -0.01
                               -0.00  -1915.95     -0.00
                               -0.01     -0.00  -1918.32

     ewald   stress (kbar)  -3377.24      0.00   -108.27
                                0.00  -3346.94     -0.00
                             -108.27     -0.00 -31506.80

     hubbard stress (kbar)      0.00      0.00      0.00
                                0.00      0.00      0.00
                                0.00      0.00      0.00

     DFT-D   stress (kbar)    -29.96      0.00     -0.16
                                0.00    -29.85     -0.00
                               -0.16     -0.00    -29.39

     XDM     stress (kbar)      0.00      0.00      0.00
                                0.00      0.00      0.00
                                0.00      0.00      0.00

     dft-nl  stress (kbar)      0.00      0.00      0.00
                                0.00      0.00      0.00
                                0.00      0.00      0.00

     TS-vdW  stress (kbar)      0.00      0.00      0.00
                                0.00      0.00      0.00
                                0.00      0.00      0.00

     MDB     stress (kbar)      0.00      0.00      0.00
                                0.00      0.00      0.00
                                0.00      0.00      0.00

     3D-RISM stress (kbar)      0.00      0.00      0.00
                                0.00      0.00      0.00
                                0.00      0.00      0.00


     Writing all to output data dir ./temp/phl-fe1.save/ :
     XML data file, charge density, pseudopotentials, collected wavefunctions

     init_run     :    322.44s CPU    463.46s WALL (       2 calls)
     electrons    :  87245.98s CPU 122113.10s WALL (      11 calls)
     update_pot   :     19.42s CPU     29.02s WALL (       9 calls)
     forces       :   1267.34s CPU   1673.95s WALL (      11 calls)
     force_london :      4.06s CPU      5.43s WALL (      11 calls)
     stress       :   4234.07s CPU   5063.04s WALL (      11 calls)
     stres_london :      5.54s CPU      7.53s WALL (      11 calls)

     Called by init_run:
     wfcinit      :    310.17s CPU    445.15s WALL (       2 calls)
     wfcinit:atom :      0.38s CPU      0.43s WALL (      80 calls)
     wfcinit:wfcr :    306.51s CPU    440.77s WALL (      80 calls)
     potinit      :      4.72s CPU      7.11s WALL (       2 calls)
     hinit0       :      2.22s CPU      3.35s WALL (       2 calls)

     Called by electrons:
     c_bands      :  80926.24s CPU 113253.85s WALL (     132 calls)
     sum_band     :   5758.99s CPU   8058.37s WALL (     132 calls)
     v_of_rho     :     45.71s CPU     69.41s WALL (     134 calls)
     v_h          :      1.32s CPU      1.90s WALL (     134 calls)
     v_xc         :     51.87s CPU     78.80s WALL (     156 calls)
     newd         :    321.35s CPU    447.52s WALL (     134 calls)
     PAW_pot      :    242.09s CPU    350.64s WALL (     143 calls)
     mix_rho      :      6.65s CPU     11.08s WALL (     132 calls)
     energy_londo :      3.60s CPU      4.74s WALL (      11 calls)

     Called by c_bands:
     init_us_2    :    148.00s CPU    166.72s WALL (   11880 calls)
     cegterg      :  80509.07s CPU 112617.65s WALL (    5321 calls)

     Called by sum_band:
     sum_band:wei :      0.12s CPU      0.13s WALL (     132 calls)
     sum_band:loo :   5096.07s CPU   7191.07s WALL (     132 calls)
     sum_band:buf :     17.07s CPU     18.86s WALL (    5280 calls)
     sum_band:ini :     62.55s CPU     69.26s WALL (    5280 calls)
     sum_band:cal :   3810.63s CPU   5083.46s WALL (    5640 calls)
     sum_band:bec :     13.98s CPU     15.03s WALL (    5640 calls)
     addusdens    :    640.81s CPU    813.18s WALL (     132 calls)
                                        0.00s GPU  (     132 calls)
     addusd:skk   :      2.34s CPU      2.74s WALL (     924 calls)
                                        0.00s GPU  (     924 calls)

     Called by *egterg:
     cdiaghg      :   5316.67s CPU   7794.31s WALL (   35860 calls)
     cegterg:over :  11644.85s CPU  17933.30s WALL (   31300 calls)
     cegterg:upda :   6376.35s CPU   9372.10s WALL (   31300 calls)
     cegterg:last :  15775.01s CPU  22048.65s WALL (   14546 calls)
     cdiaghg:chol :     96.65s CPU    161.47s WALL (   35860 calls)
     cdiaghg:inve :     66.88s CPU    149.23s WALL (   35860 calls)
     cdiaghg:para :   2219.79s CPU   3188.90s WALL (   71720 calls)
     h_psi        :  28566.07s CPU  38750.29s WALL (   36701 calls)
     s_psi        :   9803.25s CPU  11190.33s WALL (   36701 calls)
     g_psi        :     35.08s CPU     39.93s WALL (   31300 calls)

     Called by h_psi:
     h_psi:calbec :  11305.78s CPU  15339.94s WALL (   36701 calls)
     vloc_psi     :   7445.66s CPU  12066.17s WALL (   36701 calls)
     add_vuspsi   :   9773.47s CPU  11299.15s WALL (   36701 calls)

     General routines
     calbec       :  16635.27s CPU  22519.91s WALL (   44541 calls)
     fft          :     30.79s CPU     57.95s WALL (    3795 calls)
     ffts         :      1.32s CPU      2.54s WALL (     532 calls)
     fftw         :   7237.48s CPU  12507.61s WALL ( 5967292 calls)
     interpolate  :      3.12s CPU      5.28s WALL (     268 calls)

     Parallel routines

     PAW routines
     PAW_pot      :    242.09s CPU    350.64s WALL (     143 calls)
     PAW_symme    :      0.38s CPU      1.87s WALL (     275 calls)

     PWSCF        :   1d 1h56m CPU   1d12h 2m WALL


   This run was terminated on:   3:20:21  20Dec2024            

=------------------------------------------------------------------------------=
   JOB DONE.
=------------------------------------------------------------------------------=
