
     Program PWSCF v.7.3.1 starts on 21Mar2025 at  8:24:19 

     This program is part of the open-source Quantum ESPRESSO suite
     for quantum simulation of materials; please cite
         "P. Giannozzi et al., J. Phys.:Condens. Matter 21 395502 (2009);
         "P. Giannozzi et al., J. Phys.:Condens. Matter 29 465901 (2017);
         "P. Giannozzi et al., J. Chem. Phys. 152 154105 (2020);
          URL http://www.quantum-espresso.org", 
     in publications or presentations arising from this work. More details at
     http://www.quantum-espresso.org/quote

     Parallel version (MPI), running on     6 processors

     MPI processes distributed on     1 nodes
     14429 MiB available memory on the printing compute node when the environment starts

     Reading input from relax.in

     Current dimensions of program PWSCF are:
     Max number of different atomic species (ntypx) = 10
     Max number of k-points (npk) =  40000
     Max angular momentum in pseudopotentials (lmaxx) =  4
     file Al.pbe-n-kjpaw_psl.1.0.0.UPF: wavefunction(s)  3S 3P renormalized
     file Ti.pbe-spn-kjpaw_psl.1.0.0.UPF: wavefunction(s)  3S 3P 3D renormalized
     file H.pbe-kjpaw_psl.1.0.0.UPF: wavefunction(s)  1S renormalized
     file K.pbe-spn-kjpaw_psl.1.0.0.UPF: wavefunction(s)  3S renormalized
     file Mg.pbe-spnl-kjpaw_psl.1.0.0.UPF: wavefunction(s)  2P renormalized
     file O.pbe-n-kjpaw_psl.1.0.0.UPF: wavefunction(s)  2S 2P renormalized
     file Si.pbe-n-kjpaw_psl.1.0.0.UPF: wavefunction(s)  3S 3P renormalized

     R & G space division:  proc/nbgrp/npool/nimage =       6
     Subspace diagonalization in iterative solution of the eigenvalue problem:
     a serial algorithm will be used


     Parallelization info
     --------------------
     sticks:   dense  smooth     PW     G-vecs:    dense   smooth      PW
     Min        1119     557    150               100894    35666    5065
     Max        1120     558    151               100896    35670    5069
     Sum        6719    3347    905               605369   214013   30407

     Using Slab Decomposition



     bravais-lattice index     =          -12
     lattice parameter (alat)  =      10.0639  a.u.
     unit-cell volume          =    3408.7535 (a.u.)^3
     number of atoms/cell      =           43
     number of atomic types    =            7
     number of electrons       =       248.00
     number of Kohn-Sham states=          149
     kinetic-energy cutoff     =      60.0000  Ry
     charge density cutoff     =     480.0000  Ry
     scf convergence threshold =      1.0E-06
     mixing beta               =       0.7000
     number of iterations used =            8  plain     mixing
     energy convergence thresh.=      1.0E-04
     force convergence thresh. =      1.0E-03
     Exchange-correlation= SLA  PW   PBX  PBC
                           (   1   4   3   4   0   0   0)
     nstep                     =           50


     celldm(1)=  10.063938  celldm(2)=   1.736001  celldm(3)=   1.956921
     celldm(4)=   0.000000  celldm(5)=  -0.175986  celldm(6)=   0.000000

     crystal axes: (cart. coord. in units of alat)
               a(1) = (   1.000000   0.000000   0.000000 )  
               a(2) = (   0.000000   1.736001   0.000000 )  
               a(3) = (  -0.344390   0.000000   1.926379 )  

     reciprocal axes: (cart. coord. in units 2 pi/alat)
               b(1) = (  1.000000 -0.000000  0.178776 )  
               b(2) = (  0.000000  0.576037 -0.000000 )  
               b(3) = (  0.000000  0.000000  0.519109 )  


     PseudoPot. # 1 for Al read from file:
     ./../../../pseudos/Al.pbe-n-kjpaw_psl.1.0.0.UPF
     MD5 check sum: 502b6b27b9c6270cab5dd1084b96fa6d
     Pseudo is Projector augmented-wave + core cor, Zval =  3.0
     Generated using &quot;atomic&quot; code by A. Dal Corso  v.6.3
     Shape of augmentation charge: PSQ
     Using radial grid of 1135 points,  6 beta functions with: 
                l(1) =   0
                l(2) =   0
                l(3) =   1
                l(4) =   1
                l(5) =   2
                l(6) =   2
     Q(r) pseudized with 0 coefficients 


     PseudoPot. # 2 for Ti read from file:
     ./../../../pseudos/Ti.pbe-spn-kjpaw_psl.1.0.0.UPF
     MD5 check sum: 01f69b0d8ba4438b2e03ac6ea4af1c0b
     Pseudo is Projector augmented-wave + core cor, Zval = 12.0
     Generated using &quot;atomic&quot; code by A. Dal Corso  v.6.2.2
     Shape of augmentation charge: PSQ
     Using radial grid of 1177 points,  6 beta functions with: 
                l(1) =   0
                l(2) =   0
                l(3) =   1
                l(4) =   1
                l(5) =   2
                l(6) =   2
     Q(r) pseudized with 0 coefficients 


     PseudoPot. # 3 for H  read from file:
     ./../../../pseudos/H.pbe-kjpaw_psl.1.0.0.UPF
     MD5 check sum: d81a744832360e4a8af0b0b5b123bc2a
     Pseudo is Projector augmented-wave, Zval =  1.0
     Generated using &quot;atomic&quot; code by A. Dal Corso  v.6.3MaX
     Shape of augmentation charge: PSQ
     Using radial grid of  929 points,  2 beta functions with: 
                l(1) =   0
                l(2) =   0
     Q(r) pseudized with 0 coefficients 


     PseudoPot. # 4 for K  read from file:
     ./../../../pseudos/K.pbe-spn-kjpaw_psl.1.0.0.UPF
     MD5 check sum: 34cc42130a09071ebe376fd42eb21491
     Pseudo is Projector augmented-wave + core cor, Zval =  9.0
     Generated using &quot;atomic&quot; code by A. Dal Corso  v.6.2.2
     Shape of augmentation charge: PSQ
     Using radial grid of 1165 points,  6 beta functions with: 
                l(1) =   0
                l(2) =   0
                l(3) =   1
                l(4) =   1
                l(5) =   2
                l(6) =   2
     Q(r) pseudized with 0 coefficients 


     PseudoPot. # 5 for Mg read from file:
     ./../../../pseudos/Mg.pbe-spnl-kjpaw_psl.1.0.0.UPF
     MD5 check sum: fda14e0d92a6a9a5ebed782e5a4b3067
     Pseudo is Projector augmented-wave + core cor, Zval = 10.0
     Generated using &quot;atomic&quot; code by A. Dal Corso  v.6.3
     Shape of augmentation charge: PSQ
     Using radial grid of 1129 points,  4 beta functions with: 
                l(1) =   0
                l(2) =   0
                l(3) =   1
                l(4) =   1
     Q(r) pseudized with 0 coefficients 


     PseudoPot. # 6 for O  read from file:
     ./../../../pseudos/O.pbe-n-kjpaw_psl.1.0.0.UPF
     MD5 check sum: e99d9cef9b487d1ca56f5b95ecd0fd7a
     Pseudo is Projector augmented-wave + core cor, Zval =  6.0
     Generated using &quot;atomic&quot; code by A. Dal Corso  v.6.3
     Shape of augmentation charge: PSQ
     Using radial grid of 1095 points,  4 beta functions with: 
                l(1) =   0
                l(2) =   0
                l(3) =   1
                l(4) =   1
     Q(r) pseudized with 0 coefficients 


     PseudoPot. # 7 for Si read from file:
     ./../../../pseudos/Si.pbe-n-kjpaw_psl.1.0.0.UPF
     MD5 check sum: c39c59da582df4a0d9f10159256ea34e
     Pseudo is Projector augmented-wave + core cor, Zval =  4.0
     Generated using &quot;atomic&quot; code by A. Dal Corso  v.6.3
     Shape of augmentation charge: PSQ
     Using radial grid of 1141 points,  6 beta functions with: 
                l(1) =   0
                l(2) =   0
                l(3) =   1
                l(4) =   1
                l(5) =   2
                l(6) =   2
     Q(r) pseudized with 0 coefficients 


     atomic species   valence    mass     pseudopotential
     Al                3.00    26.98154     Al( 1.00)
     Ti               12.00    47.86700     Ti( 1.00)
     H                 1.00     1.00794     H ( 1.00)
     K                 9.00    39.09830     K ( 1.00)
     Mg               10.00    24.30500     Mg( 1.00)
     O                 6.00    15.99940     O ( 1.00)
     Si                4.00    28.08550     Si( 1.00)

     Starting magnetic structure 
     atomic species   magnetization
     Al              0.000
     Ti              0.300
     H               0.000
     K               0.000
     Mg              0.000
     O               0.000
     Si              0.000

      2 Sym. Ops. (no inversion) found


                                    s                        frac. trans.

      isym =  1     identity                                     

 cryst.   s( 1) = (     1          0          0      )
                  (     0          1          0      )
                  (     0          0          1      )

 cart.    s( 1) = (  1.0000000  0.0000000  0.0000000 )
                  (  0.0000000  1.0000000  0.0000000 )
                  (  0.0000000  0.0000000  1.0000000 )


      isym =  2     180 deg rotation - cart. axis [0,1,0]        

 cryst.   s( 2) = (    -1          0          0      )
                  (     0          1          0      )
                  (     0          0         -1      )

 cart.    s( 2) = ( -1.0000000  0.0000000 -0.0000000 )
                  (  0.0000000  1.0000000  0.0000000 )
                  (  0.0000000  0.0000000 -1.0000000 )


     point group C_2  (2)   
     there are  2 classes
     the character table:

       E     C2   
A      1.00  1.00
B      1.00 -1.00

     the symmetry operations in each class and the name of the first element:

     E        1
          identity                                               
     C2       2
          180 deg rotation - cart. axis [0,1,0]                  

   Cartesian axes

     site n.     atom                  positions (alat units)
         1        K      tau(   1) = (   0.0000000   0.8500250   0.0000000  )
         2        K      tau(   2) = (   0.5000001   0.0129874   0.0000000  )
         3        Mg     tau(   3) = (  -0.1721948   0.0077214   0.9631892  )
         4        Mg     tau(   4) = (   0.3278053   0.8557948   0.9631892  )
         5        Mg     tau(   5) = (   0.3278053   1.4487986   0.9631892  )
         6        Mg     tau(   6) = (   0.3278053   0.2995781   0.9631892  )
         7        Si     tau(   7) = (   0.0065464   0.2863232   0.4366446  )
         8        Si     tau(   8) = (   0.6490642   0.2863232   1.4897338  )
         9        Si     tau(   9) = (   0.6700451   1.4481368   1.4769596  )
        10        Si     tau(  10) = (  -0.0144345   1.4481368   0.4494187  )
        11        Si     tau(  11) = (   0.4850690   1.1571201   0.4451794  )
        12        Si     tau(  12) = (   0.1705415   1.1571201   1.4811990  )
        13        Al     tau(  13) = (   0.1481378   0.5745631   1.4858453  )
        14        Al     tau(  14) = (   0.5074727   0.5745631   0.4405331  )
        15        O      tau(  15) = (  -0.0053818   0.2845266   0.7435308  )
        16        O      tau(  16) = (   0.6609924   0.2845266   1.1828475  )
        17        O      tau(  17) = (   0.6648623   1.4463792   1.1726078  )
        18        O      tau(  18) = (  -0.0092517   1.4463792   0.7537706  )
        19        O      tau(  19) = (   0.4909734   1.1615894   0.7508691  )
        20        O      tau(  20) = (   0.1646372   1.1615894   1.1755093  )
        21        O      tau(  21) = (   0.1533653   0.5775173   1.1602818  )
        22        O      tau(  22) = (   0.5022453   0.5775173   0.7660965  )
        23        O      tau(  23) = (   0.2836155   0.3559826   0.3271266  )
        24        O      tau(  24) = (   0.3719951   0.3559826   1.5992516  )
        25        O      tau(  25) = (  -0.0573653   1.7307557   0.3331647  )
        26        O      tau(  26) = (   0.7129759   1.7307557   1.5932136  )
        27        O      tau(  27) = (   0.4014220   1.3398431   1.5902067  )
        28        O      tau(  28) = (   0.2541885   1.3398431   0.3361717  )
        29        O      tau(  29) = (   0.7533736   1.2762782   0.3346307  )
        30        O      tau(  30) = (  -0.0977631   1.2762782   1.5917477  )
        31        O      tau(  31) = (   0.4457693   0.8816150   0.3226733  )
        32        O      tau(  32) = (   0.2098412   0.8816150   1.6037051  )
        33        O      tau(  33) = (  -0.1438441   0.4759522   1.6105977  )
        34        O      tau(  34) = (   0.7994547   0.4759522   0.3157807  )
        35        O      tau(  35) = (  -0.0052927   0.8751793   0.7641997  )
        36        O      tau(  36) = (   0.6609033   0.8751793   1.1621787  )
        37        O      tau(  37) = (   0.4956425   1.7352597   0.7704301  )
        38        O      tau(  38) = (   0.1599681   1.7352597   1.1559483  )
        39        H      tau(  39) = (  -0.0033562   0.8597493   0.5835064  )
        40        H      tau(  40) = (   0.6589669   0.8597493   1.3428719  )
        41        H      tau(  41) = (   0.4916295   0.0251070   0.5908075  )
        42        H      tau(  42) = (   0.1639811   0.0251070   1.3355710  )
        43        Ti     tau(  43) = (  -0.1721948   0.5784118   0.9631892  )

     --------------------------------------------
     DFT-D3 Dispersion Correction (3-body terms):
     --------------------------------------------
       Reference C6 values for interpolation: 

         atom   Coordination number   C6
         H          0.912             6.05
         H          0.000            15.18
         O          0.000            31.01
         O          0.993            25.63
         O          1.989            20.74
         Mg         0.000          1366.75
         Mg         0.963           902.54
         Mg         1.950           351.12
         Al         0.000          1081.08
         Al         0.965           875.51
         Al         1.931           513.50
         Al         2.915           307.19
         Si         0.000           635.71
         Si         0.951           540.53
         Si         1.944           466.25
         Si         2.941           443.01
         Si         3.868           299.55
         K          0.000          9967.00
         K          0.977           676.04
         Ti         0.000          2723.84
         Ti         1.830           604.00
         Ti         3.868           643.18

       Values used:

         atom   Coordination number  R0_AB[au]  C6      C8
         K         11.879            4.007    676.04 129074.98
         K         12.158            4.007    676.04 129074.98
         Mg        10.907            3.292    351.12  31436.69
         Mg        10.297            3.292    351.12  31436.69
         Mg        10.003            3.292    351.12  31436.69
         Mg        11.986            3.292    351.12  31436.69
         Si         6.683            3.583    299.55  21425.58
         Si         6.683            3.583    299.55  21425.58
         Si         5.983            3.583    299.55  21425.58
         Si         5.983            3.583    299.55  21425.58
         Si         6.056            3.583    299.55  21425.58
         Si         6.056            3.583    299.55  21425.58
         Al         7.533            3.789    307.19  29441.29
         Al         7.533            3.789    307.19  29441.29
         O          3.888            2.345     20.74    418.58
         O          3.888            2.345     20.74    418.58
         O          2.954            2.345     20.74    418.58
         O          2.954            2.345     20.74    418.58
         O          2.937            2.345     20.74    418.58
         O          2.937            2.345     20.74    418.58
         O          3.967            2.345     20.74    418.58
         O          3.967            2.345     20.74    418.58
         O          3.150            2.345     20.74    418.58
         O          3.150            2.345     20.74    418.58
         O          3.046            2.345     20.74    418.58
         O          3.046            2.345     20.74    418.58
         O          2.874            2.345     20.74    418.58
         O          2.874            2.345     20.74    418.58
         O          2.848            2.345     20.74    418.58
         O          2.848            2.345     20.74    418.58
         O          3.084            2.345     20.74    418.58
         O          3.084            2.345     20.74    418.58
         O          3.210            2.345     20.74    418.58
         O          3.210            2.345     20.74    418.58
         O          2.992            2.345     20.74    418.58
         O          2.992            2.345     20.74    418.58
         O          3.976            2.345     20.74    418.58
         O          3.976            2.345     20.74    418.58
         H          1.212            2.062      6.08     73.51
         H          1.212            2.062      6.08     73.51
         H          1.231            2.062      6.08     73.47
         H          1.231            2.062      6.08     73.47
         Ti        10.819            3.557    643.18  76289.64

         Molecular C6 ( Ry / a.u.^6 ) =    158921.03


   Crystallographic axes

     site n.     atom                  positions (cryst. coord.)
         1        K      tau(   1) = (  0.0000000  0.4896454  0.0000000  )
         2        K      tau(   2) = (  0.5000001  0.0074812  0.0000000  )
         3        Mg     tau(   3) = (  0.0000002  0.0044478  0.4999999  )
         4        Mg     tau(   4) = (  0.5000003  0.4929690  0.4999999  )
         5        Mg     tau(   5) = (  0.5000003  0.8345609  0.4999999  )
         6        Mg     tau(   6) = (  0.5000003  0.1725679  0.4999999  )
         7        Si     tau(   7) = (  0.0846079  0.1649326  0.2266660  )
         8        Si     tau(   8) = (  0.9153927  0.1649326  0.7733338  )
         9        Si     tau(   9) = (  0.9340899  0.8341796  0.7667026  )
        10        Si     tau(  10) = (  0.0659107  0.8341796  0.2332971  )
        11        Si     tau(  11) = (  0.5646564  0.6665434  0.2310965  )
        12        Si     tau(  12) = (  0.4353442  0.6665434  0.7689033  )
        13        Al     tau(  13) = (  0.4137711  0.3309693  0.7713152  )
        14        Al     tau(  14) = (  0.5862294  0.3309693  0.2286845  )
        15        O      tau(  15) = (  0.1275435  0.1638977  0.3859733  )
        16        O      tau(  16) = (  0.8724570  0.1638977  0.6140264  )
        17        O      tau(  17) = (  0.8744963  0.8331672  0.6087109  )
        18        O      tau(  18) = (  0.1255043  0.8331672  0.3912888  )
        19        O      tau(  19) = (  0.6252107  0.6691179  0.3897827  )
        20        O      tau(  20) = (  0.3747899  0.6691179  0.6102171  )
        21        O      tau(  21) = (  0.3607957  0.3326710  0.6023124  )
        22        O      tau(  22) = (  0.6392049  0.3326710  0.3976873  )
        23        O      tau(  23) = (  0.3420978  0.2050590  0.1698143  )
        24        O      tau(  24) = (  0.6579027  0.2050590  0.8301854  )
        25        O      tau(  25) = (  0.0021965  0.9969785  0.1729487  )
        26        O      tau(  26) = (  0.9978040  0.9969785  0.8270510  )
        27        O      tau(  27) = (  0.6857126  0.7717986  0.8254901  )
        28        O      tau(  28) = (  0.3142879  0.7717986  0.1745096  )
        29        O      tau(  29) = (  0.8131976  0.7351828  0.1737097  )
        30        O      tau(  30) = (  0.1868031  0.7351828  0.8262901  )
        31        O      tau(  31) = (  0.5034555  0.5078424  0.1675025  )
        32        O      tau(  32) = (  0.4965450  0.5078424  0.8324972  )
        33        O      tau(  33) = (  0.1440919  0.2741658  0.8360752  )
        34        O      tau(  34) = (  0.8559087  0.2741658  0.1639245  )
        35        O      tau(  35) = (  0.1313278  0.5041353  0.3967027  )
        36        O      tau(  36) = (  0.8686728  0.5041353  0.6032971  )
        37        O      tau(  37) = (  0.6333768  0.9995729  0.3999370  )
        38        O      tau(  38) = (  0.3666238  0.9995729  0.6000628  )
        39        H      tau(  39) = (  0.1009607  0.4952470  0.3029032  )
        40        H      tau(  40) = (  0.8990400  0.4952470  0.6970965  )
        41        H      tau(  41) = (  0.5972516  0.0144625  0.3066933  )
        42        H      tau(  42) = (  0.4027490  0.0144625  0.6933065  )
        43        Ti     tau(  43) = (  0.0000002  0.3331863  0.4999999  )

     number of k points=    20  Gaussian smearing, width (Ry)=  0.0010
                       cart. coord. in units 2pi/alat
        k(    1) = (   0.0000000   0.0000000   0.0000000), wk =   0.0185185
        k(    2) = (   0.0000000   0.0000000   0.1730362), wk =   0.0370370
        k(    3) = (   0.0000000   0.1920122   0.0000000), wk =   0.0370370
        k(    4) = (   0.0000000   0.1920122   0.1730362), wk =   0.0740741
        k(    5) = (   0.1666667   0.0000000   0.0297960), wk =   0.0370370
        k(    6) = (   0.1666667   0.0000000   0.2028322), wk =   0.0370370
        k(    7) = (   0.1666667   0.0000000  -0.1432402), wk =   0.0370370
        k(    8) = (   0.1666667   0.1920122   0.0297960), wk =   0.0740741
        k(    9) = (   0.1666667   0.1920122   0.2028322), wk =   0.0740741
        k(   10) = (   0.1666667   0.1920122  -0.1432402), wk =   0.0740741
        k(   11) = (   0.3333333   0.0000000   0.0595920), wk =   0.0370370
        k(   12) = (   0.3333333   0.0000000   0.2326282), wk =   0.0370370
        k(   13) = (   0.3333333   0.0000000  -0.1134443), wk =   0.0370370
        k(   14) = (   0.3333333   0.1920122   0.0595920), wk =   0.0740741
        k(   15) = (   0.3333333   0.1920122   0.2326282), wk =   0.0740741
        k(   16) = (   0.3333333   0.1920122  -0.1134443), wk =   0.0740741
        k(   17) = (  -0.5000000   0.0000000  -0.0893879), wk =   0.0185185
        k(   18) = (  -0.5000000   0.0000000   0.0836483), wk =   0.0370370
        k(   19) = (  -0.5000000   0.1920122  -0.0893879), wk =   0.0370370
        k(   20) = (  -0.5000000   0.1920122   0.0836483), wk =   0.0740741

                       cryst. coord.
        k(    1) = (   0.0000000   0.0000000   0.0000000), wk =   0.0185185
        k(    2) = (   0.0000000   0.0000000   0.3333333), wk =   0.0370370
        k(    3) = (   0.0000000   0.3333333   0.0000000), wk =   0.0370370
        k(    4) = (   0.0000000   0.3333333   0.3333333), wk =   0.0740741
        k(    5) = (   0.1666667   0.0000000   0.0000000), wk =   0.0370370
        k(    6) = (   0.1666667   0.0000000   0.3333333), wk =   0.0370370
        k(    7) = (   0.1666667   0.0000000  -0.3333333), wk =   0.0370370
        k(    8) = (   0.1666667   0.3333333   0.0000000), wk =   0.0740741
        k(    9) = (   0.1666667   0.3333333   0.3333333), wk =   0.0740741
        k(   10) = (   0.1666667   0.3333333  -0.3333333), wk =   0.0740741
        k(   11) = (   0.3333333   0.0000000   0.0000000), wk =   0.0370370
        k(   12) = (   0.3333333   0.0000000   0.3333333), wk =   0.0370370
        k(   13) = (   0.3333333   0.0000000  -0.3333333), wk =   0.0370370
        k(   14) = (   0.3333333   0.3333333   0.0000000), wk =   0.0740741
        k(   15) = (   0.3333333   0.3333333   0.3333333), wk =   0.0740741
        k(   16) = (   0.3333333   0.3333333  -0.3333333), wk =   0.0740741
        k(   17) = (  -0.5000000   0.0000000   0.0000000), wk =   0.0185185
        k(   18) = (  -0.5000000   0.0000000   0.3333333), wk =   0.0370370
        k(   19) = (  -0.5000000   0.3333333   0.0000000), wk =   0.0370370
        k(   20) = (  -0.5000000   0.3333333   0.3333333), wk =   0.0740741

     Dense  grid:   605369 G-vectors     FFT dimensions: (  72, 125, 144)

     Smooth grid:   214013 G-vectors     FFT dimensions: (  50,  90, 100)

     Dynamical RAM for                 wfc:      10.14 MB

     Dynamical RAM for     wfc (w. buffer):     415.56 MB

     Dynamical RAM for           str. fact:      10.78 MB

     Dynamical RAM for           local pot:       0.00 MB

     Dynamical RAM for          nlocal pot:      29.25 MB

     Dynamical RAM for                qrad:      12.30 MB

     Dynamical RAM for          rho,v,vnew:      19.12 MB

     Dynamical RAM for               rhoin:       6.37 MB

     Dynamical RAM for            rho*nmix:      49.27 MB

     Dynamical RAM for           G-vectors:       6.05 MB

     Dynamical RAM for          h,s,v(r/c):       4.07 MB

     Dynamical RAM for          <psi|beta>:       0.98 MB

     Dynamical RAM for                 psi:      20.27 MB

     Dynamical RAM for                hpsi:      20.27 MB

     Dynamical RAM for                spsi:      20.27 MB

     Dynamical RAM for      wfcinit/wfcrot:      24.94 MB

     Dynamical RAM for           addusdens:     324.84 MB

     Dynamical RAM for          addusforce:     395.85 MB

     Estimated static dynamical RAM per process >     521.64 MB

     Estimated max dynamical RAM per process >     966.75 MB

     Estimated total dynamical RAM >       5.66 GB

     Check: negative core charge=   -0.000003
     Generating pointlists ...
     new r_m :   0.1343 (alat units)  1.3518 (a.u.) for type    1
     new r_m :   0.1570 (alat units)  1.5799 (a.u.) for type    2
     new r_m :   0.0748 (alat units)  0.7529 (a.u.) for type    3
     new r_m :   0.2149 (alat units)  2.1630 (a.u.) for type    4
     new r_m :   0.1579 (alat units)  1.5891 (a.u.) for type    5
     new r_m :   0.0748 (alat units)  0.7529 (a.u.) for type    6
     new r_m :   0.1254 (alat units)  1.2623 (a.u.) for type    7

     Initial potential from superposition of free atoms

     starting charge     247.9492, renormalised to     248.0000
     Starting wfcs are  178 randomized atomic wfcs
     Checking if some PAW data can be deallocated... 
       PAW data deallocated on    5 nodes for type:  1
       PAW data deallocated on    5 nodes for type:  2
       PAW data deallocated on    5 nodes for type:  3
       PAW data deallocated on    5 nodes for type:  4
       PAW data deallocated on    5 nodes for type:  5
       PAW data deallocated on    1 nodes for type:  6
       PAW data deallocated on    4 nodes for type:  7

     total cpu time spent up to now is      145.4 secs

     Self-consistent Calculation

     iteration #  1     ecut=    60.00 Ry     beta= 0.70
     Davidson diagonalization with overlap

---- Real-time Memory Report at c_bands before calling an iterative solver
           580 MiB given to the printing process from OS
             0 MiB allocation reported by mallinfo(arena+hblkhd)
         11078 MiB available memory on the node where the printing process lives
------------------
     ethr =  1.00E-02,  avg # of iterations =  5.2

     total cpu time spent up to now is      569.9 secs

     total energy              =   -2335.42912913 Ry
     estimated scf accuracy    <      13.99645327 Ry

     total magnetization       =    -0.00 Bohr mag/cell
     absolute magnetization    =     0.39 Bohr mag/cell

     iteration #  2     ecut=    60.00 Ry     beta= 0.70
     Davidson diagonalization with overlap

---- Real-time Memory Report at c_bands before calling an iterative solver
           888 MiB given to the printing process from OS
             0 MiB allocation reported by mallinfo(arena+hblkhd)
         10821 MiB available memory on the node where the printing process lives
------------------
     ethr =  5.64E-03,  avg # of iterations =  7.8

     total cpu time spent up to now is     1195.9 secs

     total energy              =   -2328.34480653 Ry
     estimated scf accuracy    <      91.79820448 Ry

     total magnetization       =    -0.08 Bohr mag/cell
     absolute magnetization    =     1.19 Bohr mag/cell

     iteration #  3     ecut=    60.00 Ry     beta= 0.70
     Davidson diagonalization with overlap

---- Real-time Memory Report at c_bands before calling an iterative solver
           890 MiB given to the printing process from OS
             0 MiB allocation reported by mallinfo(arena+hblkhd)
         10810 MiB available memory on the node where the printing process lives
------------------
     ethr =  5.64E-03,  avg # of iterations =  4.1

     total cpu time spent up to now is     1626.8 secs

     total energy              =   -2342.21216615 Ry
     estimated scf accuracy    <      12.62346072 Ry

     total magnetization       =     0.00 Bohr mag/cell
     absolute magnetization    =     0.86 Bohr mag/cell

     iteration #  4     ecut=    60.00 Ry     beta= 0.70
     Davidson diagonalization with overlap

---- Real-time Memory Report at c_bands before calling an iterative solver
           893 MiB given to the printing process from OS
             0 MiB allocation reported by mallinfo(arena+hblkhd)
         10796 MiB available memory on the node where the printing process lives
------------------
     ethr =  5.09E-03,  avg # of iterations =  2.0

     total cpu time spent up to now is     1989.3 secs

     total energy              =   -2343.30943059 Ry
     estimated scf accuracy    <       2.74411425 Ry

     total magnetization       =     0.00 Bohr mag/cell
     absolute magnetization    =     0.73 Bohr mag/cell

     iteration #  5     ecut=    60.00 Ry     beta= 0.70
     Davidson diagonalization with overlap

---- Real-time Memory Report at c_bands before calling an iterative solver
           895 MiB given to the printing process from OS
             0 MiB allocation reported by mallinfo(arena+hblkhd)
         10782 MiB available memory on the node where the printing process lives
------------------
     ethr =  1.11E-03,  avg # of iterations =  9.7

     total cpu time spent up to now is     2519.3 secs

     total energy              =   -2343.98135128 Ry
     estimated scf accuracy    <       1.23226904 Ry

     total magnetization       =     0.00 Bohr mag/cell
     absolute magnetization    =     0.30 Bohr mag/cell

     iteration #  6     ecut=    60.00 Ry     beta= 0.70
     Davidson diagonalization with overlap

---- Real-time Memory Report at c_bands before calling an iterative solver
           897 MiB given to the printing process from OS
             0 MiB allocation reported by mallinfo(arena+hblkhd)
         10768 MiB available memory on the node where the printing process lives
------------------
     c_bands:  1 eigenvalues not converged
     ethr =  4.97E-04,  avg # of iterations = 11.8

     total cpu time spent up to now is     3028.6 secs

     total energy              =   -2344.01951227 Ry
     estimated scf accuracy    <       0.42194636 Ry

     total magnetization       =    -0.00 Bohr mag/cell
     absolute magnetization    =     0.28 Bohr mag/cell

     iteration #  7     ecut=    60.00 Ry     beta= 0.70
     Davidson diagonalization with overlap

---- Real-time Memory Report at c_bands before calling an iterative solver
           900 MiB given to the printing process from OS
             0 MiB allocation reported by mallinfo(arena+hblkhd)
         10752 MiB available memory on the node where the printing process lives
------------------
     c_bands:  1 eigenvalues not converged
     c_bands:  1 eigenvalues not converged
     ethr =  1.70E-04,  avg # of iterations = 10.7

     total cpu time spent up to now is     3592.8 secs

     total energy              =   -2344.11140208 Ry
     estimated scf accuracy    <       0.05806028 Ry

     total magnetization       =    -0.00 Bohr mag/cell
     absolute magnetization    =     0.13 Bohr mag/cell

     iteration #  8     ecut=    60.00 Ry     beta= 0.70
     Davidson diagonalization with overlap

---- Real-time Memory Report at c_bands before calling an iterative solver
           902 MiB given to the printing process from OS
             0 MiB allocation reported by mallinfo(arena+hblkhd)
         10742 MiB available memory on the node where the printing process lives
------------------
     c_bands:  3 eigenvalues not converged
     c_bands:  1 eigenvalues not converged
     c_bands:  1 eigenvalues not converged
     c_bands:  2 eigenvalues not converged
     c_bands:  3 eigenvalues not converged
     c_bands:  1 eigenvalues not converged
     c_bands:  1 eigenvalues not converged
     c_bands:  1 eigenvalues not converged
     c_bands:  3 eigenvalues not converged
     c_bands:  2 eigenvalues not converged
     c_bands:  2 eigenvalues not converged
     c_bands:  3 eigenvalues not converged
     c_bands:  3 eigenvalues not converged
     c_bands:  2 eigenvalues not converged
     c_bands:  2 eigenvalues not converged
     c_bands:  4 eigenvalues not converged
     c_bands:  3 eigenvalues not converged
     c_bands:  1 eigenvalues not converged
     c_bands:  1 eigenvalues not converged
     c_bands:  1 eigenvalues not converged
     c_bands:  3 eigenvalues not converged
     c_bands:  2 eigenvalues not converged
     c_bands:  3 eigenvalues not converged
     ethr =  2.34E-05,  avg # of iterations = 17.8

     total cpu time spent up to now is     4298.4 secs

     total energy              =   -2344.12810771 Ry
     estimated scf accuracy    <       0.02401407 Ry

     total magnetization       =     0.00 Bohr mag/cell
     absolute magnetization    =     0.09 Bohr mag/cell

     iteration #  9     ecut=    60.00 Ry     beta= 0.70
     Davidson diagonalization with overlap

---- Real-time Memory Report at c_bands before calling an iterative solver
           905 MiB given to the printing process from OS
             0 MiB allocation reported by mallinfo(arena+hblkhd)
         10731 MiB available memory on the node where the printing process lives
------------------
     c_bands:  1 eigenvalues not converged
     c_bands:  2 eigenvalues not converged
     c_bands:  1 eigenvalues not converged
     c_bands:  1 eigenvalues not converged
     c_bands:  1 eigenvalues not converged
     c_bands:  2 eigenvalues not converged
     c_bands:  1 eigenvalues not converged
     c_bands:  2 eigenvalues not converged
     c_bands:  1 eigenvalues not converged
     c_bands:  2 eigenvalues not converged
     c_bands:  2 eigenvalues not converged
     c_bands:  2 eigenvalues not converged
     c_bands:  1 eigenvalues not converged
     c_bands:  2 eigenvalues not converged
     ethr =  9.68E-06,  avg # of iterations = 13.8

     total cpu time spent up to now is     4752.4 secs

     total energy              =   -2344.12689655 Ry
     estimated scf accuracy    <       0.01439551 Ry

     total magnetization       =     0.00 Bohr mag/cell
     absolute magnetization    =     0.07 Bohr mag/cell

     iteration # 10     ecut=    60.00 Ry     beta= 0.70
     Davidson diagonalization with overlap

---- Real-time Memory Report at c_bands before calling an iterative solver
           907 MiB given to the printing process from OS
             0 MiB allocation reported by mallinfo(arena+hblkhd)
         10716 MiB available memory on the node where the printing process lives
------------------
     c_bands:  2 eigenvalues not converged
     c_bands:  1 eigenvalues not converged
     c_bands:  2 eigenvalues not converged
     c_bands:  1 eigenvalues not converged
     c_bands:  2 eigenvalues not converged
     c_bands:  1 eigenvalues not converged
     ethr =  5.80E-06,  avg # of iterations = 12.1

     total cpu time spent up to now is     5242.1 secs

     total energy              =   -2344.12676815 Ry
     estimated scf accuracy    <       0.01645602 Ry

     total magnetization       =     0.00 Bohr mag/cell
     absolute magnetization    =     0.05 Bohr mag/cell

     iteration # 11     ecut=    60.00 Ry     beta= 0.70
     Davidson diagonalization with overlap

---- Real-time Memory Report at c_bands before calling an iterative solver
           907 MiB given to the printing process from OS
             0 MiB allocation reported by mallinfo(arena+hblkhd)
         10716 MiB available memory on the node where the printing process lives
------------------
     c_bands:  2 eigenvalues not converged
     c_bands:  2 eigenvalues not converged
     ethr =  5.80E-06,  avg # of iterations =  2.9

     total cpu time spent up to now is     5602.0 secs

     total energy              =   -2344.12697457 Ry
     estimated scf accuracy    <       0.00286321 Ry

     total magnetization       =     0.00 Bohr mag/cell
     absolute magnetization    =     0.04 Bohr mag/cell

     iteration # 12     ecut=    60.00 Ry     beta= 0.70
     Davidson diagonalization with overlap

---- Real-time Memory Report at c_bands before calling an iterative solver
           907 MiB given to the printing process from OS
             0 MiB allocation reported by mallinfo(arena+hblkhd)
         10717 MiB available memory on the node where the printing process lives
------------------
     c_bands:  1 eigenvalues not converged
     c_bands:  1 eigenvalues not converged
     c_bands:  1 eigenvalues not converged
     c_bands:  2 eigenvalues not converged
     c_bands:  3 eigenvalues not converged
     c_bands:  1 eigenvalues not converged
     ethr =  1.15E-06,  avg # of iterations = 13.7

     total cpu time spent up to now is     6233.0 secs

     total energy              =   -2344.12854581 Ry
     estimated scf accuracy    <       0.00579015 Ry

     total magnetization       =     0.00 Bohr mag/cell
     absolute magnetization    =     0.02 Bohr mag/cell

     iteration # 13     ecut=    60.00 Ry     beta= 0.70
     Davidson diagonalization with overlap

---- Real-time Memory Report at c_bands before calling an iterative solver
           907 MiB given to the printing process from OS
             0 MiB allocation reported by mallinfo(arena+hblkhd)
         10716 MiB available memory on the node where the printing process lives
------------------
     ethr =  1.15E-06,  avg # of iterations =  2.0

     total cpu time spent up to now is     6586.0 secs

     total energy              =   -2344.12863210 Ry
     estimated scf accuracy    <       0.00125376 Ry

     total magnetization       =    -0.00 Bohr mag/cell
     absolute magnetization    =     0.02 Bohr mag/cell

     iteration # 14     ecut=    60.00 Ry     beta= 0.70
     Davidson diagonalization with overlap

---- Real-time Memory Report at c_bands before calling an iterative solver
           907 MiB given to the printing process from OS
             0 MiB allocation reported by mallinfo(arena+hblkhd)
         10717 MiB available memory on the node where the printing process lives
------------------
     ethr =  5.06E-07,  avg # of iterations =  3.3

     total cpu time spent up to now is     6973.5 secs

     total energy              =   -2344.12863193 Ry
     estimated scf accuracy    <       0.00036321 Ry

     total magnetization       =     0.00 Bohr mag/cell
     absolute magnetization    =     0.01 Bohr mag/cell

     iteration # 15     ecut=    60.00 Ry     beta= 0.70
     Davidson diagonalization with overlap

---- Real-time Memory Report at c_bands before calling an iterative solver
           907 MiB given to the printing process from OS
             0 MiB allocation reported by mallinfo(arena+hblkhd)
         10717 MiB available memory on the node where the printing process lives
------------------
     ethr =  1.46E-07,  avg # of iterations =  5.0

     total cpu time spent up to now is     7510.6 secs

     total energy              =   -2344.12879093 Ry
     estimated scf accuracy    <       0.00005580 Ry

     total magnetization       =    -0.00 Bohr mag/cell
     absolute magnetization    =     0.01 Bohr mag/cell

     iteration # 16     ecut=    60.00 Ry     beta= 0.70
     Davidson diagonalization with overlap

---- Real-time Memory Report at c_bands before calling an iterative solver
           907 MiB given to the printing process from OS
             0 MiB allocation reported by mallinfo(arena+hblkhd)
         10716 MiB available memory on the node where the printing process lives
------------------
     ethr =  2.25E-08,  avg # of iterations =  5.8

     total cpu time spent up to now is     8086.6 secs

     total energy              =   -2344.12881308 Ry
     estimated scf accuracy    <       0.00002484 Ry

     total magnetization       =    -0.00 Bohr mag/cell
     absolute magnetization    =     0.01 Bohr mag/cell

     iteration # 17     ecut=    60.00 Ry     beta= 0.70
     Davidson diagonalization with overlap

---- Real-time Memory Report at c_bands before calling an iterative solver
           907 MiB given to the printing process from OS
             0 MiB allocation reported by mallinfo(arena+hblkhd)
         10717 MiB available memory on the node where the printing process lives
------------------
     ethr =  1.00E-08,  avg # of iterations =  3.3

     total cpu time spent up to now is     8488.3 secs

     total energy              =   -2344.12881511 Ry
     estimated scf accuracy    <       0.00000518 Ry

     total magnetization       =     0.00 Bohr mag/cell
     absolute magnetization    =     0.00 Bohr mag/cell

     iteration # 18     ecut=    60.00 Ry     beta= 0.70
     Davidson diagonalization with overlap

---- Real-time Memory Report at c_bands before calling an iterative solver
           907 MiB given to the printing process from OS
             0 MiB allocation reported by mallinfo(arena+hblkhd)
         10717 MiB available memory on the node where the printing process lives
------------------
     ethr =  2.09E-09,  avg # of iterations =  8.1

     Magnetic moment per site  (integrated on atomic sphere of radius R)
     atom   1 (R=0.215)  charge=  7.5398  magn= -0.0000
     atom   2 (R=0.215)  charge=  7.5422  magn= -0.0000
     atom   3 (R=0.158)  charge=  8.1149  magn=  0.0000
     atom   4 (R=0.158)  charge=  8.1109  magn=  0.0000
     atom   5 (R=0.158)  charge=  8.1062  magn=  0.0000
     atom   6 (R=0.158)  charge=  8.1209  magn=  0.0000
     atom   7 (R=0.125)  charge=  0.5484  magn= -0.0000
     atom   8 (R=0.125)  charge=  0.5484  magn= -0.0000
     atom   9 (R=0.125)  charge=  0.5454  magn= -0.0000
     atom  10 (R=0.125)  charge=  0.5454  magn= -0.0000
     atom  11 (R=0.125)  charge=  0.5444  magn= -0.0000
     atom  12 (R=0.125)  charge=  0.5444  magn= -0.0000
     atom  13 (R=0.134)  charge=  0.3324  magn= -0.0000
     atom  14 (R=0.134)  charge=  0.3324  magn= -0.0000
     atom  15 (R=0.075)  charge=  1.9379  magn= -0.0000
     atom  16 (R=0.075)  charge=  1.9379  magn= -0.0000
     atom  17 (R=0.075)  charge=  1.9260  magn= -0.0000
     atom  18 (R=0.075)  charge=  1.9260  magn= -0.0000
     atom  19 (R=0.075)  charge=  1.9264  magn= -0.0000
     atom  20 (R=0.075)  charge=  1.9264  magn= -0.0000
     atom  21 (R=0.075)  charge=  1.9377  magn= -0.0000
     atom  22 (R=0.075)  charge=  1.9377  magn= -0.0000
     atom  23 (R=0.075)  charge=  1.9369  magn=  0.0000
     atom  24 (R=0.075)  charge=  1.9369  magn=  0.0000
     atom  25 (R=0.075)  charge=  1.9469  magn=  0.0000
     atom  26 (R=0.075)  charge=  1.9469  magn=  0.0000
     atom  27 (R=0.075)  charge=  1.9450  magn=  0.0000
     atom  28 (R=0.075)  charge=  1.9450  magn=  0.0000
     atom  29 (R=0.075)  charge=  1.9457  magn=  0.0000
     atom  30 (R=0.075)  charge=  1.9457  magn=  0.0000
     atom  31 (R=0.075)  charge=  1.9407  magn=  0.0000
     atom  32 (R=0.075)  charge=  1.9407  magn=  0.0000
     atom  33 (R=0.075)  charge=  1.9387  magn=  0.0000
     atom  34 (R=0.075)  charge=  1.9387  magn=  0.0000
     atom  35 (R=0.075)  charge=  1.9210  magn= -0.0001
     atom  36 (R=0.075)  charge=  1.9210  magn= -0.0001
     atom  37 (R=0.075)  charge=  1.9405  magn=  0.0000
     atom  38 (R=0.075)  charge=  1.9405  magn=  0.0000
     atom  39 (R=0.075)  charge=  0.3996  magn= -0.0000
     atom  40 (R=0.075)  charge=  0.3996  magn= -0.0000
     atom  41 (R=0.075)  charge=  0.4004  magn= -0.0000
     atom  42 (R=0.075)  charge=  0.4004  magn= -0.0000
     atom  43 (R=0.157)  charge=  8.6393  magn=  0.0004

     total cpu time spent up to now is     9302.6 secs

     End of self-consistent calculation

 ------ SPIN UP ------------


          k = 0.0000 0.0000 0.0000 ( 26779 PWs)   bands (ev):

   -69.0665 -68.1695 -67.9794 -66.8195 -53.9919 -35.8546 -35.8053 -35.7959
   -34.9270 -34.9203 -34.9118 -34.7401 -34.7336 -34.7130 -33.5822 -33.5759
   -33.5511 -30.2420 -30.1468 -30.1378 -23.7810 -23.7798 -15.4228 -15.3050
   -14.7090 -14.6508 -14.3617 -14.2052 -14.1437 -14.0560 -13.9317 -13.8941
   -13.8801 -13.6517 -13.5903 -13.5532 -13.5039 -13.3621 -13.2919 -13.2775
   -13.1823 -13.1549 -11.4439 -11.2279 -11.2169 -11.1380  -7.3370  -7.3167
    -7.2625  -7.2600  -7.2504  -7.2413  -4.3134  -4.2614  -3.2726  -3.1053
    -2.5594  -1.8953  -1.8339  -1.8182  -1.6440  -1.4679  -1.3446  -1.1639
    -1.0767  -0.9836  -0.9321  -0.8573  -0.7988  -0.5376  -0.5103  -0.4250
    -0.4103  -0.1820   0.0403   0.1067   0.2047   0.2908   0.5405   0.5642
     0.7246   0.9654   1.1115   1.1185   1.1553   1.1887   1.3526   1.4209
     1.4302   1.6835   1.6884   1.7945   1.7986   1.8924   1.9438   1.9641
     2.0063   2.0663   2.1021   2.1117   2.2403   2.3223   2.3264   2.4361
     2.5724   2.6358   2.6600   2.6975   2.8372   2.8429   3.0059   3.0182
     3.0798   3.4601   3.4638   3.5494   3.9426   4.1469   4.2423   4.2777
     4.5140   4.7648   4.8517   5.0333   5.4135   5.7145   5.7719   7.5930
     7.9071   8.3817   9.7683  10.5039  10.9619  11.1228  11.2765  11.5601
    11.6799  11.8515  12.1412  12.3184  12.5176  12.6649  12.7850  12.7989
    12.9178  13.2413  13.3028  13.3091  13.3526

     occupation numbers 
     1.0000   1.0000   1.0000   1.0000   1.0000   1.0000   1.0000   1.0000
     1.0000   1.0000   1.0000   1.0000   1.0000   1.0000   1.0000   1.0000
     1.0000   1.0000   1.0000   1.0000   1.0000   1.0000   1.0000   1.0000
     1.0000   1.0000   1.0000   1.0000   1.0000   1.0000   1.0000   1.0000
     1.0000   1.0000   1.0000   1.0000   1.0000   1.0000   1.0000   1.0000
     1.0000   1.0000   1.0000   1.0000   1.0000   1.0000   1.0000   1.0000
     1.0000   1.0000   1.0000   1.0000   1.0000   1.0000   1.0000   1.0000
     1.0000   1.0000   1.0000   1.0000   1.0000   1.0000   1.0000   1.0000
     1.0000   1.0000   1.0000   1.0000   1.0000   1.0000   1.0000   1.0000
     1.0000   1.0000   1.0000   1.0000   1.0000   1.0000   1.0000   1.0000
     1.0000   1.0000   1.0000   1.0000   1.0000   1.0000   1.0000   1.0000
     1.0000   1.0000   1.0000   1.0000   1.0000   1.0000   1.0000   1.0000
     1.0000   1.0000   1.0000   1.0000   1.0000   1.0000   1.0000   1.0000
     1.0000   1.0000   1.0000   1.0000   1.0000   1.0000   1.0000   1.0000
     1.0000   1.0000   1.0000   1.0000   1.0000   1.0000   1.0000   1.0000
     1.0000   1.0000   1.0000   1.0000   0.0000   0.0000   0.0000   0.0000
     0.0000   0.0000   0.0000   0.0000   0.0000   0.0000   0.0000   0.0000
     0.0000   0.0000   0.0000   0.0000   0.0000   0.0000   0.0000   0.0000
     0.0000   0.0000   0.0000   0.0000   0.0000

          k = 0.0000 0.0000 0.1730 ( 26756 PWs)   bands (ev):

   -69.0665 -68.1695 -67.9794 -66.8195 -53.9919 -35.8546 -35.8053 -35.7959
   -34.9270 -34.9203 -34.9118 -34.7401 -34.7336 -34.7130 -33.5822 -33.5759
   -33.5511 -30.2420 -30.1468 -30.1378 -23.7810 -23.7798 -15.4172 -15.3124
   -14.6983 -14.6626 -14.3579 -14.1933 -14.1537 -14.0644 -13.9279 -13.8878
   -13.8808 -13.6559 -13.5955 -13.5394 -13.5129 -13.3616 -13.2927 -13.2768
   -13.1760 -13.1608 -11.4421 -11.2290 -11.2164 -11.1393  -7.3371  -7.3167
    -7.2625  -7.2599  -7.2503  -7.2413  -4.3047  -4.2706  -3.2514  -3.1322
    -2.5377  -1.8863  -1.8427  -1.8172  -1.6703  -1.4578  -1.3538  -1.1567
    -1.0883  -0.9735  -0.9359  -0.8710  -0.7970  -0.5331  -0.5066  -0.4402
    -0.4266  -0.1526   0.0287   0.1479   0.2296   0.2783   0.5050   0.5807
     0.6718   1.0231   1.0801   1.1409   1.1687   1.2625   1.2724   1.4125
     1.4827   1.5772   1.7167   1.7509   1.8080   1.8775   1.9495   1.9897
     2.0436   2.0838   2.1099   2.1628   2.1902   2.2689   2.3515   2.4750
     2.5809   2.6169   2.6405   2.6515   2.8538   2.9128   2.9972   3.0572
     3.0873   3.4063   3.4686   3.4865   3.9825   4.1426   4.2086   4.2579
     4.5253   4.7780   4.8550   5.0327   5.4138   5.7153   5.7702   7.5893
     7.9091   8.6660   9.3286  10.6087  10.9697  11.0537  11.3454  11.4657
    11.8628  12.0478  12.1109  12.2679  12.4795  12.5419  12.6320  12.8318
    12.9492  13.2096  13.2291  13.3280  13.5159

     occupation numbers 
     1.0000   1.0000   1.0000   1.0000   1.0000   1.0000   1.0000   1.0000
     1.0000   1.0000   1.0000   1.0000   1.0000   1.0000   1.0000   1.0000
     1.0000   1.0000   1.0000   1.0000   1.0000   1.0000   1.0000   1.0000
     1.0000   1.0000   1.0000   1.0000   1.0000   1.0000   1.0000   1.0000
     1.0000   1.0000   1.0000   1.0000   1.0000   1.0000   1.0000   1.0000
     1.0000   1.0000   1.0000   1.0000   1.0000   1.0000   1.0000   1.0000
     1.0000   1.0000   1.0000   1.0000   1.0000   1.0000   1.0000   1.0000
     1.0000   1.0000   1.0000   1.0000   1.0000   1.0000   1.0000   1.0000
     1.0000   1.0000   1.0000   1.0000   1.0000   1.0000   1.0000   1.0000
     1.0000   1.0000   1.0000   1.0000   1.0000   1.0000   1.0000   1.0000
     1.0000   1.0000   1.0000   1.0000   1.0000   1.0000   1.0000   1.0000
     1.0000   1.0000   1.0000   1.0000   1.0000   1.0000   1.0000   1.0000
     1.0000   1.0000   1.0000   1.0000   1.0000   1.0000   1.0000   1.0000
     1.0000   1.0000   1.0000   1.0000   1.0000   1.0000   1.0000   1.0000
     1.0000   1.0000   1.0000   1.0000   1.0000   1.0000   1.0000   1.0000
     1.0000   1.0000   1.0000   1.0000   0.0000   0.0000   0.0000   0.0000
     0.0000   0.0000   0.0000   0.0000   0.0000   0.0000   0.0000   0.0000
     0.0000   0.0000   0.0000   0.0000   0.0000   0.0000   0.0000   0.0000
     0.0000   0.0000   0.0000   0.0000   0.0000

          k = 0.0000 0.1920 0.0000 ( 26787 PWs)   bands (ev):

   -69.0665 -68.1695 -67.9794 -66.8195 -53.9919 -35.8546 -35.8053 -35.7959
   -34.9270 -34.9203 -34.9118 -34.7401 -34.7336 -34.7130 -33.5822 -33.5759
   -33.5511 -30.2420 -30.1468 -30.1378 -23.7809 -23.7799 -15.4134 -15.2962
   -14.7612 -14.6824 -14.2964 -14.2241 -14.1910 -13.9532 -13.9433 -13.8832
   -13.8554 -13.6734 -13.5893 -13.5541 -13.5053 -13.3607 -13.2920 -13.2775
   -13.2055 -13.1752 -11.4439 -11.2272 -11.2151 -11.1374  -7.3347  -7.3193
    -7.2621  -7.2578  -7.2522  -7.2419  -4.2174  -4.1595  -3.4402  -3.3176
    -2.5964  -1.9076  -1.7735  -1.7108  -1.5804  -1.4666  -1.3072  -1.1453
    -1.0595  -0.9143  -0.8905  -0.8227  -0.8015  -0.6069  -0.5863  -0.4925
    -0.3893  -0.2402   0.0187   0.0284   0.2928   0.3241   0.5562   0.5692
     0.6773   0.9173   1.0322   1.1429   1.2091   1.2792   1.4545   1.4770
     1.5393   1.6753   1.6945   1.7377   1.8059   1.8428   1.8725   1.9859
     2.0117   2.0801   2.0912   2.1454   2.1853   2.2964   2.3282   2.4503
     2.5331   2.6846   2.6894   2.7158   2.8050   2.8256   2.9802   3.0281
     3.0997   3.4286   3.4360   3.5454   3.9231   4.1350   4.2340   4.2617
     4.4126   4.7591   4.8518   5.0331   5.4286   5.7264   5.7709   7.5635
     7.9141   8.7244   9.8132   9.9530  10.7427  11.2921  11.3801  11.6704
    11.7880  11.9940  12.1957  12.2495  12.4756  12.4801  12.8563  12.8865
    13.0206  13.0334  13.1898  13.3561  13.3856

     occupation numbers 
     1.0000   1.0000   1.0000   1.0000   1.0000   1.0000   1.0000   1.0000
     1.0000   1.0000   1.0000   1.0000   1.0000   1.0000   1.0000   1.0000
     1.0000   1.0000   1.0000   1.0000   1.0000   1.0000   1.0000   1.0000
     1.0000   1.0000   1.0000   1.0000   1.0000   1.0000   1.0000   1.0000
     1.0000   1.0000   1.0000   1.0000   1.0000   1.0000   1.0000   1.0000
     1.0000   1.0000   1.0000   1.0000   1.0000   1.0000   1.0000   1.0000
     1.0000   1.0000   1.0000   1.0000   1.0000   1.0000   1.0000   1.0000
     1.0000   1.0000   1.0000   1.0000   1.0000   1.0000   1.0000   1.0000
     1.0000   1.0000   1.0000   1.0000   1.0000   1.0000   1.0000   1.0000
     1.0000   1.0000   1.0000   1.0000   1.0000   1.0000   1.0000   1.0000
     1.0000   1.0000   1.0000   1.0000   1.0000   1.0000   1.0000   1.0000
     1.0000   1.0000   1.0000   1.0000   1.0000   1.0000   1.0000   1.0000
     1.0000   1.0000   1.0000   1.0000   1.0000   1.0000   1.0000   1.0000
     1.0000   1.0000   1.0000   1.0000   1.0000   1.0000   1.0000   1.0000
     1.0000   1.0000   1.0000   1.0000   1.0000   1.0000   1.0000   1.0000
     1.0000   1.0000   1.0000   1.0000   0.0000   0.0000   0.0000   0.0000
     0.0000   0.0000   0.0000   0.0000   0.0000   0.0000   0.0000   0.0000
     0.0000   0.0000   0.0000   0.0000   0.0000   0.0000   0.0000   0.0000
     0.0000   0.0000   0.0000   0.0000   0.0000

          k = 0.0000 0.1920 0.1730 ( 26783 PWs)   bands (ev):

   -69.0665 -68.1695 -67.9794 -66.8195 -53.9919 -35.8546 -35.8053 -35.7959
   -34.9270 -34.9203 -34.9118 -34.7401 -34.7336 -34.7130 -33.5822 -33.5759
   -33.5511 -30.2420 -30.1468 -30.1378 -23.7809 -23.7799 -15.4075 -15.3040
   -14.7506 -14.6947 -14.2910 -14.2165 -14.1976 -13.9549 -13.9484 -13.8854
   -13.8449 -13.6785 -13.5944 -13.5404 -13.5144 -13.3600 -13.2927 -13.2769
   -13.1981 -13.1822 -11.4422 -11.2282 -11.2145 -11.1388  -7.3348  -7.3192
    -7.2621  -7.2578  -7.2521  -7.2419  -4.2042  -4.1734  -3.4154  -3.3462
    -2.5766  -1.9015  -1.7996  -1.6980  -1.6002  -1.4559  -1.3130  -1.1424
    -1.0704  -0.9256  -0.8837  -0.8326  -0.7922  -0.6181  -0.5697  -0.4882
    -0.4163  -0.2078   0.0063   0.0864   0.2296   0.3715   0.4784   0.6029
     0.6466   1.0124   1.0418   1.1503   1.2118   1.2882   1.3737   1.4819
     1.5606   1.6204   1.7035   1.7337   1.7955   1.8604   1.8979   1.9628
     2.0178   2.0498   2.1335   2.1541   2.2116   2.2429   2.3487   2.4677
     2.5330   2.6138   2.6981   2.7234   2.8329   2.8682   3.0199   3.0465
     3.0829   3.4125   3.4310   3.4622   3.9685   4.1220   4.1996   4.2474
     4.4323   4.7728   4.8544   5.0324   5.4297   5.7273   5.7688   7.5556
     7.9162   8.9703   9.5590  10.0007  10.4786  11.2978  11.3982  11.8465
    11.9254  11.9950  12.1675  12.3148  12.4047  12.5792  12.7021  12.8477
    13.0443  13.1292  13.1933  13.2906  13.5477

     occupation numbers 
     1.0000   1.0000   1.0000   1.0000   1.0000   1.0000   1.0000   1.0000
     1.0000   1.0000   1.0000   1.0000   1.0000   1.0000   1.0000   1.0000
     1.0000   1.0000   1.0000   1.0000   1.0000   1.0000   1.0000   1.0000
     1.0000   1.0000   1.0000   1.0000   1.0000   1.0000   1.0000   1.0000
     1.0000   1.0000   1.0000   1.0000   1.0000   1.0000   1.0000   1.0000
     1.0000   1.0000   1.0000   1.0000   1.0000   1.0000   1.0000   1.0000
     1.0000   1.0000   1.0000   1.0000   1.0000   1.0000   1.0000   1.0000
     1.0000   1.0000   1.0000   1.0000   1.0000   1.0000   1.0000   1.0000
     1.0000   1.0000   1.0000   1.0000   1.0000   1.0000   1.0000   1.0000
     1.0000   1.0000   1.0000   1.0000   1.0000   1.0000   1.0000   1.0000
     1.0000   1.0000   1.0000   1.0000   1.0000   1.0000   1.0000   1.0000
     1.0000   1.0000   1.0000   1.0000   1.0000   1.0000   1.0000   1.0000
     1.0000   1.0000   1.0000   1.0000   1.0000   1.0000   1.0000   1.0000
     1.0000   1.0000   1.0000   1.0000   1.0000   1.0000   1.0000   1.0000
     1.0000   1.0000   1.0000   1.0000   1.0000   1.0000   1.0000   1.0000
     1.0000   1.0000   1.0000   1.0000   0.0000   0.0000   0.0000   0.0000
     0.0000   0.0000   0.0000   0.0000   0.0000   0.0000   0.0000   0.0000
     0.0000   0.0000   0.0000   0.0000   0.0000   0.0000   0.0000   0.0000
     0.0000   0.0000   0.0000   0.0000   0.0000

          k = 0.1667 0.0000 0.0298 ( 26772 PWs)   bands (ev):

   -69.0665 -68.1695 -67.9794 -66.8195 -53.9919 -35.8545 -35.8053 -35.7959
   -34.9270 -34.9202 -34.9118 -34.7401 -34.7336 -34.7130 -33.5822 -33.5759
   -33.5511 -30.2421 -30.1467 -30.1379 -23.7809 -23.7797 -15.3941 -15.2855
   -14.6632 -14.6081 -14.3473 -14.1836 -14.1375 -14.0716 -13.9499 -13.9088
   -13.8867 -13.6973 -13.6032 -13.5657 -13.5216 -13.3942 -13.3716 -13.3582
   -13.1433 -13.1171 -11.4307 -11.2526 -11.1991 -11.1315  -7.3380  -7.3189
    -7.2621  -7.2585  -7.2504  -7.2395  -4.1887  -4.1348  -3.1709  -2.9938
    -2.4737  -1.9752  -1.8737  -1.8487  -1.7006  -1.4959  -1.3579  -1.2043
    -1.1272  -1.0474  -1.0031  -0.8930  -0.8069  -0.5919  -0.5445  -0.3015
    -0.2427  -0.1295  -0.0661   0.1511   0.2597   0.3678   0.5249   0.6702
     0.7085   0.9198   1.0108   1.0697   1.1902   1.2356   1.3362   1.4089
     1.4519   1.5234   1.6705   1.6993   1.8453   1.9033   1.9165   1.9543
     1.9991   2.0601   2.1386   2.1666   2.2528   2.2818   2.3307   2.4167
     2.5124   2.5534   2.5777   2.6614   2.8295   2.8785   2.9885   3.0693
     3.1073   3.3480   3.3656   3.5236   3.9849   4.1405   4.2290   4.3092
     4.5394   4.7327   4.8325   4.9768   5.4293   5.7138   5.7458   7.5938
     7.8762   8.6906   9.9464  10.5804  11.0889  11.1489  11.2978  11.6608
    11.7392  11.9266  11.9781  12.3852  12.4952  12.5907  12.6425  12.8899
    13.0137  13.1242  13.2811  13.3639  13.4396

     occupation numbers 
     1.0000   1.0000   1.0000   1.0000   1.0000   1.0000   1.0000   1.0000
     1.0000   1.0000   1.0000   1.0000   1.0000   1.0000   1.0000   1.0000
     1.0000   1.0000   1.0000   1.0000   1.0000   1.0000   1.0000   1.0000
     1.0000   1.0000   1.0000   1.0000   1.0000   1.0000   1.0000   1.0000
     1.0000   1.0000   1.0000   1.0000   1.0000   1.0000   1.0000   1.0000
     1.0000   1.0000   1.0000   1.0000   1.0000   1.0000   1.0000   1.0000
     1.0000   1.0000   1.0000   1.0000   1.0000   1.0000   1.0000   1.0000
     1.0000   1.0000   1.0000   1.0000   1.0000   1.0000   1.0000   1.0000
     1.0000   1.0000   1.0000   1.0000   1.0000   1.0000   1.0000   1.0000
     1.0000   1.0000   1.0000   1.0000   1.0000   1.0000   1.0000   1.0000
     1.0000   1.0000   1.0000   1.0000   1.0000   1.0000   1.0000   1.0000
     1.0000   1.0000   1.0000   1.0000   1.0000   1.0000   1.0000   1.0000
     1.0000   1.0000   1.0000   1.0000   1.0000   1.0000   1.0000   1.0000
     1.0000   1.0000   1.0000   1.0000   1.0000   1.0000   1.0000   1.0000
     1.0000   1.0000   1.0000   1.0000   1.0000   1.0000   1.0000   1.0000
     1.0000   1.0000   1.0000   1.0000   0.0000   0.0000   0.0000   0.0000
     0.0000   0.0000   0.0000   0.0000   0.0000   0.0000   0.0000   0.0000
     0.0000   0.0000   0.0000   0.0000   0.0000   0.0000   0.0000   0.0000
     0.0000   0.0000   0.0000   0.0000   0.0000

          k = 0.1667 0.0000 0.2028 ( 26774 PWs)   bands (ev):

   -69.0665 -68.1695 -67.9794 -66.8195 -53.9919 -35.8545 -35.8053 -35.7959
   -34.9270 -34.9203 -34.9118 -34.7401 -34.7336 -34.7130 -33.5822 -33.5759
   -33.5511 -30.2421 -30.1467 -30.1379 -23.7809 -23.7797 -15.3870 -15.2945
   -14.6505 -14.6216 -14.3423 -14.1734 -14.1456 -14.0835 -13.9453 -13.9050
   -13.8820 -13.7051 -13.5997 -13.5592 -13.5300 -13.3871 -13.3825 -13.3541
   -13.1371 -13.1230 -11.4287 -11.2531 -11.1994 -11.1327  -7.3381  -7.3188
    -7.2621  -7.2585  -7.2503  -7.2395  -4.1824  -4.1419  -3.1537  -3.0164
    -2.4500  -1.9553  -1.9017  -1.8417  -1.7251  -1.4864  -1.3651  -1.1990
    -1.1337  -1.0533  -0.9982  -0.9000  -0.8068  -0.5864  -0.5711  -0.2981
    -0.2310  -0.1252  -0.0548   0.1560   0.2892   0.3693   0.5462   0.6028
     0.7019   0.9437   1.0338   1.1101   1.1547   1.2667   1.3083   1.3906
     1.4506   1.5261   1.5610   1.7084   1.8177   1.9348   1.9494   1.9971
     2.0063   2.0927   2.1446   2.1788   2.1933   2.2661   2.3558   2.4454
     2.4955   2.5442   2.5751   2.6373   2.8678   2.9263   2.9756   3.0822
     3.1351   3.3484   3.3634   3.4125   4.0147   4.1393   4.2147   4.2727
     4.5477   4.7443   4.8366   4.9847   5.4293   5.7129   5.7452   7.5909
     7.8711   9.0397   9.4389  10.6732  11.0214  11.1618  11.3539  11.5797
    11.7307  12.0995  12.2601  12.3138  12.4177  12.4449  12.5682  12.8452
    13.0501  13.1160  13.1923  13.3815  13.4579

     occupation numbers 
     1.0000   1.0000   1.0000   1.0000   1.0000   1.0000   1.0000   1.0000
     1.0000   1.0000   1.0000   1.0000   1.0000   1.0000   1.0000   1.0000
     1.0000   1.0000   1.0000   1.0000   1.0000   1.0000   1.0000   1.0000
     1.0000   1.0000   1.0000   1.0000   1.0000   1.0000   1.0000   1.0000
     1.0000   1.0000   1.0000   1.0000   1.0000   1.0000   1.0000   1.0000
     1.0000   1.0000   1.0000   1.0000   1.0000   1.0000   1.0000   1.0000
     1.0000   1.0000   1.0000   1.0000   1.0000   1.0000   1.0000   1.0000
     1.0000   1.0000   1.0000   1.0000   1.0000   1.0000   1.0000   1.0000
     1.0000   1.0000   1.0000   1.0000   1.0000   1.0000   1.0000   1.0000
     1.0000   1.0000   1.0000   1.0000   1.0000   1.0000   1.0000   1.0000
     1.0000   1.0000   1.0000   1.0000   1.0000   1.0000   1.0000   1.0000
     1.0000   1.0000   1.0000   1.0000   1.0000   1.0000   1.0000   1.0000
     1.0000   1.0000   1.0000   1.0000   1.0000   1.0000   1.0000   1.0000
     1.0000   1.0000   1.0000   1.0000   1.0000   1.0000   1.0000   1.0000
     1.0000   1.0000   1.0000   1.0000   1.0000   1.0000   1.0000   1.0000
     1.0000   1.0000   1.0000   1.0000   0.0000   0.0000   0.0000   0.0000
     0.0000   0.0000   0.0000   0.0000   0.0000   0.0000   0.0000   0.0000
     0.0000   0.0000   0.0000   0.0000   0.0000   0.0000   0.0000   0.0000
     0.0000   0.0000   0.0000   0.0000   0.0000

          k = 0.1667 0.0000-0.1432 ( 26772 PWs)   bands (ev):

   -69.0665 -68.1695 -67.9794 -66.8195 -53.9919 -35.8545 -35.8053 -35.7959
   -34.9270 -34.9202 -34.9118 -34.7401 -34.7336 -34.7130 -33.5822 -33.5759
   -33.5511 -30.2421 -30.1467 -30.1379 -23.7809 -23.7797 -15.3893 -15.2918
   -14.6551 -14.6167 -14.3438 -14.1711 -14.1478 -14.0810 -13.9448 -13.9090
   -13.8828 -13.7019 -13.5943 -13.5743 -13.5204 -13.3922 -13.3744 -13.3577
   -13.1391 -13.1210 -11.4291 -11.2525 -11.1993 -11.1330  -7.3381  -7.3189
    -7.2621  -7.2585  -7.2503  -7.2395  -4.1742  -4.1501  -3.1531  -3.0167
    -2.4557  -1.9617  -1.8923  -1.8473  -1.7146  -1.4854  -1.3702  -1.2057
    -1.1343  -1.0518  -1.0024  -0.8930  -0.8052  -0.5877  -0.5526  -0.3017
    -0.2262  -0.1253  -0.0624   0.1650   0.2994   0.3674   0.5108   0.5882
     0.7384   0.9253   0.9983   1.1152   1.1865   1.2317   1.2565   1.4616
     1.4894   1.5386   1.6246   1.6992   1.8161   1.9012   1.9284   1.9627
     2.0167   2.0568   2.1213   2.1606   2.1975   2.2505   2.3739   2.4588
     2.5216   2.5567   2.5761   2.7126   2.8570   2.9036   2.9812   3.0749
     3.0760   3.3511   3.3559   3.4525   4.0071   4.1497   4.1862   4.3122
     4.5368   4.7348   4.8420   4.9832   5.4300   5.7135   5.7464   7.5909
     7.8773   8.8550   9.6667  10.6904  11.0160  11.2133  11.3796  11.5917
    11.7669  11.9393  12.0568  12.2963  12.4601  12.5114  12.7339  12.8259
    12.9464  13.0941  13.2356  13.3717  13.4692

     occupation numbers 
     1.0000   1.0000   1.0000   1.0000   1.0000   1.0000   1.0000   1.0000
     1.0000   1.0000   1.0000   1.0000   1.0000   1.0000   1.0000   1.0000
     1.0000   1.0000   1.0000   1.0000   1.0000   1.0000   1.0000   1.0000
     1.0000   1.0000   1.0000   1.0000   1.0000   1.0000   1.0000   1.0000
     1.0000   1.0000   1.0000   1.0000   1.0000   1.0000   1.0000   1.0000
     1.0000   1.0000   1.0000   1.0000   1.0000   1.0000   1.0000   1.0000
     1.0000   1.0000   1.0000   1.0000   1.0000   1.0000   1.0000   1.0000
     1.0000   1.0000   1.0000   1.0000   1.0000   1.0000   1.0000   1.0000
     1.0000   1.0000   1.0000   1.0000   1.0000   1.0000   1.0000   1.0000
     1.0000   1.0000   1.0000   1.0000   1.0000   1.0000   1.0000   1.0000
     1.0000   1.0000   1.0000   1.0000   1.0000   1.0000   1.0000   1.0000
     1.0000   1.0000   1.0000   1.0000   1.0000   1.0000   1.0000   1.0000
     1.0000   1.0000   1.0000   1.0000   1.0000   1.0000   1.0000   1.0000
     1.0000   1.0000   1.0000   1.0000   1.0000   1.0000   1.0000   1.0000
     1.0000   1.0000   1.0000   1.0000   1.0000   1.0000   1.0000   1.0000
     1.0000   1.0000   1.0000   1.0000   0.0000   0.0000   0.0000   0.0000
     0.0000   0.0000   0.0000   0.0000   0.0000   0.0000   0.0000   0.0000
     0.0000   0.0000   0.0000   0.0000   0.0000   0.0000   0.0000   0.0000
     0.0000   0.0000   0.0000   0.0000   0.0000

          k = 0.1667 0.1920 0.0298 ( 26762 PWs)   bands (ev):

   -69.0665 -68.1695 -67.9794 -66.8195 -53.9919 -35.8545 -35.8053 -35.7959
   -34.9270 -34.9203 -34.9118 -34.7401 -34.7336 -34.7130 -33.5822 -33.5759
   -33.5511 -30.2421 -30.1467 -30.1379 -23.7808 -23.7798 -15.3862 -15.2785
   -14.7126 -14.6349 -14.2816 -14.2091 -14.1874 -13.9672 -13.9492 -13.9047
   -13.8628 -13.7239 -13.6065 -13.5681 -13.5238 -13.4028 -13.3817 -13.3507
   -13.1527 -13.1272 -11.4306 -11.2514 -11.1985 -11.1310  -7.3366  -7.3207
    -7.2619  -7.2566  -7.2519  -7.2398  -4.1045  -4.0442  -3.3306  -3.2093
    -2.5367  -1.8993  -1.8054  -1.7368  -1.6430  -1.4967  -1.3194  -1.1974
    -1.1080  -1.0471  -0.9526  -0.9078  -0.7608  -0.6107  -0.5585  -0.3906
    -0.3024  -0.1755  -0.1069   0.1531   0.2811   0.3938   0.5333   0.6633
     0.7064   0.8852   1.0238   1.1117   1.1581   1.2811   1.3554   1.4053
     1.4640   1.5443   1.7024   1.7432   1.8167   1.8519   1.9195   1.9480
     2.0229   2.0849   2.1126   2.1467   2.2138   2.2845   2.3195   2.4421
     2.5081   2.5742   2.6530   2.6974   2.7918   2.9034   2.9312   3.0754
     3.1257   3.3125   3.3300   3.5312   3.9644   4.1111   4.2137   4.2979
     4.4742   4.7281   4.8286   4.9957   5.4398   5.7202   5.7486   7.5661
     7.8888   8.9759   9.9949  10.1053  10.8395  11.3043  11.4103  11.7017
    11.7928  11.9451  12.1454  12.3075  12.4446  12.6345  12.7465  12.9089
    13.0153  13.0682  13.1155  13.3148  13.4475

     occupation numbers 
     1.0000   1.0000   1.0000   1.0000   1.0000   1.0000   1.0000   1.0000
     1.0000   1.0000   1.0000   1.0000   1.0000   1.0000   1.0000   1.0000
     1.0000   1.0000   1.0000   1.0000   1.0000   1.0000   1.0000   1.0000
     1.0000   1.0000   1.0000   1.0000   1.0000   1.0000   1.0000   1.0000
     1.0000   1.0000   1.0000   1.0000   1.0000   1.0000   1.0000   1.0000
     1.0000   1.0000   1.0000   1.0000   1.0000   1.0000   1.0000   1.0000
     1.0000   1.0000   1.0000   1.0000   1.0000   1.0000   1.0000   1.0000
     1.0000   1.0000   1.0000   1.0000   1.0000   1.0000   1.0000   1.0000
     1.0000   1.0000   1.0000   1.0000   1.0000   1.0000   1.0000   1.0000
     1.0000   1.0000   1.0000   1.0000   1.0000   1.0000   1.0000   1.0000
     1.0000   1.0000   1.0000   1.0000   1.0000   1.0000   1.0000   1.0000
     1.0000   1.0000   1.0000   1.0000   1.0000   1.0000   1.0000   1.0000
     1.0000   1.0000   1.0000   1.0000   1.0000   1.0000   1.0000   1.0000
     1.0000   1.0000   1.0000   1.0000   1.0000   1.0000   1.0000   1.0000
     1.0000   1.0000   1.0000   1.0000   1.0000   1.0000   1.0000   1.0000
     1.0000   1.0000   1.0000   1.0000   0.0000   0.0000   0.0000   0.0000
     0.0000   0.0000   0.0000   0.0000   0.0000   0.0000   0.0000   0.0000
     0.0000   0.0000   0.0000   0.0000   0.0000   0.0000   0.0000   0.0000
     0.0000   0.0000   0.0000   0.0000   0.0000

          k = 0.1667 0.1920 0.2028 ( 26761 PWs)   bands (ev):

   -69.0665 -68.1695 -67.9794 -66.8195 -53.9919 -35.8545 -35.8053 -35.7959
   -34.9270 -34.9202 -34.9118 -34.7401 -34.7336 -34.7130 -33.5822 -33.5759
   -33.5511 -30.2421 -30.1467 -30.1379 -23.7808 -23.7798 -15.3788 -15.2879
   -14.6999 -14.6492 -14.2757 -14.2106 -14.1845 -13.9740 -13.9517 -13.9038
   -13.8514 -13.7333 -13.6014 -13.5633 -13.5327 -13.3953 -13.3889 -13.3499
   -13.1470 -13.1327 -11.4288 -11.2520 -11.1987 -11.1322  -7.3367  -7.3206
    -7.2619  -7.2566  -7.2518  -7.2398  -4.0921  -4.0575  -3.3103  -3.2335
    -2.5146  -1.8947  -1.8276  -1.7368  -1.6517  -1.4836  -1.3287  -1.2059
    -1.1070  -1.0459  -0.9578  -0.9089  -0.7588  -0.6178  -0.5619  -0.3919
    -0.2872  -0.1681  -0.0988   0.1672   0.2918   0.4009   0.4688   0.6591
     0.7106   0.9943   1.0231   1.0787   1.2099   1.2468   1.2668   1.4294
     1.4438   1.5500   1.6852   1.7131   1.7759   1.8654   1.9445   1.9894
     2.0466   2.0792   2.1311   2.1740   2.2105   2.2535   2.3167   2.4438
     2.4963   2.5760   2.6261   2.7092   2.8131   2.9204   2.9734   3.0821
     3.1372   3.3197   3.3275   3.4255   3.9989   4.1097   4.2010   4.2576
     4.4884   4.7403   4.8319   5.0017   5.4406   5.7188   5.7482   7.5608
     7.8852   9.2735   9.6570  10.1928  10.5706  11.2823  11.4023  11.7450
    11.9884  12.0571  12.2336  12.3141  12.4412  12.5464  12.6834  12.8491
    13.0222  13.0651  13.1609  13.2655  13.4389

     occupation numbers 
     1.0000   1.0000   1.0000   1.0000   1.0000   1.0000   1.0000   1.0000
     1.0000   1.0000   1.0000   1.0000   1.0000   1.0000   1.0000   1.0000
     1.0000   1.0000   1.0000   1.0000   1.0000   1.0000   1.0000   1.0000
     1.0000   1.0000   1.0000   1.0000   1.0000   1.0000   1.0000   1.0000
     1.0000   1.0000   1.0000   1.0000   1.0000   1.0000   1.0000   1.0000
     1.0000   1.0000   1.0000   1.0000   1.0000   1.0000   1.0000   1.0000
     1.0000   1.0000   1.0000   1.0000   1.0000   1.0000   1.0000   1.0000
     1.0000   1.0000   1.0000   1.0000   1.0000   1.0000   1.0000   1.0000
     1.0000   1.0000   1.0000   1.0000   1.0000   1.0000   1.0000   1.0000
     1.0000   1.0000   1.0000   1.0000   1.0000   1.0000   1.0000   1.0000
     1.0000   1.0000   1.0000   1.0000   1.0000   1.0000   1.0000   1.0000
     1.0000   1.0000   1.0000   1.0000   1.0000   1.0000   1.0000   1.0000
     1.0000   1.0000   1.0000   1.0000   1.0000   1.0000   1.0000   1.0000
     1.0000   1.0000   1.0000   1.0000   1.0000   1.0000   1.0000   1.0000
     1.0000   1.0000   1.0000   1.0000   1.0000   1.0000   1.0000   1.0000
     1.0000   1.0000   1.0000   1.0000   0.0000   0.0000   0.0000   0.0000
     0.0000   0.0000   0.0000   0.0000   0.0000   0.0000   0.0000   0.0000
     0.0000   0.0000   0.0000   0.0000   0.0000   0.0000   0.0000   0.0000
     0.0000   0.0000   0.0000   0.0000   0.0000

          k = 0.1667 0.1920-0.1432 ( 26775 PWs)   bands (ev):

   -69.0665 -68.1695 -67.9794 -66.8195 -53.9919 -35.8545 -35.8053 -35.7959
   -34.9270 -34.9203 -34.9118 -34.7401 -34.7336 -34.7130 -33.5822 -33.5759
   -33.5511 -30.2421 -30.1467 -30.1379 -23.7808 -23.7798 -15.3811 -15.2851
   -14.7046 -14.6439 -14.2771 -14.2021 -14.1941 -13.9699 -13.9527 -13.9043
   -13.8557 -13.7294 -13.5974 -13.5770 -13.5232 -13.4038 -13.3769 -13.3540
   -13.1493 -13.1305 -11.4292 -11.2514 -11.1985 -11.1325  -7.3367  -7.3207
    -7.2619  -7.2565  -7.2518  -7.2398  -4.0885  -4.0611  -3.3059  -3.2380
    -2.5200  -1.9006  -1.8156  -1.7248  -1.6632  -1.4877  -1.3268  -1.2067
    -1.1077  -1.0506  -0.9518  -0.9089  -0.7577  -0.6003  -0.5669  -0.3954
    -0.2827  -0.1806  -0.1027   0.1983   0.2634   0.4045   0.5078   0.6148
     0.7300   0.9072   1.0242   1.1141   1.1830   1.2189   1.3610   1.4324
     1.4390   1.6040   1.6956   1.7255   1.7980   1.8588   1.9138   1.9368
     1.9926   2.0640   2.1120   2.1683   2.1913   2.2494   2.3704   2.4600
     2.5075   2.6190   2.6436   2.7286   2.8030   2.9031   2.9649   3.0811
     3.0985   3.3016   3.3303   3.4638   3.9917   4.1269   4.1631   4.3021
     4.4700   4.7309   4.8378   5.0004   5.4405   5.7199   5.7497   7.5592
     7.8870   9.1364   9.8419  10.1415  10.6508  11.3203  11.4507  11.8148
    11.8782  11.9988  12.0761  12.2885  12.3703  12.6078  12.7908  12.8713
    12.9866  13.0401  13.1822  13.3414  13.4213

     occupation numbers 
     1.0000   1.0000   1.0000   1.0000   1.0000   1.0000   1.0000   1.0000
     1.0000   1.0000   1.0000   1.0000   1.0000   1.0000   1.0000   1.0000
     1.0000   1.0000   1.0000   1.0000   1.0000   1.0000   1.0000   1.0000
     1.0000   1.0000   1.0000   1.0000   1.0000   1.0000   1.0000   1.0000
     1.0000   1.0000   1.0000   1.0000   1.0000   1.0000   1.0000   1.0000
     1.0000   1.0000   1.0000   1.0000   1.0000   1.0000   1.0000   1.0000
     1.0000   1.0000   1.0000   1.0000   1.0000   1.0000   1.0000   1.0000
     1.0000   1.0000   1.0000   1.0000   1.0000   1.0000   1.0000   1.0000
     1.0000   1.0000   1.0000   1.0000   1.0000   1.0000   1.0000   1.0000
     1.0000   1.0000   1.0000   1.0000   1.0000   1.0000   1.0000   1.0000
     1.0000   1.0000   1.0000   1.0000   1.0000   1.0000   1.0000   1.0000
     1.0000   1.0000   1.0000   1.0000   1.0000   1.0000   1.0000   1.0000
     1.0000   1.0000   1.0000   1.0000   1.0000   1.0000   1.0000   1.0000
     1.0000   1.0000   1.0000   1.0000   1.0000   1.0000   1.0000   1.0000
     1.0000   1.0000   1.0000   1.0000   1.0000   1.0000   1.0000   1.0000
     1.0000   1.0000   1.0000   1.0000   0.0000   0.0000   0.0000   0.0000
     0.0000   0.0000   0.0000   0.0000   0.0000   0.0000   0.0000   0.0000
     0.0000   0.0000   0.0000   0.0000   0.0000   0.0000   0.0000   0.0000
     0.0000   0.0000   0.0000   0.0000   0.0000

          k = 0.3333 0.0000 0.0596 ( 26753 PWs)   bands (ev):

   -69.0665 -68.1695 -67.9794 -66.8195 -53.9919 -35.8545 -35.8052 -35.7960
   -34.9270 -34.9202 -34.9119 -34.7401 -34.7336 -34.7130 -33.5822 -33.5759
   -33.5511 -30.2424 -30.1465 -30.1382 -23.7805 -23.7796 -15.3288 -15.2468
   -14.5505 -14.5028 -14.3165 -14.1657 -14.1244 -14.0819 -13.9893 -13.9488
   -13.9077 -13.7963 -13.6486 -13.6053 -13.5719 -13.5217 -13.4839 -13.3774
   -13.1118 -13.0861 -11.3942 -11.2918 -11.1844 -11.1201  -7.3407  -7.3228
    -7.2608  -7.2556  -7.2510  -7.2357  -3.8999  -3.8345  -2.9310  -2.7451
    -2.2694  -2.2129  -2.1584  -1.7862  -1.7381  -1.5776  -1.4502  -1.3124
    -1.2197  -1.1737  -1.0301  -0.9278  -0.7432  -0.6593  -0.5088  -0.2640
    -0.1063  -0.0375  -0.0073   0.1546   0.2901   0.4515   0.5995   0.7270
     0.7819   0.8905   0.9191   0.9850   1.0846   1.1723   1.2582   1.3336
     1.3601   1.5091   1.5998   1.6545   1.7572   1.8375   1.8520   1.9090
     2.0460   2.1065   2.1262   2.2352   2.2764   2.2919   2.3664   2.3987
     2.4005   2.4604   2.5379   2.6116   2.8413   2.9070   2.9383   3.0904
     3.1277   3.1583   3.2337   3.4590   4.0413   4.1057   4.2553   4.3716
     4.5486   4.6276   4.7917   4.9494   5.4526   5.6698   5.7373   7.5957
     7.8297   9.4380  10.3400  10.6988  11.1140  11.3119  11.4247  11.5337
    11.7463  11.8907  12.1478  12.2539  12.3964  12.4169  12.7463  12.8677
    13.1321  13.1845  13.2355  13.3479  13.3964

     occupation numbers 
     1.0000   1.0000   1.0000   1.0000   1.0000   1.0000   1.0000   1.0000
     1.0000   1.0000   1.0000   1.0000   1.0000   1.0000   1.0000   1.0000
     1.0000   1.0000   1.0000   1.0000   1.0000   1.0000   1.0000   1.0000
     1.0000   1.0000   1.0000   1.0000   1.0000   1.0000   1.0000   1.0000
     1.0000   1.0000   1.0000   1.0000   1.0000   1.0000   1.0000   1.0000
     1.0000   1.0000   1.0000   1.0000   1.0000   1.0000   1.0000   1.0000
     1.0000   1.0000   1.0000   1.0000   1.0000   1.0000   1.0000   1.0000
     1.0000   1.0000   1.0000   1.0000   1.0000   1.0000   1.0000   1.0000
     1.0000   1.0000   1.0000   1.0000   1.0000   1.0000   1.0000   1.0000
     1.0000   1.0000   1.0000   1.0000   1.0000   1.0000   1.0000   1.0000
     1.0000   1.0000   1.0000   1.0000   1.0000   1.0000   1.0000   1.0000
     1.0000   1.0000   1.0000   1.0000   1.0000   1.0000   1.0000   1.0000
     1.0000   1.0000   1.0000   1.0000   1.0000   1.0000   1.0000   1.0000
     1.0000   1.0000   1.0000   1.0000   1.0000   1.0000   1.0000   1.0000
     1.0000   1.0000   1.0000   1.0000   1.0000   1.0000   1.0000   1.0000
     1.0000   1.0000   1.0000   1.0000   0.0000   0.0000   0.0000   0.0000
     0.0000   0.0000   0.0000   0.0000   0.0000   0.0000   0.0000   0.0000
     0.0000   0.0000   0.0000   0.0000   0.0000   0.0000   0.0000   0.0000
     0.0000   0.0000   0.0000   0.0000   0.0000

          k = 0.3333 0.0000 0.2326 ( 26737 PWs)   bands (ev):

   -69.0665 -68.1695 -67.9794 -66.8195 -53.9919 -35.8545 -35.8052 -35.7960
   -34.9270 -34.9202 -34.9119 -34.7401 -34.7336 -34.7130 -33.5821 -33.5759
   -33.5511 -30.2424 -30.1465 -30.1382 -23.7805 -23.7796 -15.3200 -15.2574
   -14.5378 -14.5152 -14.3087 -14.1772 -14.1254 -14.0820 -13.9853 -13.9450
   -13.9004 -13.8067 -13.6371 -13.6166 -13.5734 -13.5099 -13.4936 -13.3770
   -13.1075 -13.0902 -11.3922 -11.2920 -11.1848 -11.1215  -7.3408  -7.3228
    -7.2608  -7.2556  -7.2509  -7.2357  -3.8908  -3.8451  -2.9170  -2.7613
    -2.2500  -2.1899  -2.1819  -1.8080  -1.7354  -1.5648  -1.4504  -1.3254
    -1.2357  -1.1623  -1.0456  -0.9150  -0.7456  -0.6619  -0.5145  -0.2487
    -0.0838  -0.0253  -0.0181   0.1196   0.3915   0.4283   0.5710   0.7187
     0.8512   0.8758   0.8972   0.9500   1.0509   1.1977   1.2261   1.3147
     1.3951   1.4656   1.5550   1.6772   1.7608   1.7936   1.9122   1.9285
     2.0664   2.1037   2.1566   2.1755   2.2574   2.3013   2.3296   2.3735
     2.4526   2.4984   2.5677   2.6336   2.8796   2.8962   2.9538   3.1121
     3.1383   3.1540   3.2217   3.3635   4.0436   4.1225   4.2318   4.3519
     4.5554   4.6293   4.8001   4.9641   5.4528   5.6695   5.7368   7.5940
     7.8269   9.7663   9.8958  10.7355  11.0762  11.3669  11.4697  11.5400
    11.7520  11.8956  12.1093  12.1201  12.5061  12.6241  12.7145  12.8031
    12.8796  13.1363  13.2422  13.2900  13.3789

     occupation numbers 
     1.0000   1.0000   1.0000   1.0000   1.0000   1.0000   1.0000   1.0000
     1.0000   1.0000   1.0000   1.0000   1.0000   1.0000   1.0000   1.0000
     1.0000   1.0000   1.0000   1.0000   1.0000   1.0000   1.0000   1.0000
     1.0000   1.0000   1.0000   1.0000   1.0000   1.0000   1.0000   1.0000
     1.0000   1.0000   1.0000   1.0000   1.0000   1.0000   1.0000   1.0000
     1.0000   1.0000   1.0000   1.0000   1.0000   1.0000   1.0000   1.0000
     1.0000   1.0000   1.0000   1.0000   1.0000   1.0000   1.0000   1.0000
     1.0000   1.0000   1.0000   1.0000   1.0000   1.0000   1.0000   1.0000
     1.0000   1.0000   1.0000   1.0000   1.0000   1.0000   1.0000   1.0000
     1.0000   1.0000   1.0000   1.0000   1.0000   1.0000   1.0000   1.0000
     1.0000   1.0000   1.0000   1.0000   1.0000   1.0000   1.0000   1.0000
     1.0000   1.0000   1.0000   1.0000   1.0000   1.0000   1.0000   1.0000
     1.0000   1.0000   1.0000   1.0000   1.0000   1.0000   1.0000   1.0000
     1.0000   1.0000   1.0000   1.0000   1.0000   1.0000   1.0000   1.0000
     1.0000   1.0000   1.0000   1.0000   1.0000   1.0000   1.0000   1.0000
     1.0000   1.0000   1.0000   1.0000   0.0000   0.0000   0.0000   0.0000
     0.0000   0.0000   0.0000   0.0000   0.0000   0.0000   0.0000   0.0000
     0.0000   0.0000   0.0000   0.0000   0.0000   0.0000   0.0000   0.0000
     0.0000   0.0000   0.0000   0.0000   0.0000

          k = 0.3333 0.0000-0.1134 ( 26755 PWs)   bands (ev):

   -69.0665 -68.1695 -67.9794 -66.8195 -53.9919 -35.8545 -35.8052 -35.7960
   -34.9270 -34.9202 -34.9119 -34.7401 -34.7336 -34.7130 -33.5821 -33.5759
   -33.5511 -30.2424 -30.1465 -30.1382 -23.7805 -23.7796 -15.3241 -15.2526
   -14.5433 -14.5100 -14.3144 -14.1662 -14.1115 -14.0975 -13.9882 -13.9465
   -13.9082 -13.7957 -13.6515 -13.6070 -13.5708 -13.5150 -13.4882 -13.3780
   -13.1099 -13.0878 -11.3930 -11.2909 -11.1847 -11.1219  -7.3408  -7.3229
    -7.2608  -7.2556  -7.2509  -7.2357  -3.8778  -3.8579  -2.9201  -2.7594
    -2.2468  -2.2088  -2.1736  -1.8027  -1.7303  -1.5683  -1.4497  -1.3199
    -1.2420  -1.1673  -1.0375  -0.9208  -0.7413  -0.6584  -0.5058  -0.2564
    -0.0936  -0.0387  -0.0088   0.1630   0.3533   0.4485   0.5616   0.6870
     0.7724   0.8847   0.9388   0.9898   1.1105   1.1524   1.1762   1.3820
     1.4064   1.4906   1.5703   1.6911   1.7530   1.8180   1.8593   1.8828
     2.0107   2.0817   2.1132   2.2444   2.2637   2.2905   2.3474   2.3957
     2.4416   2.4934   2.5931   2.6728   2.8777   2.8825   2.9412   3.1064
     3.1371   3.1584   3.1725   3.4111   4.0432   4.1149   4.2241   4.3903
     4.5440   4.6149   4.7983   4.9650   5.4535   5.6711   5.7368   7.5941
     7.8353   9.4642  10.2662  10.7769  11.0376  11.4127  11.5086  11.5456
    11.7628  11.8784  11.9765  12.2266  12.3376  12.4499  12.7834  12.9283
    12.9797  13.0738  13.2017  13.2481  13.3716

     occupation numbers 
     1.0000   1.0000   1.0000   1.0000   1.0000   1.0000   1.0000   1.0000
[...]
     atom   23 type  6   force =    -2.14281774   -0.57855503   11.42299277
     atom   24 type  6   force =     2.14257947   -0.57856319  -11.42276232
     atom   25 type  6   force =     1.16872020    0.67123347   11.50003463
     atom   26 type  6   force =    -1.16900784    0.67123239  -11.49983954
     atom   27 type  6   force =     0.22917454    0.22396980  -10.77697876
     atom   28 type  6   force =    -0.22942171    0.22395534   10.77715575
     atom   29 type  6   force =    -0.55822770    1.71740013    9.63317031
     atom   30 type  6   force =     0.55797204    1.71738496   -9.63299895
     atom   31 type  6   force =     0.34633054    1.24225574   10.29755994
     atom   32 type  6   force =    -0.34658653    1.24225820  -10.29739058
     atom   33 type  6   force =    -1.11165473   -2.37691889  -11.33930122
     atom   34 type  6   force =     1.11137598   -2.37692771   11.33950172
     atom   35 type  6   force =     0.90343041   -7.32544689   12.13226146
     atom   36 type  6   force =    -0.90369811   -7.32548558  -12.13207407
     atom   37 type  6   force =    -0.32902708    1.87394881   12.52788347
     atom   38 type  6   force =     0.32875066    1.87395095  -12.52769309
     atom   39 type  3   force =     0.44212615   -1.22722261    4.85596070
     atom   40 type  3   force =    -0.44215223   -1.22722954   -4.85596209
     atom   41 type  3   force =     0.03757225    0.04299151    5.20542186
     atom   42 type  3   force =    -0.03759320    0.04299063   -5.20542557
     atom   43 type  2   force =    -0.00017644   -5.66456819    0.00021768
     The core correction contribution to forces
     atom    1 type  4   force =     0.00000000   -0.00075447    0.00000000
     atom    2 type  4   force =     0.00000097    0.00046251   -0.00000000
     atom    3 type  5   force =    -0.00000140   -0.00102547    0.00000145
     atom    4 type  5   force =    -0.00000214    0.00102681    0.00000145
     atom    5 type  5   force =    -0.00000215   -0.00028359    0.00000145
     atom    6 type  5   force =    -0.00000214   -0.00073429    0.00000145
     atom    7 type  7   force =     0.00184949    0.00858213   -0.00137361
     atom    8 type  7   force =    -0.00184841    0.00858216    0.00137307
     atom    9 type  7   force =    -0.00299984    0.00407188   -0.02594274
     atom   10 type  7   force =     0.00300053    0.00407182    0.02594187
     atom   11 type  7   force =    -0.00433089   -0.00951023    0.02286147
     atom   12 type  7   force =     0.00433158   -0.00951020   -0.02286239
     atom   13 type  1   force =    -0.00102305   -0.00150919    0.00012351
     atom   14 type  1   force =     0.00102374   -0.00150918   -0.00012394
     atom   15 type  6   force =    -0.00001359   -0.00123701    0.00596894
     atom   16 type  6   force =     0.00001387   -0.00123710   -0.00596892
     atom   17 type  6   force =    -0.00036131   -0.00126736   -0.00815883
     atom   18 type  6   force =     0.00036164   -0.00126729    0.00815874
     atom   19 type  6   force =     0.00149665    0.00038675    0.00775375
     atom   20 type  6   force =    -0.00149635    0.00038677   -0.00775374
     atom   21 type  6   force =     0.00108899    0.00020865   -0.00234440
     atom   22 type  6   force =    -0.00108874    0.00020864    0.00234428
     atom   23 type  6   force =     0.00462627   -0.00219595   -0.00522763
     atom   24 type  6   force =    -0.00462625   -0.00219586    0.00522741
     atom   25 type  6   force =    -0.00355044    0.00001723   -0.00708726
     atom   26 type  6   force =     0.00355084    0.00001721    0.00708696
     atom   27 type  6   force =    -0.00132496    0.00193512    0.00793975
     atom   28 type  6   force =     0.00132495    0.00193528   -0.00793996
     atom   29 type  6   force =     0.00109380   -0.00215761   -0.00674176
     atom   30 type  6   force =    -0.00109380   -0.00215743    0.00674152
     atom   31 type  6   force =    -0.00231044   -0.00280146   -0.00642698
     atom   32 type  6   force =     0.00231074   -0.00280147    0.00642674
     atom   33 type  6   force =     0.00094774    0.00394755    0.00683229
     atom   34 type  6   force =    -0.00094755    0.00394764   -0.00683255
     atom   35 type  6   force =     0.00243112    0.00033139    0.01101533
     atom   36 type  6   force =    -0.00243062    0.00033156   -0.01101526
     atom   37 type  6   force =     0.00016024   -0.00145696    0.01121258
     atom   38 type  6   force =    -0.00015970   -0.00145696   -0.01121240
     atom   39 type  3   force =     0.00000000    0.00000000    0.00000000
     atom   40 type  3   force =     0.00000000    0.00000000    0.00000000
     atom   41 type  3   force =     0.00000000    0.00000000    0.00000000
     atom   42 type  3   force =     0.00000000    0.00000000    0.00000000
     atom   43 type  2   force =     0.00000474   -0.00384535   -0.00000486
     The Hubbard contrib.    to forces
     atom    1 type  4   force =     0.00000000    0.00000000    0.00000000
     atom    2 type  4   force =     0.00000000    0.00000000    0.00000000
     atom    3 type  5   force =     0.00000000    0.00000000    0.00000000
     atom    4 type  5   force =     0.00000000    0.00000000    0.00000000
     atom    5 type  5   force =     0.00000000    0.00000000    0.00000000
     atom    6 type  5   force =     0.00000000    0.00000000    0.00000000
     atom    7 type  7   force =     0.00000000    0.00000000    0.00000000
     atom    8 type  7   force =     0.00000000    0.00000000    0.00000000
     atom    9 type  7   force =     0.00000000    0.00000000    0.00000000
     atom   10 type  7   force =     0.00000000    0.00000000    0.00000000
     atom   11 type  7   force =     0.00000000    0.00000000    0.00000000
     atom   12 type  7   force =     0.00000000    0.00000000    0.00000000
     atom   13 type  1   force =     0.00000000    0.00000000    0.00000000
     atom   14 type  1   force =     0.00000000    0.00000000    0.00000000
     atom   15 type  6   force =     0.00000000    0.00000000    0.00000000
     atom   16 type  6   force =     0.00000000    0.00000000    0.00000000
     atom   17 type  6   force =     0.00000000    0.00000000    0.00000000
     atom   18 type  6   force =     0.00000000    0.00000000    0.00000000
     atom   19 type  6   force =     0.00000000    0.00000000    0.00000000
     atom   20 type  6   force =     0.00000000    0.00000000    0.00000000
     atom   21 type  6   force =     0.00000000    0.00000000    0.00000000
     atom   22 type  6   force =     0.00000000    0.00000000    0.00000000
     atom   23 type  6   force =     0.00000000    0.00000000    0.00000000
     atom   24 type  6   force =     0.00000000    0.00000000    0.00000000
     atom   25 type  6   force =     0.00000000    0.00000000    0.00000000
     atom   26 type  6   force =     0.00000000    0.00000000    0.00000000
     atom   27 type  6   force =     0.00000000    0.00000000    0.00000000
     atom   28 type  6   force =     0.00000000    0.00000000    0.00000000
     atom   29 type  6   force =     0.00000000    0.00000000    0.00000000
     atom   30 type  6   force =     0.00000000    0.00000000    0.00000000
     atom   31 type  6   force =     0.00000000    0.00000000    0.00000000
     atom   32 type  6   force =     0.00000000    0.00000000    0.00000000
     atom   33 type  6   force =     0.00000000    0.00000000    0.00000000
     atom   34 type  6   force =     0.00000000    0.00000000    0.00000000
     atom   35 type  6   force =     0.00000000    0.00000000    0.00000000
     atom   36 type  6   force =     0.00000000    0.00000000    0.00000000
     atom   37 type  6   force =     0.00000000    0.00000000    0.00000000
     atom   38 type  6   force =     0.00000000    0.00000000    0.00000000
     atom   39 type  3   force =     0.00000000    0.00000000    0.00000000
     atom   40 type  3   force =     0.00000000    0.00000000    0.00000000
     atom   41 type  3   force =     0.00000000    0.00000000    0.00000000
     atom   42 type  3   force =     0.00000000    0.00000000    0.00000000
     atom   43 type  2   force =     0.00000000    0.00000000    0.00000000
     The SCF correction term to forces
     atom    1 type  4   force =    -0.00000000    0.00003450   -0.00000000
     atom    2 type  4   force =    -0.00000000   -0.00002937   -0.00000000
     atom    3 type  5   force =    -0.00000000   -0.00003132    0.00000000
     atom    4 type  5   force =     0.00000000    0.00024414   -0.00000000
     atom    5 type  5   force =     0.00000000   -0.00011553   -0.00000000
     atom    6 type  5   force =     0.00000000   -0.00003222    0.00000000
     atom    7 type  7   force =    -0.00000070    0.00001513    0.00000324
     atom    8 type  7   force =     0.00000070    0.00001513   -0.00000324
     atom    9 type  7   force =    -0.00002124   -0.00002472   -0.00003156
     atom   10 type  7   force =     0.00002124   -0.00002472    0.00003156
     atom   11 type  7   force =    -0.00001969   -0.00000693    0.00004634
     atom   12 type  7   force =     0.00001969   -0.00000693   -0.00004634
     atom   13 type  1   force =    -0.00000348    0.00001335   -0.00000568
     atom   14 type  1   force =     0.00000348    0.00001335    0.00000568
     atom   15 type  6   force =     0.00000936    0.00009062    0.00001699
     atom   16 type  6   force =    -0.00000936    0.00009062   -0.00001699
     atom   17 type  6   force =    -0.00001461   -0.00008116   -0.00000337
     atom   18 type  6   force =     0.00001461   -0.00008116    0.00000337
     atom   19 type  6   force =    -0.00000027   -0.00008399    0.00007522
     atom   20 type  6   force =     0.00000027   -0.00008399   -0.00007522
     atom   21 type  6   force =    -0.00008020    0.00006380    0.00000545
     atom   22 type  6   force =     0.00008020    0.00006380   -0.00000545
     atom   23 type  6   force =    -0.00002395    0.00001531   -0.00000835
     atom   24 type  6   force =     0.00002395    0.00001531    0.00000835
     atom   25 type  6   force =     0.00001903    0.00001147    0.00000469
     atom   26 type  6   force =    -0.00001903    0.00001147   -0.00000469
     atom   27 type  6   force =    -0.00000138   -0.00004711   -0.00024255
     atom   28 type  6   force =     0.00000138   -0.00004711    0.00024255
     atom   29 type  6   force =     0.00001013   -0.00001863    0.00004172
     atom   30 type  6   force =    -0.00001013   -0.00001863   -0.00004172
     atom   31 type  6   force =    -0.00001815   -0.00003254    0.00008301
     atom   32 type  6   force =     0.00001815   -0.00003254   -0.00008301
     atom   33 type  6   force =    -0.00003595    0.00001081   -0.00004291
     atom   34 type  6   force =     0.00003595    0.00001081    0.00004291
     atom   35 type  6   force =    -0.00008924    0.00012340    0.00007485
     atom   36 type  6   force =     0.00008924    0.00012340   -0.00007485
     atom   37 type  6   force =    -0.00001505   -0.00003211   -0.00000526
     atom   38 type  6   force =     0.00001505   -0.00003211    0.00000526
     atom   39 type  3   force =    -0.00000323    0.00000794    0.00001050
     atom   40 type  3   force =     0.00000323    0.00000794   -0.00001050
     atom   41 type  3   force =    -0.00000224   -0.00000353   -0.00000442
     atom   42 type  3   force =     0.00000224   -0.00000353    0.00000442
     atom   43 type  2   force =    -0.00000000    0.00025584    0.00000000

     DFT-D3 dispersion contribution to forces:
     atom    1 type  4   force =     0.00000001    0.00051210   -0.00000000
     atom    2 type  4   force =    -0.00000000   -0.00027243    0.00000000
     atom    3 type  5   force =    -0.00000000   -0.00159173    0.00000000
     atom    4 type  5   force =     0.00000000    0.00126309   -0.00000000
     atom    5 type  5   force =     0.00000000    0.00020873   -0.00000000
     atom    6 type  5   force =     0.00000000   -0.00081134   -0.00000000
     atom    7 type  7   force =     0.00002840   -0.00006570   -0.00045279
     atom    8 type  7   force =    -0.00002840   -0.00006570    0.00045279
     atom    9 type  7   force =     0.00057055   -0.00025112   -0.00073543
     atom   10 type  7   force =    -0.00057055   -0.00025112    0.00073543
     atom   11 type  7   force =     0.00090726    0.00003239    0.00051525
     atom   12 type  7   force =    -0.00090725    0.00003239   -0.00051525
     atom   13 type  1   force =     0.00013908   -0.00048110   -0.00046016
     atom   14 type  1   force =    -0.00013908   -0.00048110    0.00046016
     atom   15 type  6   force =     0.00010650   -0.00019510    0.00027688
     atom   16 type  6   force =    -0.00010650   -0.00019510   -0.00027688
     atom   17 type  6   force =     0.00025535   -0.00010331   -0.00052827
     atom   18 type  6   force =    -0.00025535   -0.00010331    0.00052827
     atom   19 type  6   force =     0.00030031   -0.00008493    0.00049967
     atom   20 type  6   force =    -0.00030031   -0.00008493   -0.00049967
     atom   21 type  6   force =     0.00015565   -0.00019139    0.00023507
     atom   22 type  6   force =    -0.00015565   -0.00019139   -0.00023507
     atom   23 type  6   force =    -0.00021913    0.00108054    0.00028138
     atom   24 type  6   force =     0.00021913    0.00108054   -0.00028138
     atom   25 type  6   force =     0.00088117    0.00016096    0.00014581
     atom   26 type  6   force =    -0.00088118    0.00016096   -0.00014581
     atom   27 type  6   force =     0.00039647   -0.00051071   -0.00012176
     atom   28 type  6   force =    -0.00039647   -0.00051071    0.00012176
     atom   29 type  6   force =    -0.00021427    0.00032499    0.00026064
     atom   30 type  6   force =     0.00021426    0.00032498   -0.00026063
     atom   31 type  6   force =     0.00093947   -0.00051232    0.00032587
     atom   32 type  6   force =    -0.00093948   -0.00051232   -0.00032587
     atom   33 type  6   force =     0.00069775   -0.00069779   -0.00020944
     atom   34 type  6   force =    -0.00069775   -0.00069780    0.00020944
     atom   35 type  6   force =    -0.00016716    0.00060178   -0.00034173
     atom   36 type  6   force =     0.00016716    0.00060178    0.00034173
     atom   37 type  6   force =    -0.00003035    0.00017264   -0.00059904
     atom   38 type  6   force =     0.00003035    0.00017264    0.00059904
     atom   39 type  3   force =     0.00006719    0.00039931    0.00006749
     atom   40 type  3   force =    -0.00006719    0.00039931   -0.00006750
     atom   41 type  3   force =     0.00001280   -0.00019307   -0.00027804
     atom   42 type  3   force =    -0.00001280   -0.00019307    0.00027804
     atom   43 type  2   force =    -0.00000000    0.00171950   -0.00000000

     Total force =     0.027908     Total SCF correction =     0.000666

     DFT-D3 dispersion Force =     0.005276
     Energy error            =      1.3E-03 Ry
     Gradient error          =      6.2E-03 Ry/Bohr

     number of scf cycles    =  10
     number of bfgs steps    =   9

     energy             old  =   -2344.3261174371 Ry
     energy             new  =   -2344.3274410892 Ry

     CASE: energy            _new < energy            _old

     new trust radius        =       0.0278966705 bohr
     new conv_thr            =       0.0000000618 Ry


ATOMIC_POSITIONS (crystal)
K                0.0000000000        0.4988603237        0.0000000000
K                0.5000001190       -0.0006556930        0.0000000000
Mg               0.0000001800       -0.0178449491        0.4999998810
Mg               0.5000002980        0.5134895497        0.4999998810
Mg               0.5000002980        0.8284754409        0.4999998810
Mg               0.5000002980        0.1652070573        0.4999998810
Si               0.0801017603        0.1653838706        0.2272268517
Si               0.9198988507        0.1653838706        0.7727729253
Si               0.9295256788        0.8356768284        0.7674163475
Si               0.0704749172        0.8356768284        0.2325833835
Si               0.5583663913        0.6686832793        0.2282673629
Si               0.4416341747        0.6686832793        0.7717323831
Al               0.4147391611        0.3336369948        0.7752406453
Al               0.5852614059        0.3336369948        0.2247591167
O                0.1194334399        0.1710509438        0.3891838583
O                0.8805671261        0.1710509438        0.6108158737
O                0.8528634614        0.8459258161        0.6136773536
O                0.1471371496        0.8459258161        0.3863223784
O                0.5922192375        0.6671706715        0.3833615277
O                0.4077813585        0.6671706715        0.6166382333
O                0.3419159083        0.3348869733        0.6002919536
O                0.6580847177        0.3348869733        0.3997077784
O                0.3447265760        0.2052151785        0.1775749097
O                0.6552739610        0.2052151785        0.8224247773
O               -0.0027060132        1.0002202868        0.1716235680
O                1.0027066092        1.0002202868        0.8283761790
O                0.6913014473        0.7729302785        0.8374092979
O                0.3086991197        0.7729302785        0.1625904641
O                0.8158365780        0.7346595394        0.1765178303
O                0.1841640330        0.7346595394        0.8234819457
O                0.5017916310        0.5077196077        0.1638127717
O                0.4982089060        0.5077196077        0.8361870043
O                0.1457524711        0.2753493776        0.8377916330
O                0.8542481549        0.2753493776        0.1622080980
O                0.1416495071        0.4728989775        0.3906412956
O                0.8583511189        0.4728989775        0.6093584664
O                0.6366299689        1.0037064165        0.3994984630
O                0.3633706871        1.0037064165        0.6005012990
H                0.0873632798        0.4968408055        0.2993774856
H                0.9126373832        0.4968408055        0.7006222164
H                0.5978337640        0.0106598731        0.3056876709
H                0.4021668320        0.0106598731        0.6943121211
Ti               0.0000001800        0.3419425977        0.4999998810



     Writing config-only to output data dir ./temp/phl-ti1-ti2-v3.save/ :
     XML data file
     NEW-OLD atomic charge density approx. for the potential

     Check: negative core charge=   -0.000003
     Generating pointlists ...

     total cpu time spent up to now is    59905.3 secs

     Self-consistent Calculation

     iteration #  1     ecut=    60.00 Ry     beta= 0.70
     Davidson diagonalization with overlap

---- Real-time Memory Report at c_bands before calling an iterative solver
           911 MiB given to the printing process from OS
             0 MiB allocation reported by mallinfo(arena+hblkhd)
         10804 MiB available memory on the node where the printing process lives
------------------
     ethr =  1.00E-06,  avg # of iterations = 12.2

     total cpu time spent up to now is    60871.6 secs

     total energy              =   -2344.32802679 Ry
     estimated scf accuracy    <       0.00067163 Ry

     total magnetization       =     0.00 Bohr mag/cell
     absolute magnetization    =     0.00 Bohr mag/cell

     iteration #  2     ecut=    60.00 Ry     beta= 0.70
     Davidson diagonalization with overlap

---- Real-time Memory Report at c_bands before calling an iterative solver
           911 MiB given to the printing process from OS
             0 MiB allocation reported by mallinfo(arena+hblkhd)
         10770 MiB available memory on the node where the printing process lives
------------------
     c_bands:  1 eigenvalues not converged
