
     Program PWSCF v.7.3.1 starts on 24Mar2025 at  5:44: 3 

     This program is part of the open-source Quantum ESPRESSO suite
     for quantum simulation of materials; please cite
         "P. Giannozzi et al., J. Phys.:Condens. Matter 21 395502 (2009);
         "P. Giannozzi et al., J. Phys.:Condens. Matter 29 465901 (2017);
         "P. Giannozzi et al., J. Chem. Phys. 152 154105 (2020);
          URL http://www.quantum-espresso.org", 
     in publications or presentations arising from this work. More details at
     http://www.quantum-espresso.org/quote

     Parallel version (MPI), running on     6 processors

     MPI processes distributed on     1 nodes
     14403 MiB available memory on the printing compute node when the environment starts

     Reading input from relax.in

     Current dimensions of program PWSCF are:
     Max number of different atomic species (ntypx) = 10
     Max number of k-points (npk) =  40000
     Max angular momentum in pseudopotentials (lmaxx) =  4
     file Al.pbe-n-kjpaw_psl.1.0.0.UPF: wavefunction(s)  3S 3P renormalized
     file Ti.pbe-spn-kjpaw_psl.1.0.0.UPF: wavefunction(s)  3S 3P 3D renormalized
     file H.pbe-kjpaw_psl.1.0.0.UPF: wavefunction(s)  1S renormalized
     file K.pbe-spn-kjpaw_psl.1.0.0.UPF: wavefunction(s)  3S renormalized
     file Mg.pbe-spnl-kjpaw_psl.1.0.0.UPF: wavefunction(s)  2P renormalized
     file O.pbe-n-kjpaw_psl.1.0.0.UPF: wavefunction(s)  2S 2P renormalized
     file Si.pbe-n-kjpaw_psl.1.0.0.UPF: wavefunction(s)  3S 3P renormalized

     R & G space division:  proc/nbgrp/npool/nimage =       6
     Subspace diagonalization in iterative solution of the eigenvalue problem:
     a serial algorithm will be used


     Parallelization info
     --------------------
     sticks:   dense  smooth     PW     G-vecs:    dense   smooth      PW
     Min        1119     557    150               100894    35666    5065
     Max        1120     558    151               100896    35670    5069
     Sum        6719    3347    905               605369   214013   30407

     Using Slab Decomposition



     bravais-lattice index     =          -12
     lattice parameter (alat)  =      10.0639  a.u.
     unit-cell volume          =    3408.7535 (a.u.)^3
     number of atoms/cell      =           43
     number of atomic types    =            7
     number of electrons       =       248.00
     number of Kohn-Sham states=          149
     kinetic-energy cutoff     =      60.0000  Ry
     charge density cutoff     =     480.0000  Ry
     scf convergence threshold =      1.0E-06
     mixing beta               =       0.7000
     number of iterations used =            8  plain     mixing
     energy convergence thresh.=      1.0E-04
     force convergence thresh. =      1.0E-03
     Exchange-correlation= SLA  PW   PBX  PBC
                           (   1   4   3   4   0   0   0)
     nstep                     =           50


     celldm(1)=  10.063938  celldm(2)=   1.736001  celldm(3)=   1.956921
     celldm(4)=   0.000000  celldm(5)=  -0.175986  celldm(6)=   0.000000

     crystal axes: (cart. coord. in units of alat)
               a(1) = (   1.000000   0.000000   0.000000 )  
               a(2) = (   0.000000   1.736001   0.000000 )  
               a(3) = (  -0.344390   0.000000   1.926379 )  

     reciprocal axes: (cart. coord. in units 2 pi/alat)
               b(1) = (  1.000000 -0.000000  0.178776 )  
               b(2) = (  0.000000  0.576037 -0.000000 )  
               b(3) = (  0.000000  0.000000  0.519109 )  


     PseudoPot. # 1 for Al read from file:
     ./../../../pseudos/Al.pbe-n-kjpaw_psl.1.0.0.UPF
     MD5 check sum: 502b6b27b9c6270cab5dd1084b96fa6d
     Pseudo is Projector augmented-wave + core cor, Zval =  3.0
     Generated using &quot;atomic&quot; code by A. Dal Corso  v.6.3
     Shape of augmentation charge: PSQ
     Using radial grid of 1135 points,  6 beta functions with: 
                l(1) =   0
                l(2) =   0
                l(3) =   1
                l(4) =   1
                l(5) =   2
                l(6) =   2
     Q(r) pseudized with 0 coefficients 


     PseudoPot. # 2 for Ti read from file:
     ./../../../pseudos/Ti.pbe-spn-kjpaw_psl.1.0.0.UPF
     MD5 check sum: 01f69b0d8ba4438b2e03ac6ea4af1c0b
     Pseudo is Projector augmented-wave + core cor, Zval = 12.0
     Generated using &quot;atomic&quot; code by A. Dal Corso  v.6.2.2
     Shape of augmentation charge: PSQ
     Using radial grid of 1177 points,  6 beta functions with: 
                l(1) =   0
                l(2) =   0
                l(3) =   1
                l(4) =   1
                l(5) =   2
                l(6) =   2
     Q(r) pseudized with 0 coefficients 


     PseudoPot. # 3 for H  read from file:
     ./../../../pseudos/H.pbe-kjpaw_psl.1.0.0.UPF
     MD5 check sum: d81a744832360e4a8af0b0b5b123bc2a
     Pseudo is Projector augmented-wave, Zval =  1.0
     Generated using &quot;atomic&quot; code by A. Dal Corso  v.6.3MaX
     Shape of augmentation charge: PSQ
     Using radial grid of  929 points,  2 beta functions with: 
                l(1) =   0
                l(2) =   0
     Q(r) pseudized with 0 coefficients 


     PseudoPot. # 4 for K  read from file:
     ./../../../pseudos/K.pbe-spn-kjpaw_psl.1.0.0.UPF
     MD5 check sum: 34cc42130a09071ebe376fd42eb21491
     Pseudo is Projector augmented-wave + core cor, Zval =  9.0
     Generated using &quot;atomic&quot; code by A. Dal Corso  v.6.2.2
     Shape of augmentation charge: PSQ
     Using radial grid of 1165 points,  6 beta functions with: 
                l(1) =   0
                l(2) =   0
                l(3) =   1
                l(4) =   1
                l(5) =   2
                l(6) =   2
     Q(r) pseudized with 0 coefficients 


     PseudoPot. # 5 for Mg read from file:
     ./../../../pseudos/Mg.pbe-spnl-kjpaw_psl.1.0.0.UPF
     MD5 check sum: fda14e0d92a6a9a5ebed782e5a4b3067
     Pseudo is Projector augmented-wave + core cor, Zval = 10.0
     Generated using &quot;atomic&quot; code by A. Dal Corso  v.6.3
     Shape of augmentation charge: PSQ
     Using radial grid of 1129 points,  4 beta functions with: 
                l(1) =   0
                l(2) =   0
                l(3) =   1
                l(4) =   1
     Q(r) pseudized with 0 coefficients 


     PseudoPot. # 6 for O  read from file:
     ./../../../pseudos/O.pbe-n-kjpaw_psl.1.0.0.UPF
     MD5 check sum: e99d9cef9b487d1ca56f5b95ecd0fd7a
     Pseudo is Projector augmented-wave + core cor, Zval =  6.0
     Generated using &quot;atomic&quot; code by A. Dal Corso  v.6.3
     Shape of augmentation charge: PSQ
     Using radial grid of 1095 points,  4 beta functions with: 
                l(1) =   0
                l(2) =   0
                l(3) =   1
                l(4) =   1
     Q(r) pseudized with 0 coefficients 


     PseudoPot. # 7 for Si read from file:
     ./../../../pseudos/Si.pbe-n-kjpaw_psl.1.0.0.UPF
     MD5 check sum: c39c59da582df4a0d9f10159256ea34e
     Pseudo is Projector augmented-wave + core cor, Zval =  4.0
     Generated using &quot;atomic&quot; code by A. Dal Corso  v.6.3
     Shape of augmentation charge: PSQ
     Using radial grid of 1141 points,  6 beta functions with: 
                l(1) =   0
                l(2) =   0
                l(3) =   1
                l(4) =   1
                l(5) =   2
                l(6) =   2
     Q(r) pseudized with 0 coefficients 


     atomic species   valence    mass     pseudopotential
     Al                3.00    26.98154     Al( 1.00)
     Ti               12.00    47.86700     Ti( 1.00)
     H                 1.00     1.00794     H ( 1.00)
     K                 9.00    39.09830     K ( 1.00)
     Mg               10.00    24.30500     Mg( 1.00)
     O                 6.00    15.99940     O ( 1.00)
     Si                4.00    28.08550     Si( 1.00)

     Starting magnetic structure 
     atomic species   magnetization
     Al              0.000
     Ti              0.300
     H               0.000
     K               0.000
     Mg              0.000
     O               0.000
     Si              0.000

      2 Sym. Ops. (no inversion) found


                                    s                        frac. trans.

      isym =  1     identity                                     

 cryst.   s( 1) = (     1          0          0      )
                  (     0          1          0      )
                  (     0          0          1      )

 cart.    s( 1) = (  1.0000000  0.0000000  0.0000000 )
                  (  0.0000000  1.0000000  0.0000000 )
                  (  0.0000000  0.0000000  1.0000000 )


      isym =  2     180 deg rotation - cart. axis [0,1,0]        

 cryst.   s( 2) = (    -1          0          0      )
                  (     0          1          0      )
                  (     0          0         -1      )

 cart.    s( 2) = ( -1.0000000  0.0000000 -0.0000000 )
                  (  0.0000000  1.0000000  0.0000000 )
                  (  0.0000000  0.0000000 -1.0000000 )


     point group C_2  (2)   
     there are  2 classes
     the character table:

       E     C2   
A      1.00  1.00
B      1.00 -1.00

     the symmetry operations in each class and the name of the first element:

     E        1
          identity                                               
     C2       2
          180 deg rotation - cart. axis [0,1,0]                  

   Cartesian axes

     site n.     atom                  positions (alat units)
         1        K      tau(   1) = (   0.0000000   0.8500250   0.0000000  )
         2        K      tau(   2) = (   0.5000001   0.0129874   0.0000000  )
         3        Mg     tau(   3) = (  -0.1721948   0.0077214   0.9631892  )
         4        Mg     tau(   4) = (   0.3278053   0.8557948   0.9631892  )
         5        Mg     tau(   5) = (   0.3278053   1.4487986   0.9631892  )
         6        Mg     tau(   6) = (   0.3278053   0.2995781   0.9631892  )
         7        Si     tau(   7) = (   0.0065464   0.2863232   0.4366446  )
         8        Si     tau(   8) = (   0.6490642   0.2863232   1.4897338  )
         9        Si     tau(   9) = (   0.6700451   1.4481368   1.4769596  )
        10        Si     tau(  10) = (  -0.0144345   1.4481368   0.4494187  )
        11        Si     tau(  11) = (   0.4850690   1.1571201   0.4451794  )
        12        Si     tau(  12) = (   0.1705415   1.1571201   1.4811990  )
        13        Al     tau(  13) = (   0.1481378   0.5745631   1.4858453  )
        14        Al     tau(  14) = (   0.5074727   0.5745631   0.4405331  )
        15        O      tau(  15) = (  -0.0053818   0.2845266   0.7435308  )
        16        O      tau(  16) = (   0.6609924   0.2845266   1.1828475  )
        17        O      tau(  17) = (   0.6648623   1.4463792   1.1726078  )
        18        O      tau(  18) = (  -0.0092517   1.4463792   0.7537706  )
        19        O      tau(  19) = (   0.4909734   1.1615894   0.7508691  )
        20        O      tau(  20) = (   0.1646372   1.1615894   1.1755093  )
        21        O      tau(  21) = (   0.1533653   0.5775173   1.1602818  )
        22        O      tau(  22) = (   0.5022453   0.5775173   0.7660965  )
        23        O      tau(  23) = (   0.2836155   0.3559826   0.3271266  )
        24        O      tau(  24) = (   0.3719951   0.3559826   1.5992516  )
        25        O      tau(  25) = (  -0.0573653   1.7307557   0.3331647  )
        26        O      tau(  26) = (   0.7129759   1.7307557   1.5932136  )
        27        O      tau(  27) = (   0.4014220   1.3398431   1.5902067  )
        28        O      tau(  28) = (   0.2541885   1.3398431   0.3361717  )
        29        O      tau(  29) = (   0.7533736   1.2762782   0.3346307  )
        30        O      tau(  30) = (  -0.0977631   1.2762782   1.5917477  )
        31        O      tau(  31) = (   0.4457693   0.8816150   0.3226733  )
        32        O      tau(  32) = (   0.2098412   0.8816150   1.6037051  )
        33        O      tau(  33) = (  -0.1438441   0.4759522   1.6105977  )
        34        O      tau(  34) = (   0.7994547   0.4759522   0.3157807  )
        35        O      tau(  35) = (  -0.0052927   0.8751793   0.7641997  )
        36        O      tau(  36) = (   0.6609033   0.8751793   1.1621787  )
        37        O      tau(  37) = (   0.4956425   1.7352597   0.7704301  )
        38        O      tau(  38) = (   0.1599681   1.7352597   1.1559483  )
        39        H      tau(  39) = (  -0.0033562   0.8597493   0.5835064  )
        40        H      tau(  40) = (   0.6589669   0.8597493   1.3428719  )
        41        H      tau(  41) = (   0.4916295   0.0251070   0.5908075  )
        42        H      tau(  42) = (   0.1639811   0.0251070   1.3355710  )
        43        Ti     tau(  43) = (  -0.1721948   0.5784118   0.9631892  )

     --------------------------------------------
     DFT-D3 Dispersion Correction (3-body terms):
     --------------------------------------------
       Reference C6 values for interpolation: 

         atom   Coordination number   C6
         H          0.912             6.05
         H          0.000            15.18
         O          0.000            31.01
         O          0.993            25.63
         O          1.989            20.74
         Mg         0.000          1366.75
         Mg         0.963           902.54
         Mg         1.950           351.12
         Al         0.000          1081.08
         Al         0.965           875.51
         Al         1.931           513.50
         Al         2.915           307.19
         Si         0.000           635.71
         Si         0.951           540.53
         Si         1.944           466.25
         Si         2.941           443.01
         Si         3.868           299.55
         K          0.000          9967.00
         K          0.977           676.04
         Ti         0.000          2723.84
         Ti         1.830           604.00
         Ti         3.868           643.18

       Values used:

         atom   Coordination number  R0_AB[au]  C6      C8
         K         11.879            4.007    676.04 129074.98
         K         12.158            4.007    676.04 129074.98
         Mg        10.907            3.292    351.12  31436.69
         Mg        10.297            3.292    351.12  31436.69
         Mg        10.003            3.292    351.12  31436.69
         Mg        11.986            3.292    351.12  31436.69
         Si         6.683            3.583    299.55  21425.58
         Si         6.683            3.583    299.55  21425.58
         Si         5.983            3.583    299.55  21425.58
         Si         5.983            3.583    299.55  21425.58
         Si         6.056            3.583    299.55  21425.58
         Si         6.056            3.583    299.55  21425.58
         Al         7.533            3.789    307.19  29441.29
         Al         7.533            3.789    307.19  29441.29
         O          3.888            2.345     20.74    418.58
         O          3.888            2.345     20.74    418.58
         O          2.954            2.345     20.74    418.58
         O          2.954            2.345     20.74    418.58
         O          2.937            2.345     20.74    418.58
         O          2.937            2.345     20.74    418.58
         O          3.967            2.345     20.74    418.58
         O          3.967            2.345     20.74    418.58
         O          3.150            2.345     20.74    418.58
         O          3.150            2.345     20.74    418.58
         O          3.046            2.345     20.74    418.58
         O          3.046            2.345     20.74    418.58
         O          2.874            2.345     20.74    418.58
         O          2.874            2.345     20.74    418.58
         O          2.848            2.345     20.74    418.58
         O          2.848            2.345     20.74    418.58
         O          3.084            2.345     20.74    418.58
         O          3.084            2.345     20.74    418.58
         O          3.210            2.345     20.74    418.58
         O          3.210            2.345     20.74    418.58
         O          2.992            2.345     20.74    418.58
         O          2.992            2.345     20.74    418.58
         O          3.976            2.345     20.74    418.58
         O          3.976            2.345     20.74    418.58
         H          1.212            2.062      6.08     73.51
         H          1.212            2.062      6.08     73.51
         H          1.231            2.062      6.08     73.47
         H          1.231            2.062      6.08     73.47
         Ti        10.819            3.557    643.18  76289.64

         Molecular C6 ( Ry / a.u.^6 ) =    158921.03


   Crystallographic axes

     site n.     atom                  positions (cryst. coord.)
         1        K      tau(   1) = (  0.0000000  0.4896454  0.0000000  )
         2        K      tau(   2) = (  0.5000001  0.0074812  0.0000000  )
         3        Mg     tau(   3) = (  0.0000002  0.0044478  0.4999999  )
         4        Mg     tau(   4) = (  0.5000003  0.4929690  0.4999999  )
         5        Mg     tau(   5) = (  0.5000003  0.8345609  0.4999999  )
         6        Mg     tau(   6) = (  0.5000003  0.1725679  0.4999999  )
         7        Si     tau(   7) = (  0.0846079  0.1649326  0.2266660  )
         8        Si     tau(   8) = (  0.9153927  0.1649326  0.7733338  )
         9        Si     tau(   9) = (  0.9340899  0.8341796  0.7667026  )
        10        Si     tau(  10) = (  0.0659107  0.8341796  0.2332971  )
        11        Si     tau(  11) = (  0.5646564  0.6665434  0.2310965  )
        12        Si     tau(  12) = (  0.4353442  0.6665434  0.7689033  )
        13        Al     tau(  13) = (  0.4137711  0.3309693  0.7713152  )
        14        Al     tau(  14) = (  0.5862294  0.3309693  0.2286845  )
        15        O      tau(  15) = (  0.1275435  0.1638977  0.3859733  )
        16        O      tau(  16) = (  0.8724570  0.1638977  0.6140264  )
        17        O      tau(  17) = (  0.8744963  0.8331672  0.6087109  )
        18        O      tau(  18) = (  0.1255043  0.8331672  0.3912888  )
        19        O      tau(  19) = (  0.6252107  0.6691179  0.3897827  )
        20        O      tau(  20) = (  0.3747899  0.6691179  0.6102171  )
        21        O      tau(  21) = (  0.3607957  0.3326710  0.6023124  )
        22        O      tau(  22) = (  0.6392049  0.3326710  0.3976873  )
        23        O      tau(  23) = (  0.3420978  0.2050590  0.1698143  )
        24        O      tau(  24) = (  0.6579027  0.2050590  0.8301854  )
        25        O      tau(  25) = (  0.0021965  0.9969785  0.1729487  )
        26        O      tau(  26) = (  0.9978040  0.9969785  0.8270510  )
        27        O      tau(  27) = (  0.6857126  0.7717986  0.8254901  )
        28        O      tau(  28) = (  0.3142879  0.7717986  0.1745096  )
        29        O      tau(  29) = (  0.8131976  0.7351828  0.1737097  )
        30        O      tau(  30) = (  0.1868031  0.7351828  0.8262901  )
        31        O      tau(  31) = (  0.5034555  0.5078424  0.1675025  )
        32        O      tau(  32) = (  0.4965450  0.5078424  0.8324972  )
        33        O      tau(  33) = (  0.1440919  0.2741658  0.8360752  )
        34        O      tau(  34) = (  0.8559087  0.2741658  0.1639245  )
        35        O      tau(  35) = (  0.1313278  0.5041353  0.3967027  )
        36        O      tau(  36) = (  0.8686728  0.5041353  0.6032971  )
        37        O      tau(  37) = (  0.6333768  0.9995729  0.3999370  )
        38        O      tau(  38) = (  0.3666238  0.9995729  0.6000628  )
        39        H      tau(  39) = (  0.1009607  0.4952470  0.3029032  )
        40        H      tau(  40) = (  0.8990400  0.4952470  0.6970965  )
        41        H      tau(  41) = (  0.5972516  0.0144625  0.3066933  )
        42        H      tau(  42) = (  0.4027490  0.0144625  0.6933065  )
        43        Ti     tau(  43) = (  0.0000002  0.3331863  0.4999999  )

     number of k points=    20  Gaussian smearing, width (Ry)=  0.0010
                       cart. coord. in units 2pi/alat
        k(    1) = (   0.0000000   0.0000000   0.0000000), wk =   0.0185185
        k(    2) = (   0.0000000   0.0000000   0.1730362), wk =   0.0370370
        k(    3) = (   0.0000000   0.1920122   0.0000000), wk =   0.0370370
        k(    4) = (   0.0000000   0.1920122   0.1730362), wk =   0.0740741
        k(    5) = (   0.1666667   0.0000000   0.0297960), wk =   0.0370370
        k(    6) = (   0.1666667   0.0000000   0.2028322), wk =   0.0370370
        k(    7) = (   0.1666667   0.0000000  -0.1432402), wk =   0.0370370
        k(    8) = (   0.1666667   0.1920122   0.0297960), wk =   0.0740741
        k(    9) = (   0.1666667   0.1920122   0.2028322), wk =   0.0740741
        k(   10) = (   0.1666667   0.1920122  -0.1432402), wk =   0.0740741
        k(   11) = (   0.3333333   0.0000000   0.0595920), wk =   0.0370370
        k(   12) = (   0.3333333   0.0000000   0.2326282), wk =   0.0370370
        k(   13) = (   0.3333333   0.0000000  -0.1134443), wk =   0.0370370
        k(   14) = (   0.3333333   0.1920122   0.0595920), wk =   0.0740741
        k(   15) = (   0.3333333   0.1920122   0.2326282), wk =   0.0740741
        k(   16) = (   0.3333333   0.1920122  -0.1134443), wk =   0.0740741
        k(   17) = (  -0.5000000   0.0000000  -0.0893879), wk =   0.0185185
        k(   18) = (  -0.5000000   0.0000000   0.0836483), wk =   0.0370370
        k(   19) = (  -0.5000000   0.1920122  -0.0893879), wk =   0.0370370
        k(   20) = (  -0.5000000   0.1920122   0.0836483), wk =   0.0740741

                       cryst. coord.
        k(    1) = (   0.0000000   0.0000000   0.0000000), wk =   0.0185185
        k(    2) = (   0.0000000   0.0000000   0.3333333), wk =   0.0370370
        k(    3) = (   0.0000000   0.3333333   0.0000000), wk =   0.0370370
        k(    4) = (   0.0000000   0.3333333   0.3333333), wk =   0.0740741
        k(    5) = (   0.1666667   0.0000000   0.0000000), wk =   0.0370370
        k(    6) = (   0.1666667   0.0000000   0.3333333), wk =   0.0370370
        k(    7) = (   0.1666667   0.0000000  -0.3333333), wk =   0.0370370
        k(    8) = (   0.1666667   0.3333333   0.0000000), wk =   0.0740741
        k(    9) = (   0.1666667   0.3333333   0.3333333), wk =   0.0740741
        k(   10) = (   0.1666667   0.3333333  -0.3333333), wk =   0.0740741
        k(   11) = (   0.3333333   0.0000000   0.0000000), wk =   0.0370370
        k(   12) = (   0.3333333   0.0000000   0.3333333), wk =   0.0370370
        k(   13) = (   0.3333333   0.0000000  -0.3333333), wk =   0.0370370
        k(   14) = (   0.3333333   0.3333333   0.0000000), wk =   0.0740741
        k(   15) = (   0.3333333   0.3333333   0.3333333), wk =   0.0740741
        k(   16) = (   0.3333333   0.3333333  -0.3333333), wk =   0.0740741
        k(   17) = (  -0.5000000   0.0000000   0.0000000), wk =   0.0185185
        k(   18) = (  -0.5000000   0.0000000   0.3333333), wk =   0.0370370
        k(   19) = (  -0.5000000   0.3333333   0.0000000), wk =   0.0370370
        k(   20) = (  -0.5000000   0.3333333   0.3333333), wk =   0.0740741

     Dense  grid:   605369 G-vectors     FFT dimensions: (  72, 125, 144)

     Smooth grid:   214013 G-vectors     FFT dimensions: (  50,  90, 100)

     Dynamical RAM for                 wfc:      10.14 MB

     Dynamical RAM for     wfc (w. buffer):     415.56 MB

     Dynamical RAM for           str. fact:      10.78 MB

     Dynamical RAM for           local pot:       0.00 MB

     Dynamical RAM for          nlocal pot:      29.25 MB

     Dynamical RAM for                qrad:      12.30 MB

     Dynamical RAM for          rho,v,vnew:      19.12 MB

     Dynamical RAM for               rhoin:       6.37 MB

     Dynamical RAM for            rho*nmix:      49.27 MB

     Dynamical RAM for           G-vectors:       6.05 MB

     Dynamical RAM for          h,s,v(r/c):       4.07 MB

     Dynamical RAM for          <psi|beta>:       0.98 MB

     Dynamical RAM for                 psi:      20.27 MB

     Dynamical RAM for                hpsi:      20.27 MB

     Dynamical RAM for                spsi:      20.27 MB

     Dynamical RAM for      wfcinit/wfcrot:      20.78 MB

     Dynamical RAM for           addusdens:     324.84 MB

     Dynamical RAM for          addusforce:     395.85 MB

     Estimated static dynamical RAM per process >     521.64 MB

     Estimated max dynamical RAM per process >     966.75 MB

     Estimated total dynamical RAM >       5.66 GB

     Atomic positions and unit cell read from directory:
     ./temp/phl-ti1-ti2-v3.save/
     Atomic positions from file used, from input discarded


     Check: negative core charge=   -0.000003
     Generating pointlists ...
     new r_m :   0.1362 (alat units)  1.3707 (a.u.) for type    1
     new r_m :   0.1488 (alat units)  1.4974 (a.u.) for type    2
     new r_m :   0.0747 (alat units)  0.7519 (a.u.) for type    3
     new r_m :   0.2204 (alat units)  2.2185 (a.u.) for type    4
     new r_m :   0.1522 (alat units)  1.5318 (a.u.) for type    5
     new r_m :   0.0747 (alat units)  0.7519 (a.u.) for type    6
     new r_m :   0.1230 (alat units)  1.2377 (a.u.) for type    7

     The initial density is read from file :
     ./temp/phl-ti1-ti2-v3.save/charge-density

     Cannot read wfcs: file not found
     Starting wfcs are  178 randomized atomic wfcs
     Checking if some PAW data can be deallocated... 
       PAW data deallocated on    5 nodes for type:  1
       PAW data deallocated on    5 nodes for type:  2
       PAW data deallocated on    5 nodes for type:  3
       PAW data deallocated on    5 nodes for type:  4
       PAW data deallocated on    5 nodes for type:  5
       PAW data deallocated on    1 nodes for type:  6
       PAW data deallocated on    4 nodes for type:  7

     total cpu time spent up to now is      145.5 secs

     Self-consistent Calculation

     iteration #  1     ecut=    60.00 Ry     beta= 0.70
     Davidson diagonalization with overlap

---- Real-time Memory Report at c_bands before calling an iterative solver
           580 MiB given to the printing process from OS
             0 MiB allocation reported by mallinfo(arena+hblkhd)
         11054 MiB available memory on the node where the printing process lives
------------------
     c_bands:  2 eigenvalues not converged
     c_bands:  3 eigenvalues not converged
     c_bands:  1 eigenvalues not converged
     c_bands:  1 eigenvalues not converged
     c_bands:  1 eigenvalues not converged
     c_bands:  4 eigenvalues not converged
     c_bands:  2 eigenvalues not converged
     c_bands:  2 eigenvalues not converged
     c_bands:  1 eigenvalues not converged
     c_bands:  1 eigenvalues not converged
     c_bands:  1 eigenvalues not converged
     c_bands:  3 eigenvalues not converged
     c_bands:  2 eigenvalues not converged
     c_bands:  3 eigenvalues not converged
     c_bands:  2 eigenvalues not converged
     c_bands:  2 eigenvalues not converged
     c_bands:  2 eigenvalues not converged
     c_bands:  4 eigenvalues not converged
     c_bands:  1 eigenvalues not converged
     c_bands:  3 eigenvalues not converged
     c_bands:  2 eigenvalues not converged
     c_bands:  2 eigenvalues not converged
     c_bands:  1 eigenvalues not converged
     c_bands:  2 eigenvalues not converged
     c_bands:  2 eigenvalues not converged
     c_bands:  2 eigenvalues not converged
     c_bands:  1 eigenvalues not converged
     c_bands:  2 eigenvalues not converged
     c_bands:  2 eigenvalues not converged
     c_bands:  1 eigenvalues not converged
     c_bands:  2 eigenvalues not converged
     c_bands:  4 eigenvalues not converged
     ethr =  1.00E-05,  avg # of iterations = 39.7

     total cpu time spent up to now is     3727.1 secs

     total energy              =   -2344.19994723 Ry
     estimated scf accuracy    <       0.50632284 Ry

     total magnetization       =     0.00 Bohr mag/cell
     absolute magnetization    =     0.00 Bohr mag/cell

     iteration #  2     ecut=    60.00 Ry     beta= 0.70
     Davidson diagonalization with overlap

---- Real-time Memory Report at c_bands before calling an iterative solver
           887 MiB given to the printing process from OS
             0 MiB allocation reported by mallinfo(arena+hblkhd)
         10796 MiB available memory on the node where the printing process lives
------------------
     ethr =  2.04E-04,  avg # of iterations =  9.3

     total cpu time spent up to now is     4214.2 secs

     total energy              =   -2344.29117705 Ry
     estimated scf accuracy    <       0.12432846 Ry

     total magnetization       =     0.00 Bohr mag/cell
     absolute magnetization    =     0.00 Bohr mag/cell

     iteration #  3     ecut=    60.00 Ry     beta= 0.70
     Davidson diagonalization with overlap

---- Real-time Memory Report at c_bands before calling an iterative solver
           890 MiB given to the printing process from OS
             0 MiB allocation reported by mallinfo(arena+hblkhd)
         10781 MiB available memory on the node where the printing process lives
------------------
     ethr =  5.01E-05,  avg # of iterations =  7.3

     total cpu time spent up to now is     4683.1 secs

     total energy              =   -2344.33030994 Ry
     estimated scf accuracy    <       0.03152923 Ry

     total magnetization       =     0.00 Bohr mag/cell
     absolute magnetization    =     0.00 Bohr mag/cell

     iteration #  4     ecut=    60.00 Ry     beta= 0.70
     Davidson diagonalization with overlap

---- Real-time Memory Report at c_bands before calling an iterative solver
           892 MiB given to the printing process from OS
             0 MiB allocation reported by mallinfo(arena+hblkhd)
         10768 MiB available memory on the node where the printing process lives
------------------
     c_bands:  1 eigenvalues not converged
     c_bands:  1 eigenvalues not converged
     c_bands:  1 eigenvalues not converged
     ethr =  1.27E-05,  avg # of iterations = 12.5

     total cpu time spent up to now is     5189.4 secs

     total energy              =   -2344.33818421 Ry
     estimated scf accuracy    <       0.01088109 Ry

     total magnetization       =     0.00 Bohr mag/cell
     absolute magnetization    =     0.00 Bohr mag/cell

     iteration #  5     ecut=    60.00 Ry     beta= 0.70
     Davidson diagonalization with overlap

---- Real-time Memory Report at c_bands before calling an iterative solver
           895 MiB given to the printing process from OS
             0 MiB allocation reported by mallinfo(arena+hblkhd)
         10753 MiB available memory on the node where the printing process lives
------------------
     c_bands:  1 eigenvalues not converged
     c_bands:  1 eigenvalues not converged
     c_bands:  1 eigenvalues not converged
     c_bands:  1 eigenvalues not converged
     c_bands:  1 eigenvalues not converged
     c_bands:  1 eigenvalues not converged
     ethr =  4.39E-06,  avg # of iterations = 12.6

     total cpu time spent up to now is     5674.5 secs

     total energy              =   -2344.34160906 Ry
     estimated scf accuracy    <       0.00329018 Ry

     total magnetization       =    -0.00 Bohr mag/cell
     absolute magnetization    =     0.00 Bohr mag/cell

     iteration #  6     ecut=    60.00 Ry     beta= 0.70
     Davidson diagonalization with overlap

---- Real-time Memory Report at c_bands before calling an iterative solver
           897 MiB given to the printing process from OS
             0 MiB allocation reported by mallinfo(arena+hblkhd)
         10739 MiB available memory on the node where the printing process lives
------------------
     c_bands:  1 eigenvalues not converged
     c_bands:  1 eigenvalues not converged
     c_bands:  1 eigenvalues not converged
     c_bands:  1 eigenvalues not converged
     ethr =  1.33E-06,  avg # of iterations =  8.8

     total cpu time spent up to now is     6114.9 secs

     total energy              =   -2344.34237773 Ry
     estimated scf accuracy    <       0.00011357 Ry

     total magnetization       =     0.00 Bohr mag/cell
     absolute magnetization    =     0.00 Bohr mag/cell

     iteration #  7     ecut=    60.00 Ry     beta= 0.70
     Davidson diagonalization with overlap

---- Real-time Memory Report at c_bands before calling an iterative solver
           899 MiB given to the printing process from OS
             0 MiB allocation reported by mallinfo(arena+hblkhd)
         10725 MiB available memory on the node where the printing process lives
------------------
     ethr =  4.58E-08,  avg # of iterations = 14.2

     total cpu time spent up to now is     7147.7 secs

     total energy              =   -2344.34263364 Ry
     estimated scf accuracy    <       0.00001775 Ry

     total magnetization       =     0.00 Bohr mag/cell
     absolute magnetization    =     0.00 Bohr mag/cell

     iteration #  8     ecut=    60.00 Ry     beta= 0.70
     Davidson diagonalization with overlap

---- Real-time Memory Report at c_bands before calling an iterative solver
           902 MiB given to the printing process from OS
             0 MiB allocation reported by mallinfo(arena+hblkhd)
         10710 MiB available memory on the node where the printing process lives
------------------
     ethr =  7.16E-09,  avg # of iterations =  5.5

     total cpu time spent up to now is     7686.7 secs

     total energy              =   -2344.34263974 Ry
     estimated scf accuracy    <       0.00000530 Ry

     total magnetization       =     0.00 Bohr mag/cell
     absolute magnetization    =     0.00 Bohr mag/cell

     iteration #  9     ecut=    60.00 Ry     beta= 0.70
     Davidson diagonalization with overlap

---- Real-time Memory Report at c_bands before calling an iterative solver
           904 MiB given to the printing process from OS
             0 MiB allocation reported by mallinfo(arena+hblkhd)
         10695 MiB available memory on the node where the printing process lives
------------------
     ethr =  2.14E-09,  avg # of iterations =  5.2

     Magnetic moment per site  (integrated on atomic sphere of radius R)
     atom   1 (R=0.220)  charge=  7.6048  magn=  0.0000
     atom   2 (R=0.220)  charge=  7.6101  magn= -0.0000
     atom   3 (R=0.152)  charge=  8.0585  magn= -0.0000
     atom   4 (R=0.152)  charge=  8.0453  magn=  0.0000
     atom   5 (R=0.152)  charge=  8.0483  magn= -0.0000
     atom   6 (R=0.152)  charge=  8.0521  magn= -0.0000
     atom   7 (R=0.123)  charge=  0.5052  magn= -0.0000
     atom   8 (R=0.123)  charge=  0.5052  magn= -0.0000
     atom   9 (R=0.123)  charge=  0.5059  magn= -0.0000
     atom  10 (R=0.123)  charge=  0.5059  magn= -0.0000
     atom  11 (R=0.123)  charge=  0.5033  magn=  0.0000
     atom  12 (R=0.123)  charge=  0.5033  magn=  0.0000
     atom  13 (R=0.136)  charge=  0.3467  magn= -0.0000
     atom  14 (R=0.136)  charge=  0.3467  magn= -0.0000
     atom  15 (R=0.075)  charge=  1.9274  magn=  0.0000
     atom  16 (R=0.075)  charge=  1.9274  magn=  0.0000
     atom  17 (R=0.075)  charge=  1.9353  magn=  0.0000
     atom  18 (R=0.075)  charge=  1.9353  magn=  0.0000
     atom  19 (R=0.075)  charge=  1.9318  magn= -0.0000
     atom  20 (R=0.075)  charge=  1.9318  magn= -0.0000
     atom  21 (R=0.075)  charge=  1.9250  magn=  0.0000
     atom  22 (R=0.075)  charge=  1.9250  magn=  0.0000
     atom  23 (R=0.075)  charge=  1.9362  magn= -0.0000
     atom  24 (R=0.075)  charge=  1.9362  magn= -0.0000
     atom  25 (R=0.075)  charge=  1.9427  magn= -0.0000
     atom  26 (R=0.075)  charge=  1.9427  magn= -0.0000
     atom  27 (R=0.075)  charge=  1.9379  magn=  0.0000
     atom  28 (R=0.075)  charge=  1.9379  magn=  0.0000
     atom  29 (R=0.075)  charge=  1.9389  magn= -0.0000
     atom  30 (R=0.075)  charge=  1.9389  magn= -0.0000
     atom  31 (R=0.075)  charge=  1.9330  magn=  0.0000
     atom  32 (R=0.075)  charge=  1.9330  magn=  0.0000
     atom  33 (R=0.075)  charge=  1.9341  magn= -0.0000
     atom  34 (R=0.075)  charge=  1.9341  magn= -0.0000
     atom  35 (R=0.075)  charge=  1.9341  magn=  0.0000
     atom  36 (R=0.075)  charge=  1.9341  magn=  0.0000
     atom  37 (R=0.075)  charge=  1.9338  magn=  0.0000
     atom  38 (R=0.075)  charge=  1.9338  magn=  0.0000
     atom  39 (R=0.075)  charge=  0.3938  magn=  0.0000
     atom  40 (R=0.075)  charge=  0.3938  magn=  0.0000
     atom  41 (R=0.075)  charge=  0.3985  magn= -0.0000
     atom  42 (R=0.075)  charge=  0.3985  magn= -0.0000
     atom  43 (R=0.149)  charge=  8.3927  magn= -0.0000

     total cpu time spent up to now is     8159.9 secs

     End of self-consistent calculation

 ------ SPIN UP ------------


          k = 0.0000 0.0000 0.0000 ( 26779 PWs)   bands (ev):

   -68.3959 -68.2176 -67.8587 -67.6397 -52.7998 -35.1690 -35.1371 -35.1349
   -34.9761 -34.9713 -34.9557 -34.6166 -34.6149 -34.6008 -34.3995 -34.3919
   -34.3784 -29.1152 -29.0332 -29.0243 -23.7418 -23.6276 -15.3077 -15.2673
   -14.6618 -14.5972 -14.2630 -14.0359 -13.8499 -13.8383 -13.8093 -13.8039
   -13.7058 -13.4179 -13.2898 -13.2540 -13.1519 -13.0889 -12.9857 -12.9755
   -12.9586 -12.5775 -12.5285 -12.4276 -12.3911 -12.2995  -7.2843  -7.2210
    -7.2189  -7.1585  -7.1114  -7.0905  -4.5713  -4.5157  -2.9915  -2.9018
    -2.3328  -2.0546  -2.0411  -1.6710  -1.6075  -1.2842  -1.2778  -1.1435
    -1.0373  -0.7977  -0.7433  -0.6470  -0.4702  -0.3055  -0.2190  -0.1158
     0.0187   0.0724   0.2340   0.3576   0.3891   0.5929   0.7823   0.7839
     0.8739   0.9208   1.0948   1.0990   1.1682   1.1733   1.2544   1.4082
     1.5471   1.5732   1.5751   1.6843   1.6955   1.8120   1.9173   2.0369
     2.1686   2.1884   2.2128   2.2570   2.3172   2.3258   2.4387   2.5341
     2.6072   2.7387   2.8178   2.8275   2.9293   2.9342   2.9865   3.0582
     3.0643   3.1228   3.1377   3.2324   3.3589   3.4181   3.4614   3.5359
     3.6190   3.7561   3.7686   3.8748   6.8298   7.0627   7.1000   8.5840
     9.3187   9.7577  10.0269  10.6591  11.0777  11.2600  11.3631  11.7336
    11.9518  12.2356  12.2831  12.5791  12.6357  12.7469  12.8033  13.0362
    13.0716  13.2154  13.2732  13.3337  13.3926

     occupation numbers 
     1.0000   1.0000   1.0000   1.0000   1.0000   1.0000   1.0000   1.0000
     1.0000   1.0000   1.0000   1.0000   1.0000   1.0000   1.0000   1.0000
     1.0000   1.0000   1.0000   1.0000   1.0000   1.0000   1.0000   1.0000
     1.0000   1.0000   1.0000   1.0000   1.0000   1.0000   1.0000   1.0000
     1.0000   1.0000   1.0000   1.0000   1.0000   1.0000   1.0000   1.0000
     1.0000   1.0000   1.0000   1.0000   1.0000   1.0000   1.0000   1.0000
     1.0000   1.0000   1.0000   1.0000   1.0000   1.0000   1.0000   1.0000
     1.0000   1.0000   1.0000   1.0000   1.0000   1.0000   1.0000   1.0000
     1.0000   1.0000   1.0000   1.0000   1.0000   1.0000   1.0000   1.0000
     1.0000   1.0000   1.0000   1.0000   1.0000   1.0000   1.0000   1.0000
     1.0000   1.0000   1.0000   1.0000   1.0000   1.0000   1.0000   1.0000
     1.0000   1.0000   1.0000   1.0000   1.0000   1.0000   1.0000   1.0000
     1.0000   1.0000   1.0000   1.0000   1.0000   1.0000   1.0000   1.0000
     1.0000   1.0000   1.0000   1.0000   1.0000   1.0000   1.0000   1.0000
     1.0000   1.0000   1.0000   1.0000   1.0000   1.0000   1.0000   1.0000
     1.0000   1.0000   1.0000   1.0000   0.0000   0.0000   0.0000   0.0000
     0.0000   0.0000   0.0000   0.0000   0.0000   0.0000   0.0000   0.0000
     0.0000   0.0000   0.0000   0.0000   0.0000   0.0000   0.0000   0.0000
     0.0000   0.0000   0.0000   0.0000   0.0000

          k = 0.0000 0.0000 0.1730 ( 26756 PWs)   bands (ev):

   -68.3959 -68.2176 -67.8586 -67.6397 -52.7998 -35.1690 -35.1371 -35.1349
   -34.9761 -34.9713 -34.9557 -34.6166 -34.6149 -34.6008 -34.3995 -34.3918
   -34.3784 -29.1152 -29.0332 -29.0243 -23.7418 -23.6276 -15.2979 -15.2777
   -14.6494 -14.6106 -14.2611 -14.0370 -13.8540 -13.8330 -13.8152 -13.8036
   -13.7002 -13.4181 -13.2819 -13.2636 -13.1450 -13.0947 -12.9873 -12.9719
   -12.9594 -12.5743 -12.5295 -12.4301 -12.3887 -12.3026  -7.2843  -7.2210
    -7.2189  -7.1585  -7.1114  -7.0906  -4.5637  -4.5236  -2.9713  -2.9242
    -2.3252  -2.0568  -2.0297  -1.6545  -1.6230  -1.2827  -1.2800  -1.1268
    -1.0447  -0.7963  -0.7350  -0.6773  -0.4368  -0.3158  -0.2937  -0.1326
     0.0346   0.0834   0.1665   0.3759   0.3969   0.5877   0.7584   0.8021
     0.8526   0.9359   1.0719   1.1203   1.1976   1.2168   1.2618   1.4869
     1.5531   1.5798   1.6760   1.6882   1.7611   1.8128   1.8623   2.0251
     2.1499   2.1716   2.1962   2.2134   2.2455   2.3568   2.4319   2.4803
     2.6581   2.6838   2.7900   2.8579   2.9222   2.9426   2.9801   3.0088
     3.0626   3.1737   3.1944   3.2197   3.3730   3.4100   3.4493   3.4845
     3.6072   3.7709   3.7789   3.8818   6.8314   7.0599   7.1026   8.8664
     9.2955   9.5756   9.7744  10.7784  11.0876  11.1560  11.4253  11.6074
    12.0926  12.2586  12.5835  12.6200  12.6668  12.7531  12.8382  12.9196
    13.0769  13.1758  13.2152  13.3751  13.4199

     occupation numbers 
     1.0000   1.0000   1.0000   1.0000   1.0000   1.0000   1.0000   1.0000
     1.0000   1.0000   1.0000   1.0000   1.0000   1.0000   1.0000   1.0000
     1.0000   1.0000   1.0000   1.0000   1.0000   1.0000   1.0000   1.0000
     1.0000   1.0000   1.0000   1.0000   1.0000   1.0000   1.0000   1.0000
     1.0000   1.0000   1.0000   1.0000   1.0000   1.0000   1.0000   1.0000
     1.0000   1.0000   1.0000   1.0000   1.0000   1.0000   1.0000   1.0000
     1.0000   1.0000   1.0000   1.0000   1.0000   1.0000   1.0000   1.0000
     1.0000   1.0000   1.0000   1.0000   1.0000   1.0000   1.0000   1.0000
     1.0000   1.0000   1.0000   1.0000   1.0000   1.0000   1.0000   1.0000
     1.0000   1.0000   1.0000   1.0000   1.0000   1.0000   1.0000   1.0000
     1.0000   1.0000   1.0000   1.0000   1.0000   1.0000   1.0000   1.0000
     1.0000   1.0000   1.0000   1.0000   1.0000   1.0000   1.0000   1.0000
     1.0000   1.0000   1.0000   1.0000   1.0000   1.0000   1.0000   1.0000
     1.0000   1.0000   1.0000   1.0000   1.0000   1.0000   1.0000   1.0000
     1.0000   1.0000   1.0000   1.0000   1.0000   1.0000   1.0000   1.0000
     1.0000   1.0000   1.0000   1.0000   0.0000   0.0000   0.0000   0.0000
     0.0000   0.0000   0.0000   0.0000   0.0000   0.0000   0.0000   0.0000
     0.0000   0.0000   0.0000   0.0000   0.0000   0.0000   0.0000   0.0000
     0.0000   0.0000   0.0000   0.0000   0.0000

          k = 0.0000 0.1920 0.0000 ( 26787 PWs)   bands (ev):

   -68.3959 -68.2176 -67.8587 -67.6397 -52.7998 -35.1690 -35.1371 -35.1349
   -34.9762 -34.9713 -34.9557 -34.6166 -34.6149 -34.6008 -34.3995 -34.3919
   -34.3784 -29.1152 -29.0332 -29.0243 -23.7418 -23.6276 -15.2945 -15.2578
   -14.7206 -14.6360 -14.2131 -14.0232 -13.8483 -13.8319 -13.8029 -13.7430
   -13.6750 -13.4170 -13.3396 -13.3025 -13.1654 -13.0934 -12.9778 -12.9775
   -12.9581 -12.5803 -12.5229 -12.4306 -12.3824 -12.2948  -7.2839  -7.2210
    -7.2187  -7.1591  -7.1113  -7.0907  -4.5147  -4.4578  -3.1552  -3.0724
    -2.3145  -2.0635  -2.0539  -1.4942  -1.4351  -1.2623  -1.2561  -1.1528
    -1.0748  -0.8951  -0.7393  -0.6319  -0.4922  -0.2752  -0.2312  -0.1639
     0.0258   0.0848   0.2615   0.3352   0.3905   0.5178   0.6259   0.7612
     0.9148   0.9808   1.0740   1.1730   1.2572   1.2658   1.3543   1.4905
     1.5539   1.5546   1.6051   1.6738   1.6738   1.7734   1.8091   1.9819
     2.1076   2.1690   2.1792   2.3233   2.3409   2.4335   2.4756   2.5449
     2.5614   2.7239   2.8474   2.8663   2.9137   2.9603   2.9838   3.0531
     3.0871   3.1200   3.1513   3.2485   3.2702   3.3924   3.4043   3.4863
     3.5397   3.7127   3.7766   3.8596   6.8313   7.0607   7.1069   8.9760
     9.2525   9.7436   9.9126  10.3130  10.8742  11.3035  11.4964  11.9810
    12.0551  12.2819  12.2978  12.4285  12.6840  12.7754  12.8108  12.9071
    13.0062  13.1681  13.1906  13.3647  13.4651

     occupation numbers 
     1.0000   1.0000   1.0000   1.0000   1.0000   1.0000   1.0000   1.0000
     1.0000   1.0000   1.0000   1.0000   1.0000   1.0000   1.0000   1.0000
     1.0000   1.0000   1.0000   1.0000   1.0000   1.0000   1.0000   1.0000
     1.0000   1.0000   1.0000   1.0000   1.0000   1.0000   1.0000   1.0000
     1.0000   1.0000   1.0000   1.0000   1.0000   1.0000   1.0000   1.0000
     1.0000   1.0000   1.0000   1.0000   1.0000   1.0000   1.0000   1.0000
     1.0000   1.0000   1.0000   1.0000   1.0000   1.0000   1.0000   1.0000
     1.0000   1.0000   1.0000   1.0000   1.0000   1.0000   1.0000   1.0000
     1.0000   1.0000   1.0000   1.0000   1.0000   1.0000   1.0000   1.0000
     1.0000   1.0000   1.0000   1.0000   1.0000   1.0000   1.0000   1.0000
     1.0000   1.0000   1.0000   1.0000   1.0000   1.0000   1.0000   1.0000
     1.0000   1.0000   1.0000   1.0000   1.0000   1.0000   1.0000   1.0000
     1.0000   1.0000   1.0000   1.0000   1.0000   1.0000   1.0000   1.0000
     1.0000   1.0000   1.0000   1.0000   1.0000   1.0000   1.0000   1.0000
     1.0000   1.0000   1.0000   1.0000   1.0000   1.0000   1.0000   1.0000
     1.0000   1.0000   1.0000   1.0000   0.0000   0.0000   0.0000   0.0000
     0.0000   0.0000   0.0000   0.0000   0.0000   0.0000   0.0000   0.0000
     0.0000   0.0000   0.0000   0.0000   0.0000   0.0000   0.0000   0.0000
     0.0000   0.0000   0.0000   0.0000   0.0000

          k = 0.0000 0.1920 0.1730 ( 26783 PWs)   bands (ev):

   -68.3959 -68.2176 -67.8587 -67.6397 -52.7998 -35.1690 -35.1371 -35.1349
   -34.9761 -34.9713 -34.9557 -34.6166 -34.6149 -34.6008 -34.3995 -34.3919
   -34.3784 -29.1152 -29.0332 -29.0243 -23.7418 -23.6276 -15.2858 -15.2670
   -14.7096 -14.6491 -14.2104 -14.0235 -13.8510 -13.8276 -13.7994 -13.7555
   -13.6668 -13.4172 -13.3310 -13.3125 -13.1594 -13.0992 -12.9833 -12.9685
   -12.9598 -12.5774 -12.5242 -12.4329 -12.3798 -12.2978  -7.2839  -7.2210
    -7.2186  -7.1591  -7.1113  -7.0907  -4.5047  -4.4682  -3.1354  -3.0936
    -2.3092  -2.0571  -2.0520  -1.4788  -1.4489  -1.2636  -1.2544  -1.1313
    -1.0851  -0.8443  -0.7851  -0.6677  -0.4496  -0.3372  -0.2692  -0.1789
     0.0371   0.1043   0.1942   0.3426   0.4277   0.4949   0.6476   0.7655
     0.9032   0.9755   1.1061   1.1972   1.2770   1.2960   1.3670   1.5273
     1.5625   1.5915   1.6507   1.6658   1.7097   1.7709   1.8071   1.9261
     2.1234   2.1494   2.2057   2.2226   2.3417   2.3645   2.4623   2.5130
     2.6489   2.6908   2.8130   2.8412   2.9443   2.9657   2.9841   3.0407
     3.0869   3.1469   3.1757   3.2473   3.2819   3.3746   3.3845   3.4617
     3.5413   3.7315   3.7751   3.8690   6.8329   7.0574   7.1106   9.0909
     9.3540   9.7658   9.9124  10.1072  10.5729  11.3338  11.4728  11.9695
    12.1642  12.3387  12.4518  12.6476  12.7527  12.7823  12.8827  12.9523
    13.0539  13.1076  13.2228  13.3259  13.3880

     occupation numbers 
     1.0000   1.0000   1.0000   1.0000   1.0000   1.0000   1.0000   1.0000
     1.0000   1.0000   1.0000   1.0000   1.0000   1.0000   1.0000   1.0000
     1.0000   1.0000   1.0000   1.0000   1.0000   1.0000   1.0000   1.0000
     1.0000   1.0000   1.0000   1.0000   1.0000   1.0000   1.0000   1.0000
     1.0000   1.0000   1.0000   1.0000   1.0000   1.0000   1.0000   1.0000
     1.0000   1.0000   1.0000   1.0000   1.0000   1.0000   1.0000   1.0000
     1.0000   1.0000   1.0000   1.0000   1.0000   1.0000   1.0000   1.0000
     1.0000   1.0000   1.0000   1.0000   1.0000   1.0000   1.0000   1.0000
     1.0000   1.0000   1.0000   1.0000   1.0000   1.0000   1.0000   1.0000
     1.0000   1.0000   1.0000   1.0000   1.0000   1.0000   1.0000   1.0000
     1.0000   1.0000   1.0000   1.0000   1.0000   1.0000   1.0000   1.0000
     1.0000   1.0000   1.0000   1.0000   1.0000   1.0000   1.0000   1.0000
     1.0000   1.0000   1.0000   1.0000   1.0000   1.0000   1.0000   1.0000
     1.0000   1.0000   1.0000   1.0000   1.0000   1.0000   1.0000   1.0000
     1.0000   1.0000   1.0000   1.0000   1.0000   1.0000   1.0000   1.0000
     1.0000   1.0000   1.0000   1.0000   0.0000   0.0000   0.0000   0.0000
     0.0000   0.0000   0.0000   0.0000   0.0000   0.0000   0.0000   0.0000
     0.0000   0.0000   0.0000   0.0000   0.0000   0.0000   0.0000   0.0000
     0.0000   0.0000   0.0000   0.0000   0.0000

          k = 0.1667 0.0000 0.0298 ( 26772 PWs)   bands (ev):

   -68.3959 -68.2176 -67.8586 -67.6397 -52.7998 -35.1690 -35.1371 -35.1350
   -34.9761 -34.9713 -34.9557 -34.6165 -34.6150 -34.6008 -34.3994 -34.3921
   -34.3784 -29.1155 -29.0331 -29.0242 -23.7416 -23.6274 -15.2570 -15.2169
   -14.6404 -14.5842 -14.2590 -14.0448 -13.9940 -13.9855 -13.7619 -13.7110
   -13.6630 -13.4339 -13.3100 -13.2675 -13.1449 -13.0960 -13.0465 -12.9892
   -12.9117 -12.5700 -12.5510 -12.4436 -12.3778 -12.2962  -7.2851  -7.2205
    -7.2179  -7.1612  -7.1109  -7.0877  -4.4169  -4.3621  -2.9193  -2.8302
    -2.2909  -2.0818  -2.0462  -1.8267  -1.8114  -1.2424  -1.2140  -1.1790
    -1.0374  -0.7577  -0.7136  -0.5847  -0.4445  -0.2777  -0.2019  -0.1025
    -0.0077   0.0870   0.1441   0.3213   0.3831   0.5211   0.6392   0.6708
     0.8834   0.9874   1.0763   1.1498   1.1831   1.3033   1.3281   1.3783
     1.4670   1.5522   1.6292   1.6695   1.7715   1.8657   1.9418   2.0057
     2.0231   2.1771   2.2202   2.2555   2.3125   2.3931   2.4385   2.5495
     2.6091   2.6995   2.7433   2.8041   2.8405   2.9273   2.9896   3.0266
     3.0502   3.1145   3.1278   3.2183   3.3073   3.3890   3.4166   3.5204
     3.6190   3.6937   3.7675   3.8406   6.8629   7.0278   7.1064   8.8839
     9.3202   9.7059  10.2324  10.7494  11.2075  11.3006  11.4225  11.8534
    12.0159  12.3113  12.4415  12.4683  12.5539  12.6554  12.7773  12.9629
    13.0313  13.1315  13.2048  13.3413  13.4355

     occupation numbers 
     1.0000   1.0000   1.0000   1.0000   1.0000   1.0000   1.0000   1.0000
     1.0000   1.0000   1.0000   1.0000   1.0000   1.0000   1.0000   1.0000
     1.0000   1.0000   1.0000   1.0000   1.0000   1.0000   1.0000   1.0000
     1.0000   1.0000   1.0000   1.0000   1.0000   1.0000   1.0000   1.0000
     1.0000   1.0000   1.0000   1.0000   1.0000   1.0000   1.0000   1.0000
     1.0000   1.0000   1.0000   1.0000   1.0000   1.0000   1.0000   1.0000
     1.0000   1.0000   1.0000   1.0000   1.0000   1.0000   1.0000   1.0000
     1.0000   1.0000   1.0000   1.0000   1.0000   1.0000   1.0000   1.0000
     1.0000   1.0000   1.0000   1.0000   1.0000   1.0000   1.0000   1.0000
     1.0000   1.0000   1.0000   1.0000   1.0000   1.0000   1.0000   1.0000
     1.0000   1.0000   1.0000   1.0000   1.0000   1.0000   1.0000   1.0000
     1.0000   1.0000   1.0000   1.0000   1.0000   1.0000   1.0000   1.0000
     1.0000   1.0000   1.0000   1.0000   1.0000   1.0000   1.0000   1.0000
     1.0000   1.0000   1.0000   1.0000   1.0000   1.0000   1.0000   1.0000
     1.0000   1.0000   1.0000   1.0000   1.0000   1.0000   1.0000   1.0000
     1.0000   1.0000   1.0000   1.0000   0.0000   0.0000   0.0000   0.0000
     0.0000   0.0000   0.0000   0.0000   0.0000   0.0000   0.0000   0.0000
     0.0000   0.0000   0.0000   0.0000   0.0000   0.0000   0.0000   0.0000
     0.0000   0.0000   0.0000   0.0000   0.0000

          k = 0.1667 0.0000 0.2028 ( 26774 PWs)   bands (ev):

   -68.3959 -68.2176 -67.8586 -67.6397 -52.7998 -35.1690 -35.1371 -35.1350
   -34.9761 -34.9713 -34.9557 -34.6165 -34.6150 -34.6008 -34.3994 -34.3921
   -34.3784 -29.1155 -29.0332 -29.0242 -23.7416 -23.6274 -15.2450 -15.2297
   -14.6265 -14.5991 -14.2557 -14.0509 -13.9994 -13.9769 -13.7572 -13.7224
   -13.6547 -13.4338 -13.3087 -13.2696 -13.1405 -13.0981 -13.0413 -13.0014
   -12.9053 -12.5673 -12.5519 -12.4454 -12.3764 -12.2992  -7.2851  -7.2205
    -7.2179  -7.1612  -7.1108  -7.0877  -4.4125  -4.3668  -2.9045  -2.8474
    -2.2844  -2.0787  -2.0340  -1.8566  -1.7867  -1.2380  -1.2146  -1.1774
    -1.0304  -0.7928  -0.6842  -0.5937  -0.4246  -0.3082  -0.2428  -0.1037
    -0.0339   0.0862   0.1575   0.3284   0.3919   0.5246   0.5664   0.6617
     0.8888   1.0212   1.0637   1.1624   1.2022   1.3133   1.3622   1.4121
     1.4951   1.6082   1.6520   1.7393   1.8072   1.8744   1.8966   1.9739
     2.0232   2.1656   2.1895   2.2111   2.2933   2.3267   2.4520   2.4833
     2.6381   2.7211   2.7588   2.7947   2.8532   2.8799   2.9848   3.0092
     3.0573   3.1377   3.1816   3.2160   3.3204   3.3719   3.4046   3.4758
     3.6040   3.7106   3.7836   3.8505   6.8643   7.0256   7.1076   9.1610
     9.3229   9.6726   9.8059  10.8469  11.1548  11.2737  11.4929  11.7447
    11.9979  12.3950  12.4657  12.5612  12.7204  12.7466  12.8570  12.9674
    13.1331  13.1648  13.1810  13.2866  13.3388

     occupation numbers 
     1.0000   1.0000   1.0000   1.0000   1.0000   1.0000   1.0000   1.0000
     1.0000   1.0000   1.0000   1.0000   1.0000   1.0000   1.0000   1.0000
     1.0000   1.0000   1.0000   1.0000   1.0000   1.0000   1.0000   1.0000
     1.0000   1.0000   1.0000   1.0000   1.0000   1.0000   1.0000   1.0000
     1.0000   1.0000   1.0000   1.0000   1.0000   1.0000   1.0000   1.0000
     1.0000   1.0000   1.0000   1.0000   1.0000   1.0000   1.0000   1.0000
     1.0000   1.0000   1.0000   1.0000   1.0000   1.0000   1.0000   1.0000
     1.0000   1.0000   1.0000   1.0000   1.0000   1.0000   1.0000   1.0000
     1.0000   1.0000   1.0000   1.0000   1.0000   1.0000   1.0000   1.0000
     1.0000   1.0000   1.0000   1.0000   1.0000   1.0000   1.0000   1.0000
     1.0000   1.0000   1.0000   1.0000   1.0000   1.0000   1.0000   1.0000
     1.0000   1.0000   1.0000   1.0000   1.0000   1.0000   1.0000   1.0000
     1.0000   1.0000   1.0000   1.0000   1.0000   1.0000   1.0000   1.0000
     1.0000   1.0000   1.0000   1.0000   1.0000   1.0000   1.0000   1.0000
     1.0000   1.0000   1.0000   1.0000   1.0000   1.0000   1.0000   1.0000
     1.0000   1.0000   1.0000   1.0000   0.0000   0.0000   0.0000   0.0000
     0.0000   0.0000   0.0000   0.0000   0.0000   0.0000   0.0000   0.0000
     0.0000   0.0000   0.0000   0.0000   0.0000   0.0000   0.0000   0.0000
     0.0000   0.0000   0.0000   0.0000   0.0000

          k = 0.1667 0.0000-0.1432 ( 26772 PWs)   bands (ev):

   -68.3959 -68.2176 -67.8586 -67.6397 -52.7998 -35.1690 -35.1371 -35.1350
   -34.9761 -34.9713 -34.9557 -34.6165 -34.6150 -34.6008 -34.3994 -34.3921
   -34.3784 -29.1155 -29.0332 -29.0242 -23.7416 -23.6274 -15.2496 -15.2249
   -14.6297 -14.5961 -14.2559 -14.0477 -14.0023 -13.9768 -13.7638 -13.7094
   -13.6615 -13.4342 -13.2965 -13.2828 -13.1372 -13.1043 -13.0402 -12.9953
   -12.9092 -12.5673 -12.5515 -12.4438 -12.3761 -12.3002  -7.2852  -7.2205
    -7.2178  -7.1612  -7.1108  -7.0877  -4.4054  -4.3740  -2.8985  -2.8531
    -2.2861  -2.0818  -2.0375  -1.8469  -1.7945  -1.2353  -1.2211  -1.1686
    -1.0353  -0.7940  -0.6528  -0.6160  -0.4108  -0.3183  -0.2509  -0.0976
    -0.0405   0.0832   0.1749   0.3033   0.3934   0.5222   0.6391   0.6799
     0.8979   0.9695   1.0368   1.1662   1.2404   1.2690   1.3391   1.4390
     1.5125   1.5451   1.6186   1.6984   1.7970   1.8681   1.9044   2.0019
     2.0518   2.1841   2.1940   2.2389   2.2998   2.3596   2.4251   2.5600
     2.6296   2.6915   2.7678   2.8050   2.8747   2.9028   2.9289   2.9716
     3.0370   3.1262   3.1848   3.2083   3.3148   3.3994   3.4251   3.4640
     3.6018   3.7108   3.7746   3.8602   6.8627   7.0279   7.1087   9.0545
     9.3143   9.6095  10.0399  10.8734  11.1448  11.3125  11.4865  11.7803
    11.9817  12.3671  12.4620  12.5061  12.6695  12.7659  12.8195  12.9494
    13.0073  13.0610  13.2377  13.2666  13.4190

     occupation numbers 
     1.0000   1.0000   1.0000   1.0000   1.0000   1.0000   1.0000   1.0000
     1.0000   1.0000   1.0000   1.0000   1.0000   1.0000   1.0000   1.0000
     1.0000   1.0000   1.0000   1.0000   1.0000   1.0000   1.0000   1.0000
     1.0000   1.0000   1.0000   1.0000   1.0000   1.0000   1.0000   1.0000
     1.0000   1.0000   1.0000   1.0000   1.0000   1.0000   1.0000   1.0000
     1.0000   1.0000   1.0000   1.0000   1.0000   1.0000   1.0000   1.0000
     1.0000   1.0000   1.0000   1.0000   1.0000   1.0000   1.0000   1.0000
     1.0000   1.0000   1.0000   1.0000   1.0000   1.0000   1.0000   1.0000
     1.0000   1.0000   1.0000   1.0000   1.0000   1.0000   1.0000   1.0000
     1.0000   1.0000   1.0000   1.0000   1.0000   1.0000   1.0000   1.0000
     1.0000   1.0000   1.0000   1.0000   1.0000   1.0000   1.0000   1.0000
     1.0000   1.0000   1.0000   1.0000   1.0000   1.0000   1.0000   1.0000
     1.0000   1.0000   1.0000   1.0000   1.0000   1.0000   1.0000   1.0000
     1.0000   1.0000   1.0000   1.0000   1.0000   1.0000   1.0000   1.0000
     1.0000   1.0000   1.0000   1.0000   1.0000   1.0000   1.0000   1.0000
     1.0000   1.0000   1.0000   1.0000   0.0000   0.0000   0.0000   0.0000
     0.0000   0.0000   0.0000   0.0000   0.0000   0.0000   0.0000   0.0000
     0.0000   0.0000   0.0000   0.0000   0.0000   0.0000   0.0000   0.0000
     0.0000   0.0000   0.0000   0.0000   0.0000

          k = 0.1667 0.1920 0.0298 ( 26762 PWs)   bands (ev):

   -68.3959 -68.2176 -67.8586 -67.6397 -52.7998 -35.1690 -35.1371 -35.1350
   -34.9761 -34.9713 -34.9557 -34.6165 -34.6149 -34.6008 -34.3994 -34.3921
   -34.3784 -29.1155 -29.0331 -29.0242 -23.7416 -23.6274 -15.2446 -15.2080
   -14.6960 -14.6202 -14.2111 -14.0292 -13.9838 -13.9645 -13.7654 -13.6855
   -13.6370 -13.4349 -13.3497 -13.3072 -13.1566 -13.0975 -13.0391 -12.9864
   -12.9114 -12.5735 -12.5467 -12.4421 -12.3745 -12.2928  -7.2849  -7.2205
    -7.2177  -7.1618  -7.1107  -7.0878  -4.3643  -4.3084  -3.0936  -3.0155
    -2.2778  -2.0802  -2.0336  -1.6632  -1.6110  -1.3120  -1.2250  -1.1635
    -1.0023  -0.8073  -0.7125  -0.5605  -0.4431  -0.2466  -0.2345  -0.1626
    -0.0164   0.0668   0.1729   0.2934   0.3865   0.4869   0.5510   0.6774
     0.9301   0.9913   1.1004   1.1975   1.2551   1.3164   1.3451   1.3968
     1.4787   1.5208   1.5989   1.6626   1.7788   1.8411   1.9016   2.0028
     2.0645   2.1296   2.2184   2.2983   2.3245   2.4474   2.4732   2.5289
     2.5767   2.7222   2.7748   2.8334   2.9100   2.9296   2.9936   3.0125
     3.0407   3.0972   3.1366   3.1782   3.2288   3.3252   3.4014   3.4878
     3.5805   3.6601   3.7945   3.8327   6.8642   7.0250   7.1127   9.2167
     9.2827   9.7250  10.0719  10.4645  10.9637  11.4004  11.5123  12.0005
    12.1202  12.2496  12.4137  12.4463  12.6236  12.7239  12.8211  12.9289
    13.0445  13.0908  13.2407  13.2770  13.3495

     occupation numbers 
     1.0000   1.0000   1.0000   1.0000   1.0000   1.0000   1.0000   1.0000
     1.0000   1.0000   1.0000   1.0000   1.0000   1.0000   1.0000   1.0000
     1.0000   1.0000   1.0000   1.0000   1.0000   1.0000   1.0000   1.0000
     1.0000   1.0000   1.0000   1.0000   1.0000   1.0000   1.0000   1.0000
     1.0000   1.0000   1.0000   1.0000   1.0000   1.0000   1.0000   1.0000
     1.0000   1.0000   1.0000   1.0000   1.0000   1.0000   1.0000   1.0000
     1.0000   1.0000   1.0000   1.0000   1.0000   1.0000   1.0000   1.0000
     1.0000   1.0000   1.0000   1.0000   1.0000   1.0000   1.0000   1.0000
     1.0000   1.0000   1.0000   1.0000   1.0000   1.0000   1.0000   1.0000
     1.0000   1.0000   1.0000   1.0000   1.0000   1.0000   1.0000   1.0000
     1.0000   1.0000   1.0000   1.0000   1.0000   1.0000   1.0000   1.0000
     1.0000   1.0000   1.0000   1.0000   1.0000   1.0000   1.0000   1.0000
     1.0000   1.0000   1.0000   1.0000   1.0000   1.0000   1.0000   1.0000
     1.0000   1.0000   1.0000   1.0000   1.0000   1.0000   1.0000   1.0000
     1.0000   1.0000   1.0000   1.0000   1.0000   1.0000   1.0000   1.0000
     1.0000   1.0000   1.0000   1.0000   0.0000   0.0000   0.0000   0.0000
     0.0000   0.0000   0.0000   0.0000   0.0000   0.0000   0.0000   0.0000
     0.0000   0.0000   0.0000   0.0000   0.0000   0.0000   0.0000   0.0000
     0.0000   0.0000   0.0000   0.0000   0.0000

          k = 0.1667 0.1920 0.2028 ( 26761 PWs)   bands (ev):

   -68.3959 -68.2176 -67.8586 -67.6397 -52.7998 -35.1690 -35.1371 -35.1350
   -34.9761 -34.9713 -34.9557 -34.6165 -34.6149 -34.6008 -34.3994 -34.3921
   -34.3784 -29.1155 -29.0332 -29.0242 -23.7416 -23.6274 -15.2340 -15.2191
   -14.6826 -14.6358 -14.2076 -14.0305 -13.9842 -13.9645 -13.7596 -13.6993
   -13.6274 -13.4351 -13.3457 -13.3122 -13.1516 -13.1020 -13.0309 -12.9993
   -12.9050 -12.5713 -12.5478 -12.4439 -12.3727 -12.2956  -7.2849  -7.2205
    -7.2177  -7.1617  -7.1107  -7.0878  -4.3569  -4.3161  -3.0771  -3.0333
    -2.2734  -2.0797  -2.0251  -1.6638  -1.6106  -1.3038  -1.2346  -1.1583
    -0.9888  -0.7906  -0.7263  -0.5857  -0.4110  -0.3379  -0.2357  -0.1679
    -0.0257   0.0643   0.1917   0.3156   0.3779   0.4829   0.5223   0.6582
     0.9344   0.9875   1.1094   1.1872   1.2813   1.3527   1.3872   1.4470
     1.4870   1.5389   1.6400   1.7386   1.7944   1.8263   1.8700   1.9864
     2.0608   2.1027   2.1717   2.2384   2.3268   2.3739   2.4712   2.5098
     2.6328   2.7088   2.7864   2.8226   2.8922   2.9492   2.9833   3.0192
     3.0580   3.0893   3.1506   3.1990   3.2361   3.3127   3.3871   3.4497
     3.5750   3.6812   3.8001   3.8430   6.8655   7.0225   7.1148   9.1950
     9.5043   9.8018  10.0094  10.3055  10.6504  11.4024  11.4875  12.0386
    12.1447  12.2776  12.4740  12.6341  12.7411  12.8450  12.8827  12.9847
    13.0880  13.1586  13.2020  13.2315  13.3847

     occupation numbers 
     1.0000   1.0000   1.0000   1.0000   1.0000   1.0000   1.0000   1.0000
     1.0000   1.0000   1.0000   1.0000   1.0000   1.0000   1.0000   1.0000
     1.0000   1.0000   1.0000   1.0000   1.0000   1.0000   1.0000   1.0000
     1.0000   1.0000   1.0000   1.0000   1.0000   1.0000   1.0000   1.0000
     1.0000   1.0000   1.0000   1.0000   1.0000   1.0000   1.0000   1.0000
     1.0000   1.0000   1.0000   1.0000   1.0000   1.0000   1.0000   1.0000
     1.0000   1.0000   1.0000   1.0000   1.0000   1.0000   1.0000   1.0000
     1.0000   1.0000   1.0000   1.0000   1.0000   1.0000   1.0000   1.0000
     1.0000   1.0000   1.0000   1.0000   1.0000   1.0000   1.0000   1.0000
     1.0000   1.0000   1.0000   1.0000   1.0000   1.0000   1.0000   1.0000
     1.0000   1.0000   1.0000   1.0000   1.0000   1.0000   1.0000   1.0000
     1.0000   1.0000   1.0000   1.0000   1.0000   1.0000   1.0000   1.0000
     1.0000   1.0000   1.0000   1.0000   1.0000   1.0000   1.0000   1.0000
     1.0000   1.0000   1.0000   1.0000   1.0000   1.0000   1.0000   1.0000
     1.0000   1.0000   1.0000   1.0000   1.0000   1.0000   1.0000   1.0000
     1.0000   1.0000   1.0000   1.0000   0.0000   0.0000   0.0000   0.0000
     0.0000   0.0000   0.0000   0.0000   0.0000   0.0000   0.0000   0.0000
     0.0000   0.0000   0.0000   0.0000   0.0000   0.0000   0.0000   0.0000
     0.0000   0.0000   0.0000   0.0000   0.0000

          k = 0.1667 0.1920-0.1432 ( 26775 PWs)   bands (ev):

   -68.3959 -68.2176 -67.8586 -67.6397 -52.7998 -35.1690 -35.1371 -35.1350
   -34.9761 -34.9713 -34.9557 -34.6165 -34.6149 -34.6008 -34.3994 -34.3921
   -34.3784 -29.1155 -29.0332 -29.0242 -23.7416 -23.6274 -15.2381 -15.2148
   -14.6859 -14.6323 -14.2077 -14.0303 -13.9858 -13.9632 -13.7643 -13.6882
   -13.6343 -13.4354 -13.3359 -13.3224 -13.1491 -13.1064 -13.0320 -12.9931
   -12.9085 -12.5709 -12.5476 -12.4426 -12.3722 -12.2968  -7.2850  -7.2204
    -7.2177  -7.1617  -7.1107  -7.0878  -4.3514  -4.3217  -3.0726  -3.0381
    -2.2742  -2.0822  -2.0275  -1.6558  -1.6177  -1.3059  -1.2310  -1.1519
    -0.9961  -0.7867  -0.7272  -0.5865  -0.4149  -0.3146  -0.2383  -0.1655
    -0.0482   0.0655   0.1902   0.3159   0.3957   0.4763   0.5207   0.7033
     0.9249   1.0114   1.1031   1.1590   1.2992   1.3287   1.3881   1.4061
     1.4780   1.5342   1.5874   1.7183   1.7643   1.8580   1.8701   2.0041
     2.0706   2.1197   2.2221   2.2561   2.3362   2.4040   2.4589   2.5256
     2.6434   2.6857   2.7783   2.8430   2.8717   2.9096   2.9920   3.0098
     3.0606   3.0934   3.1429   3.2102   3.2392   3.3180   3.3834   3.4505
     3.5663   3.6757   3.7958   3.8524   6.8641   7.0252   7.1160   9.1591
     9.4874   9.6861  10.2200  10.2473  10.7631  11.4343  11.5352  11.9914
    12.1023  12.2837  12.4130  12.5820  12.6355  12.8522  12.9054  12.9682
    13.0587  13.0983  13.2191  13.2662  13.4019

     occupation numbers 
     1.0000   1.0000   1.0000   1.0000   1.0000   1.0000   1.0000   1.0000
     1.0000   1.0000   1.0000   1.0000   1.0000   1.0000   1.0000   1.0000
     1.0000   1.0000   1.0000   1.0000   1.0000   1.0000   1.0000   1.0000
     1.0000   1.0000   1.0000   1.0000   1.0000   1.0000   1.0000   1.0000
     1.0000   1.0000   1.0000   1.0000   1.0000   1.0000   1.0000   1.0000
     1.0000   1.0000   1.0000   1.0000   1.0000   1.0000   1.0000   1.0000
     1.0000   1.0000   1.0000   1.0000   1.0000   1.0000   1.0000   1.0000
     1.0000   1.0000   1.0000   1.0000   1.0000   1.0000   1.0000   1.0000
     1.0000   1.0000   1.0000   1.0000   1.0000   1.0000   1.0000   1.0000
     1.0000   1.0000   1.0000   1.0000   1.0000   1.0000   1.0000   1.0000
     1.0000   1.0000   1.0000   1.0000   1.0000   1.0000   1.0000   1.0000
     1.0000   1.0000   1.0000   1.0000   1.0000   1.0000   1.0000   1.0000
     1.0000   1.0000   1.0000   1.0000   1.0000   1.0000   1.0000   1.0000
     1.0000   1.0000   1.0000   1.0000   1.0000   1.0000   1.0000   1.0000
     1.0000   1.0000   1.0000   1.0000   1.0000   1.0000   1.0000   1.0000
     1.0000   1.0000   1.0000   1.0000   0.0000   0.0000   0.0000   0.0000
     0.0000   0.0000   0.0000   0.0000   0.0000   0.0000   0.0000   0.0000
     0.0000   0.0000   0.0000   0.0000   0.0000   0.0000   0.0000   0.0000
     0.0000   0.0000   0.0000   0.0000   0.0000

          k = 0.3333 0.0000 0.0596 ( 26753 PWs)   bands (ev):

   -68.3959 -68.2176 -67.8586 -67.6397 -52.7998 -35.1689 -35.1370 -35.1350
   -34.9761 -34.9714 -34.9557 -34.6162 -34.6151 -34.6008 -34.3992 -34.3925
   -34.3785 -29.1160 -29.0331 -29.0241 -23.7414 -23.6272 -15.1270 -15.0882
   -14.6138 -14.5750 -14.2904 -14.1979 -14.1335 -14.0401 -13.7311 -13.6328
   -13.5825 -13.4849 -13.3849 -13.3390 -13.1307 -13.1061 -13.0689 -13.0339
   -12.8441 -12.6239 -12.5419 -12.4713 -12.3613 -12.2914  -7.2870  -7.2189
    -7.2162  -7.1666  -7.1098  -7.0820  -4.0230  -3.9692  -2.8723  -2.7784
    -2.2402  -2.2228  -2.1197  -2.0656  -1.8163  -1.3276  -1.2660  -1.1780
    -0.9537  -0.7600  -0.5973  -0.4428  -0.3785  -0.2590  -0.1673  -0.0805
    -0.0633   0.0604   0.1641   0.1790   0.3225   0.3771   0.5297   0.6512
     0.7541   0.9275   0.9902   1.1598   1.2103   1.2741   1.3306   1.4099
     1.4741   1.5527   1.6936   1.7522   1.8283   1.9026   1.9362   1.9946
     2.1152   2.1870   2.2025   2.2305   2.3707   2.3885   2.4022   2.4553
     2.5562   2.6307   2.6806   2.7326   2.8075   2.9014   2.9711   2.9957
     3.0585   3.0897   3.1081   3.1342   3.1953   3.3079   3.3656   3.5299
     3.5370   3.5974   3.7726   3.8465   6.9205   6.9612   7.1125   9.3353
     9.4386   9.8512  10.5897  10.9176  11.3401  11.4980  11.5599  11.7224
    12.1211  12.2387  12.2844  12.4298  12.6397  12.7744  12.8866  12.9563
    13.0047  13.0675  13.1541  13.1899  13.4475

     occupation numbers 
     1.0000   1.0000   1.0000   1.0000   1.0000   1.0000   1.0000   1.0000
     1.0000   1.0000   1.0000   1.0000   1.0000   1.0000   1.0000   1.0000
     1.0000   1.0000   1.0000   1.0000   1.0000   1.0000   1.0000   1.0000
     1.0000   1.0000   1.0000   1.0000   1.0000   1.0000   1.0000   1.0000
     1.0000   1.0000   1.0000   1.0000   1.0000   1.0000   1.0000   1.0000
     1.0000   1.0000   1.0000   1.0000   1.0000   1.0000   1.0000   1.0000
     1.0000   1.0000   1.0000   1.0000   1.0000   1.0000   1.0000   1.0000
     1.0000   1.0000   1.0000   1.0000   1.0000   1.0000   1.0000   1.0000
     1.0000   1.0000   1.0000   1.0000   1.0000   1.0000   1.0000   1.0000
     1.0000   1.0000   1.0000   1.0000   1.0000   1.0000   1.0000   1.0000
     1.0000   1.0000   1.0000   1.0000   1.0000   1.0000   1.0000   1.0000
     1.0000   1.0000   1.0000   1.0000   1.0000   1.0000   1.0000   1.0000
     1.0000   1.0000   1.0000   1.0000   1.0000   1.0000   1.0000   1.0000
     1.0000   1.0000   1.0000   1.0000   1.0000   1.0000   1.0000   1.0000
     1.0000   1.0000   1.0000   1.0000   1.0000   1.0000   1.0000   1.0000
     1.0000   1.0000   1.0000   1.0000   0.0000   0.0000   0.0000   0.0000
     0.0000   0.0000   0.0000   0.0000   0.0000   0.0000   0.0000   0.0000
     0.0000   0.0000   0.0000   0.0000   0.0000   0.0000   0.0000   0.0000
     0.0000   0.0000   0.0000   0.0000   0.0000

          k = 0.3333 0.0000 0.2326 ( 26737 PWs)   bands (ev):

   -68.3959 -68.2176 -67.8586 -67.6397 -52.7998 -35.1689 -35.1370 -35.1350
   -34.9761 -34.9714 -34.9556 -34.6162 -34.6151 -34.6008 -34.3992 -34.3925
   -34.3785 -29.1160 -29.0331 -29.0241 -23.7414 -23.6272 -15.1141 -15.1019
   -14.6060 -14.5834 -14.2792 -14.2169 -14.1253 -14.0402 -13.7290 -13.6399
   -13.5775 -13.4857 -13.3743 -13.3485 -13.1269 -13.1017 -13.0708 -13.0415
   -12.8412 -12.6255 -12.5382 -12.4715 -12.3606 -12.2952  -7.2870  -7.2189
    -7.2162  -7.1665  -7.1098  -7.0819  -4.0208  -3.9715  -2.8560  -2.7968
    -2.2370  -2.2083  -2.1337  -2.0725  -1.8048  -1.3309  -1.2408  -1.1946
    -0.9382  -0.8039  -0.5517  -0.4588  -0.3589  -0.2612  -0.2023  -0.0994
    -0.0593   0.0839   0.1490   0.1824   0.3168   0.3422   0.5266   0.6393
     0.7644   0.9397   0.9772   1.1505   1.2316   1.2787   1.3323   1.4060
     1.5045   1.6032   1.7235   1.8104   1.8375   1.8808   1.9317   1.9892
     2.0915   2.1448   2.1825   2.2186   2.3164   2.4079   2.4280   2.4646
     2.5410   2.6474   2.6906   2.7817   2.8026   2.8559   2.9129   3.0175
     3.0406   3.1040   3.1163   3.1678   3.1732   3.2895   3.3821   3.4851
     3.5464   3.6096   3.7886   3.8538   6.9203   6.9617   7.1125   9.3215
     9.4934  10.1008  10.1997  10.9480  11.2853  11.5359  11.6183  11.6816
    12.0940  12.1778  12.2495  12.4762  12.7041  12.8687  12.9387  13.0013
    13.0774  13.1176  13.1536  13.2246  13.3323

     occupation numbers 
     1.0000   1.0000   1.0000   1.0000   1.0000   1.0000   1.0000   1.0000
     1.0000   1.0000   1.0000   1.0000   1.0000   1.0000   1.0000   1.0000
     1.0000   1.0000   1.0000   1.0000   1.0000   1.0000   1.0000   1.0000
     1.0000   1.0000   1.0000   1.0000   1.0000   1.0000   1.0000   1.0000
     1.0000   1.0000   1.0000   1.0000   1.0000   1.0000   1.0000   1.0000
     1.0000   1.0000   1.0000   1.0000   1.0000   1.0000   1.0000   1.0000
     1.0000   1.0000   1.0000   1.0000   1.0000   1.0000   1.0000   1.0000
     1.0000   1.0000   1.0000   1.0000   1.0000   1.0000   1.0000   1.0000
     1.0000   1.0000   1.0000   1.0000   1.0000   1.0000   1.0000   1.0000
     1.0000   1.0000   1.0000   1.0000   1.0000   1.0000   1.0000   1.0000
     1.0000   1.0000   1.0000   1.0000   1.0000   1.0000   1.0000   1.0000
     1.0000   1.0000   1.0000   1.0000   1.0000   1.0000   1.0000   1.0000
     1.0000   1.0000   1.0000   1.0000   1.0000   1.0000   1.0000   1.0000
     1.0000   1.0000   1.0000   1.0000   1.0000   1.0000   1.0000   1.0000
     1.0000   1.0000   1.0000   1.0000   1.0000   1.0000   1.0000   1.0000
     1.0000   1.0000   1.0000   1.0000   0.0000   0.0000   0.0000   0.0000
     0.0000   0.0000   0.0000   0.0000   0.0000   0.0000   0.0000   0.0000
     0.0000   0.0000   0.0000   0.0000   0.0000   0.0000   0.0000   0.0000
     0.0000   0.0000   0.0000   0.0000   0.0000

          k = 0.3333 0.0000-0.1134 ( 26755 PWs)   bands (ev):

   -68.3959 -68.2176 -67.8586 -67.6397 -52.7998 -35.1689 -35.1370 -35.1350
   -34.9761 -34.9714 -34.9557 -34.6162 -34.6151 -34.6007 -34.3992 -34.3925
   -34.3784 -29.1160 -29.0331 -29.0241 -23.7414 -23.6272 -15.1217 -15.0939
   -14.6050 -14.5845 -14.2837 -14.2092 -14.1281 -14.0402 -13.7337 -13.6257
   -13.5873 -13.4855 -13.3725 -13.3509 -13.1216 -13.1140 -13.0656 -13.0375
   -12.8459 -12.6227 -12.5394 -12.4693 -12.3603 -12.2963  -7.2871  -7.2189
    -7.2162  -7.1665  -7.1098  -7.0819  -4.0056  -3.9870  -2.8566  -2.7965
    -2.2479  -2.2096  -2.1149  -2.0742  -1.8179  -1.3102  -1.2685  -1.1800
    -0.9492  -0.7873  -0.5289  -0.4648  -0.3635  -0.2524  -0.2493  -0.0848
    -0.0483   0.0517   0.1587   0.1706   0.3251   0.3726   0.5466   0.6504
     0.7883   0.8900   1.0157   1.1671   1.2146   1.3082   1.3277   1.3489
     1.4158   1.5893   1.7120   1.7861   1.8519   1.8892   1.9330   2.0126
     2.1156   2.1907   2.2153   2.2251   2.3190   2.3886   2.4303   2.4612
     2.6137   2.6493   2.6773   2.7481   2.7689   2.8666   2.9067   2.9813
     3.0517   3.0832   3.1213   3.1394   3.1918   3.2966   3.4125   3.4869
     3.5498   3.6033   3.7733   3.8642   6.9193   6.9629   7.1135   9.3251
     9.5571   9.7212  10.5757  11.0550  11.1606  11.5714  11.6252  11.7669
    12.1099  12.1631  12.2570  12.5263  12.6227  12.7266  12.8894  12.9385
    12.9680  13.0886  13.1637  13.1863  13.4078

     occupation numbers 
     1.0000   1.0000   1.0000   1.0000   1.0000   1.0000   1.0000   1.0000
     1.0000   1.0000   1.0000   1.0000   1.0000   1.0000   1.0000   1.0000
     1.0000   1.0000   1.0000   1.0000   1.0000   1.0000   1.0000   1.0000
     1.0000   1.0000   1.0000   1.0000   1.0000   1.0000   1.0000   1.0000
     1.0000   1.0000   1.0000   1.0000   1.0000   1.0000   1.0000   1.0000
     1.0000   1.0000   1.0000   1.0000   1.0000   1.0000   1.0000   1.0000
     1.0000   1.0000   1.0000   1.0000   1.0000   1.0000   1.0000   1.0000
     1.0000   1.0000   1.0000   1.0000   1.0000   1.0000   1.0000   1.0000
     1.0000   1.0000   1.0000   1.0000   1.0000   1.0000   1.0000   1.0000
     1.0000   1.0000   1.0000   1.0000   1.0000   1.0000   1.0000   1.0000
     1.0000   1.0000   1.0000   1.0000   1.0000   1.0000   1.0000   1.0000
     1.0000   1.0000   1.0000   1.0000   1.0000   1.0000   1.0000   1.0000
     1.0000   1.0000   1.0000   1.0000   1.0000   1.0000   1.0000   1.0000
     1.0000   1.0000   1.0000   1.0000   1.0000   1.0000   1.0000   1.0000
     1.0000   1.0000   1.0000   1.0000   1.0000   1.0000   1.0000   1.0000
     1.0000   1.0000   1.0000   1.0000   0.0000   0.0000   0.0000   0.0000
     0.0000   0.0000   0.0000   0.0000   0.0000   0.0000   0.0000   0.0000
     0.0000   0.0000   0.0000   0.0000   0.0000   0.0000   0.0000   0.0000
     0.0000   0.0000   0.0000   0.0000   0.0000

          k = 0.3333 0.1920 0.0596 ( 26747 PWs)   bands (ev):

   -68.3959 -68.2176 -67.8586 -67.6397 -52.7998 -35.1689 -35.1370 -35.1350
   -34.9761 -34.9713 -34.9557 -34.6162 -34.6151 -34.6008 -34.3992 -34.3925
   -34.3785 -29.1160 -29.0331 -29.0241 -23.7414 -23.6272 -15.1180 -15.0821
   -14.6482 -14.5964 -14.2763 -14.1864 -14.1102 -14.0326 -13.7372 -13.6247
   -13.5693 -13.4928 -13.4022 -13.3494 -13.1370 -13.1029 -13.0657 -13.0308
   -12.8447 -12.6260 -12.5404 -12.4682 -12.3623 -12.2906  -7.2871  -7.2190
    -7.2162  -7.1671  -7.1095  -7.0820  -3.9900  -3.9374  -3.0136  -2.9389
    -2.2193  -2.1549  -2.0473  -1.9573  -1.7789  -1.3018  -1.2773  -1.1601
    -0.9533  -0.7376  -0.6279  -0.4209  -0.3680  -0.2470  -0.1946  -0.1379
    -0.0799   0.0082   0.1354   0.2050   0.3247   0.4337   0.5002   0.6202
     0.7873   0.8875   1.0165   1.1202   1.2132   1.2631   1.3483   1.4311
     1.4714   1.5847   1.6598   1.7735   1.8309   1.8862   1.9253   1.9668
     2.0504   2.1228   2.2196   2.2809   2.3334   2.3956   2.4805   2.4946
     2.5519   2.6807   2.6946   2.7893   2.8751   2.9044   2.9319   2.9866
     3.0371   3.0692   3.1046   3.1360   3.1770   3.2409   3.3563   3.4871
     3.5745   3.6038   3.7700   3.8490   6.9206   6.9578   7.1183   9.2943
     9.5566   9.9940  10.5225  10.7687  11.1568  11.4271  11.5502  11.8835
    12.0340  12.1047  12.3775  12.5383  12.6077  12.7467  12.9025  12.9903
    13.0072  13.1196  13.2225  13.3486  13.4122

     occupation numbers 
     1.0000   1.0000   1.0000   1.0000   1.0000   1.0000   1.0000   1.0000
     1.0000   1.0000   1.0000   1.0000   1.0000   1.0000   1.0000   1.0000
     1.0000   1.0000   1.0000   1.0000   1.0000   1.0000   1.0000   1.0000
     1.0000   1.0000   1.0000   1.0000   1.0000   1.0000   1.0000   1.0000
     1.0000   1.0000   1.0000   1.0000   1.0000   1.0000   1.0000   1.0000
     1.0000   1.0000   1.0000   1.0000   1.0000   1.0000   1.0000   1.0000
     1.0000   1.0000   1.0000   1.0000   1.0000   1.0000   1.0000   1.0000
     1.0000   1.0000   1.0000   1.0000   1.0000   1.0000   1.0000   1.0000
     1.0000   1.0000   1.0000   1.0000   1.0000   1.0000   1.0000   1.0000
     1.0000   1.0000   1.0000   1.0000   1.0000   1.0000   1.0000   1.0000
     1.0000   1.0000   1.0000   1.0000   1.0000   1.0000   1.0000   1.0000
     1.0000   1.0000   1.0000   1.0000   1.0000   1.0000   1.0000   1.0000
     1.0000   1.0000   1.0000   1.0000   1.0000   1.0000   1.0000   1.0000
     1.0000   1.0000   1.0000   1.0000   1.0000   1.0000   1.0000   1.0000
     1.0000   1.0000   1.0000   1.0000   1.0000   1.0000   1.0000   1.0000
     1.0000   1.0000   1.0000   1.0000   0.0000   0.0000   0.0000   0.0000
     0.0000   0.0000   0.0000   0.0000   0.0000   0.0000   0.0000   0.0000
     0.0000   0.0000   0.0000   0.0000   0.0000   0.0000   0.0000   0.0000
     0.0000   0.0000   0.0000   0.0000   0.0000

          k = 0.3333 0.1920 0.2326 ( 26742 PWs)   bands (ev):

   -68.3959 -68.2176 -67.8586 -67.6397 -52.7998 -35.1689 -35.1370 -35.1350
   -34.9761 -34.9713 -34.9556 -34.6162 -34.6151 -34.6008 -34.3992 -34.3925
   -34.3785 -29.1160 -29.0331 -29.0241 -23.7414 -23.6272 -15.1073 -15.0934
   -14.6331 -14.6132 -14.2673 -14.2006 -14.1026 -14.0333 -13.7342 -13.6331
   -13.5641 -13.4948 -13.3887 -13.3610 -13.1326 -13.1009 -13.0642 -13.0397
   -12.8416 -12.6276 -12.5374 -12.4685 -12.3613 -12.2942  -7.2871  -7.2189
    -7.2162  -7.1671  -7.1094  -7.0819  -3.9851  -3.9424  -2.9984  -2.9555
    -2.2159  -2.1523  -2.0424  -1.9749  -1.7663  -1.3038  -1.2600  -1.1709
    -0.9340  -0.7797  -0.5723  -0.4389  -0.3513  -0.3148  -0.1834  -0.1400
    -0.0626   0.0238   0.1193   0.1740   0.3288   0.4160   0.4965   0.6116
     0.7942   0.8809   0.9971   1.1139   1.2302   1.2792   1.3750   1.4650
     1.5170   1.6213   1.6563   1.7883   1.8603   1.8850   1.9199   1.9524
     2.0121   2.0837   2.1896   2.2494   2.3462   2.3889   2.4554   2.5004
     2.5798   2.6941   2.7388   2.7922   2.8224   2.8974   2.9409   2.9935
     3.0318   3.0831   3.1090   3.1407   3.1713   3.2253   3.3628   3.4447
     3.5731   3.6167   3.7832   3.8564   6.9201   6.9583   7.1187   9.2719
     9.5639  10.2750  10.3972  10.7283  10.9287  11.4124  11.5343  11.8812
    12.0157  12.1521  12.3410  12.5068  12.7392  12.8237  12.9439  13.0603
    13.1004  13.1360  13.2371  13.2942  13.4154

     occupation numbers 
     1.0000   1.0000   1.0000   1.0000   1.0000   1.0000   1.0000   1.0000
     1.0000   1.0000   1.0000   1.0000   1.0000   1.0000   1.0000   1.0000
     1.0000   1.0000   1.0000   1.0000   1.0000   1.0000   1.0000   1.0000
     1.0000   1.0000   1.0000   1.0000   1.0000   1.0000   1.0000   1.0000
     1.0000   1.0000   1.0000   1.0000   1.0000   1.0000   1.0000   1.0000
     1.0000   1.0000   1.0000   1.0000   1.0000   1.0000   1.0000   1.0000
     1.0000   1.0000   1.0000   1.0000   1.0000   1.0000   1.0000   1.0000
     1.0000   1.0000   1.0000   1.0000   1.0000   1.0000   1.0000   1.0000
     1.0000   1.0000   1.0000   1.0000   1.0000   1.0000   1.0000   1.0000
     1.0000   1.0000   1.0000   1.0000   1.0000   1.0000   1.0000   1.0000
     1.0000   1.0000   1.0000   1.0000   1.0000   1.0000   1.0000   1.0000
     1.0000   1.0000   1.0000   1.0000   1.0000   1.0000   1.0000   1.0000
     1.0000   1.0000   1.0000   1.0000   1.0000   1.0000   1.0000   1.0000
     1.0000   1.0000   1.0000   1.0000   1.0000   1.0000   1.0000   1.0000
[...]
     atom   11 type  7   force =    -0.00237444   -0.01160921    0.01683415
     atom   12 type  7   force =     0.00237511   -0.01160916   -0.01683498
     atom   13 type  1   force =    -0.00144331   -0.00215677    0.00137973
     atom   14 type  1   force =     0.00144399   -0.00215675   -0.00138018
     atom   15 type  6   force =    -0.00004122   -0.00092477    0.00579111
     atom   16 type  6   force =     0.00004152   -0.00092482   -0.00579111
     atom   17 type  6   force =    -0.00005454   -0.00169269   -0.00808261
     atom   18 type  6   force =     0.00005489   -0.00169265    0.00808251
     atom   19 type  6   force =     0.00157513    0.00012433    0.00749450
     atom   20 type  6   force =    -0.00157483    0.00012434   -0.00749450
     atom   21 type  6   force =     0.00115709   -0.00001402   -0.00208777
     atom   22 type  6   force =    -0.00115684   -0.00001402    0.00208764
     atom   23 type  6   force =     0.00475167   -0.00195577   -0.00527519
     atom   24 type  6   force =    -0.00475164   -0.00195569    0.00527497
     atom   25 type  6   force =    -0.00339033    0.00015994   -0.00693619
     atom   26 type  6   force =     0.00339073    0.00015993    0.00693591
     atom   27 type  6   force =    -0.00133342    0.00190910    0.00792830
     atom   28 type  6   force =     0.00133342    0.00190926   -0.00792851
     atom   29 type  6   force =     0.00063041   -0.00156419   -0.00710525
     atom   30 type  6   force =    -0.00063041   -0.00156401    0.00710503
     atom   31 type  6   force =    -0.00193323   -0.00294162   -0.00681712
     atom   32 type  6   force =     0.00193355   -0.00294163    0.00681690
     atom   33 type  6   force =     0.00129130    0.00378176    0.00691171
     atom   34 type  6   force =    -0.00129113    0.00378185   -0.00691194
     atom   35 type  6   force =     0.00702288   -0.00868808   -0.00305061
     atom   36 type  6   force =    -0.00702256   -0.00868826    0.00305030
     atom   37 type  6   force =    -0.00026032   -0.00121922    0.01116763
     atom   38 type  6   force =     0.00026084   -0.00121920   -0.01116744
     atom   39 type  3   force =     0.00000000    0.00000000    0.00000000
     atom   40 type  3   force =     0.00000000    0.00000000    0.00000000
     atom   41 type  3   force =     0.00000000    0.00000000    0.00000000
     atom   42 type  3   force =     0.00000000    0.00000000    0.00000000
     atom   43 type  2   force =     0.00000469   -0.00981039   -0.00000487
     The Hubbard contrib.    to forces
     atom    1 type  4   force =     0.00000000    0.00000000    0.00000000
     atom    2 type  4   force =     0.00000000    0.00000000    0.00000000
     atom    3 type  5   force =     0.00000000    0.00000000    0.00000000
     atom    4 type  5   force =     0.00000000    0.00000000    0.00000000
     atom    5 type  5   force =     0.00000000    0.00000000    0.00000000
     atom    6 type  5   force =     0.00000000    0.00000000    0.00000000
     atom    7 type  7   force =     0.00000000    0.00000000    0.00000000
     atom    8 type  7   force =     0.00000000    0.00000000    0.00000000
     atom    9 type  7   force =     0.00000000    0.00000000    0.00000000
     atom   10 type  7   force =     0.00000000    0.00000000    0.00000000
     atom   11 type  7   force =     0.00000000    0.00000000    0.00000000
     atom   12 type  7   force =     0.00000000    0.00000000    0.00000000
     atom   13 type  1   force =     0.00000000    0.00000000    0.00000000
     atom   14 type  1   force =     0.00000000    0.00000000    0.00000000
     atom   15 type  6   force =     0.00000000    0.00000000    0.00000000
     atom   16 type  6   force =     0.00000000    0.00000000    0.00000000
     atom   17 type  6   force =     0.00000000    0.00000000    0.00000000
     atom   18 type  6   force =     0.00000000    0.00000000    0.00000000
     atom   19 type  6   force =     0.00000000    0.00000000    0.00000000
     atom   20 type  6   force =     0.00000000    0.00000000    0.00000000
     atom   21 type  6   force =     0.00000000    0.00000000    0.00000000
     atom   22 type  6   force =     0.00000000    0.00000000    0.00000000
     atom   23 type  6   force =     0.00000000    0.00000000    0.00000000
     atom   24 type  6   force =     0.00000000    0.00000000    0.00000000
     atom   25 type  6   force =     0.00000000    0.00000000    0.00000000
     atom   26 type  6   force =     0.00000000    0.00000000    0.00000000
     atom   27 type  6   force =     0.00000000    0.00000000    0.00000000
     atom   28 type  6   force =     0.00000000    0.00000000    0.00000000
     atom   29 type  6   force =     0.00000000    0.00000000    0.00000000
     atom   30 type  6   force =     0.00000000    0.00000000    0.00000000
     atom   31 type  6   force =     0.00000000    0.00000000    0.00000000
     atom   32 type  6   force =     0.00000000    0.00000000    0.00000000
     atom   33 type  6   force =     0.00000000    0.00000000    0.00000000
     atom   34 type  6   force =     0.00000000    0.00000000    0.00000000
     atom   35 type  6   force =     0.00000000    0.00000000    0.00000000
     atom   36 type  6   force =     0.00000000    0.00000000    0.00000000
     atom   37 type  6   force =     0.00000000    0.00000000    0.00000000
     atom   38 type  6   force =     0.00000000    0.00000000    0.00000000
     atom   39 type  3   force =     0.00000000    0.00000000    0.00000000
     atom   40 type  3   force =     0.00000000    0.00000000    0.00000000
     atom   41 type  3   force =     0.00000000    0.00000000    0.00000000
     atom   42 type  3   force =     0.00000000    0.00000000    0.00000000
     atom   43 type  2   force =     0.00000000    0.00000000    0.00000000
     The SCF correction term to forces
     atom    1 type  4   force =    -0.00000000    0.00001931   -0.00000000
     atom    2 type  4   force =    -0.00000000   -0.00002914    0.00000000
     atom    3 type  5   force =     0.00000000   -0.00001814   -0.00000000
     atom    4 type  5   force =    -0.00000000    0.00000248   -0.00000000
     atom    5 type  5   force =    -0.00000000    0.00003640    0.00000000
     atom    6 type  5   force =    -0.00000000   -0.00004552    0.00000000
     atom    7 type  7   force =    -0.00000451   -0.00000396   -0.00001528
     atom    8 type  7   force =     0.00000451   -0.00000396    0.00001528
     atom    9 type  7   force =    -0.00000173   -0.00000810    0.00000265
     atom   10 type  7   force =     0.00000173   -0.00000810   -0.00000265
     atom   11 type  7   force =    -0.00000310    0.00000524    0.00000703
     atom   12 type  7   force =     0.00000310    0.00000524   -0.00000703
     atom   13 type  1   force =    -0.00000081    0.00000292    0.00000507
     atom   14 type  1   force =     0.00000081    0.00000292   -0.00000507
     atom   15 type  6   force =     0.00001787   -0.00002583   -0.00002493
     atom   16 type  6   force =    -0.00001787   -0.00002583    0.00002493
     atom   17 type  6   force =    -0.00000280    0.00000656   -0.00001085
     atom   18 type  6   force =     0.00000280    0.00000656    0.00001085
     atom   19 type  6   force =    -0.00000253   -0.00001188   -0.00000788
     atom   20 type  6   force =     0.00000253   -0.00001188    0.00000788
     atom   21 type  6   force =     0.00002530    0.00001705    0.00001997
     atom   22 type  6   force =    -0.00002530    0.00001705   -0.00001997
     atom   23 type  6   force =     0.00000466   -0.00000948   -0.00000132
     atom   24 type  6   force =    -0.00000466   -0.00000948    0.00000132
     atom   25 type  6   force =     0.00000031   -0.00001359   -0.00001406
     atom   26 type  6   force =    -0.00000031   -0.00001359    0.00001406
     atom   27 type  6   force =     0.00001681    0.00000420    0.00000552
     atom   28 type  6   force =    -0.00001681    0.00000420   -0.00000552
     atom   29 type  6   force =     0.00001396    0.00001035    0.00000119
     atom   30 type  6   force =    -0.00001396    0.00001035   -0.00000119
     atom   31 type  6   force =    -0.00000522    0.00001283    0.00004754
     atom   32 type  6   force =     0.00000522    0.00001283   -0.00004754
     atom   33 type  6   force =     0.00000456   -0.00000878    0.00001842
     atom   34 type  6   force =    -0.00000456   -0.00000878   -0.00001842
     atom   35 type  6   force =     0.00002303    0.00005105   -0.00001252
     atom   36 type  6   force =    -0.00002303    0.00005104    0.00001252
     atom   37 type  6   force =    -0.00000107   -0.00002924    0.00001627
     atom   38 type  6   force =     0.00000107   -0.00002924   -0.00001627
     atom   39 type  3   force =     0.00000452   -0.00000658   -0.00000055
     atom   40 type  3   force =    -0.00000452   -0.00000658    0.00000055
     atom   41 type  3   force =    -0.00000066   -0.00000291   -0.00000191
     atom   42 type  3   force =     0.00000066   -0.00000291    0.00000191
     atom   43 type  2   force =     0.00000000    0.00013184   -0.00000000

     DFT-D3 dispersion contribution to forces:
     atom    1 type  4   force =     0.00000001    0.00057530   -0.00000001
     atom    2 type  4   force =    -0.00000000   -0.00066131    0.00000000
     atom    3 type  5   force =    -0.00000000   -0.00199719    0.00000000
     atom    4 type  5   force =     0.00000000    0.00080986   -0.00000000
     atom    5 type  5   force =     0.00000000   -0.00025081   -0.00000000
     atom    6 type  5   force =     0.00000000   -0.00082125   -0.00000000
     atom    7 type  7   force =     0.00000400    0.00011628   -0.00030351
     atom    8 type  7   force =    -0.00000400    0.00011628    0.00030351
     atom    9 type  7   force =     0.00047733   -0.00024136   -0.00066564
     atom   10 type  7   force =    -0.00047732   -0.00024136    0.00066564
     atom   11 type  7   force =     0.00063505   -0.00002884    0.00047355
     atom   12 type  7   force =    -0.00063505   -0.00002884   -0.00047355
     atom   13 type  1   force =     0.00006791   -0.00017038   -0.00068557
     atom   14 type  1   force =    -0.00006792   -0.00017038    0.00068557
     atom   15 type  6   force =     0.00007839   -0.00016877    0.00033384
     atom   16 type  6   force =    -0.00007839   -0.00016877   -0.00033384
     atom   17 type  6   force =     0.00023076    0.00010391   -0.00064626
     atom   18 type  6   force =    -0.00023076    0.00010391    0.00064626
     atom   19 type  6   force =    -0.00000777    0.00010666    0.00061639
     atom   20 type  6   force =     0.00000777    0.00010666   -0.00061639
     atom   21 type  6   force =     0.00004312   -0.00011462    0.00017989
     atom   22 type  6   force =    -0.00004312   -0.00011462   -0.00017989
     atom   23 type  6   force =    -0.00019227    0.00093334    0.00025986
     atom   24 type  6   force =     0.00019227    0.00093334   -0.00025986
     atom   25 type  6   force =     0.00090955    0.00011478    0.00015420
     atom   26 type  6   force =    -0.00090955    0.00011478   -0.00015419
     atom   27 type  6   force =     0.00030569   -0.00033161   -0.00012652
     atom   28 type  6   force =    -0.00030569   -0.00033161    0.00012652
     atom   29 type  6   force =    -0.00017973    0.00026604    0.00023725
     atom   30 type  6   force =     0.00017972    0.00026603   -0.00023725
     atom   31 type  6   force =     0.00089669   -0.00048774    0.00042182
     atom   32 type  6   force =    -0.00089670   -0.00048774   -0.00042182
     atom   33 type  6   force =     0.00060943   -0.00054664   -0.00031468
     atom   34 type  6   force =    -0.00060943   -0.00054664    0.00031468
     atom   35 type  6   force =     0.00008940    0.00035976   -0.00049558
     atom   36 type  6   force =    -0.00008940    0.00035976    0.00049558
     atom   37 type  6   force =     0.00000434    0.00014253   -0.00059383
     atom   38 type  6   force =    -0.00000434    0.00014253    0.00059382
     atom   39 type  3   force =    -0.00040245    0.00052297   -0.00003598
     atom   40 type  3   force =     0.00040245    0.00052297    0.00003598
     atom   41 type  3   force =    -0.00012456   -0.00007472   -0.00040884
     atom   42 type  3   force =     0.00012456   -0.00007472    0.00040884
     atom   43 type  2   force =    -0.00000000    0.00134218   -0.00000000

     Total force =     0.003566     Total SCF correction =     0.000217

     DFT-D3 dispersion Force =     0.005020
     Energy error            =      2.9E-05 Ry
     Gradient error          =      9.8E-04 Ry/Bohr

     bfgs converged in  46 scf cycles and  44 bfgs steps
     (criteria: energy <  1.0E-04 Ry, force <  1.0E-03 Ry/Bohr)

     End of BFGS Geometry Optimization

     Final energy             =   -2344.3746473147 Ry

     File ./temp/phl-ti1-ti2-v3.bfgs deleted, as requested
Begin final coordinates

ATOMIC_POSITIONS (crystal)
K                0.0000000000        0.4958014702        0.0000000000
K                0.5000001190        0.0042149391        0.0000000000
Mg               0.0000001800       -0.0235446881        0.4999998810
Mg               0.5000002980        0.5053622078        0.4999998810
Mg               0.5000002980        0.8213046568        0.4999998810
Mg               0.5000002980        0.1602943111        0.4999998810
Si               0.0770322355        0.1631271530        0.2252867976
Si               0.9229683755        0.1631271530        0.7747129794
Si               0.9351052269        0.8308982093        0.7692233933
Si               0.0648953691        0.8308982093        0.2307763377
Si               0.5549924926        0.6644754034        0.2259282218
Si               0.4450080734        0.6644754034        0.7740715242
Al               0.4166633063        0.3315372388        0.7754108753
Al               0.5833372607        0.3315372388        0.2245888867
O                0.1192798496        0.1705586418        0.3879971660
O                0.8807207164        0.1705586418        0.6120025660
O                0.8615245215        0.8330297560        0.6139700078
O                0.1384760895        0.8330297560        0.3860297242
O                0.5992181361        0.6604269957        0.3825162698
O                0.4007824599        0.6604269957        0.6174834912
O                0.3477335524        0.3286714867        0.6001318855
O                0.6522670736        0.3286714867        0.3998678465
O                0.3400011750        0.2042453534        0.1759175475
O                0.6599993620        0.2042453534        0.8240821395
O               -0.0000550922        0.9963569535        0.1730230924
O                1.0000556882        0.9963569535        0.8269766546
O                0.6960960743        0.7678170813        0.8364206540
O                0.3039044927        0.7678170813        0.1635791080
O                0.8054940547        0.7365339259        0.1726807541
O                0.1945065563        0.7365339259        0.8273190219
O                0.5057910082        0.5046308524        0.1612202282
O                0.4942095288        0.5046308524        0.8387795478
O                0.1548522816        0.2669718600        0.8396781085
O                0.8451483444        0.2669718600        0.1603216225
O                0.1228193228        0.4818410083        0.3947068286
O                0.8771813032        0.4818410083        0.6052929334
O                0.6358761671        0.9970057253        0.4014181756
O                0.3641244889        0.9970057253        0.5985815864
H                0.0335379462        0.5752051807        0.3896873003
H                0.9664627168        0.5752051807        0.6103124017
H                0.6017039854        0.0042066191        0.3074174316
H                0.3982966106        0.0042066191        0.6925823604
Ti               0.0000001800        0.3361939787        0.4999998810
End final coordinates



     Writing all to output data dir ./temp/phl-ti1-ti2-v3.save/ :
     XML data file, charge density, pseudopotentials, collected wavefunctions

     init_run     :    144.11s CPU    145.01s WALL (       1 calls)
     electrons    : 108512.96s CPU 109089.03s WALL (      23 calls)
     update_pot   :     58.75s CPU     58.92s WALL (      22 calls)
     forces       :   2456.83s CPU   2467.29s WALL (      23 calls)
     force_dftd3  :     87.40s CPU     87.48s WALL (      23 calls)

     Called by init_run:
     wfcinit      :    136.47s CPU    136.96s WALL (       1 calls)
     wfcinit:atom :      0.28s CPU      0.28s WALL (      40 calls)
     wfcinit:wfcr :    133.84s CPU    134.32s WALL (      40 calls)
     potinit      :      2.72s CPU      2.76s WALL (       1 calls)
     hinit0       :      1.18s CPU      1.19s WALL (       1 calls)

     Called by electrons:
     c_bands      :  99647.94s CPU 100041.43s WALL (     189 calls)
     sum_band     :   7696.80s CPU   7813.22s WALL (     189 calls)
     v_of_rho     :     82.44s CPU     84.35s WALL (     202 calls)
     v_h          :      2.65s CPU      2.73s WALL (     202 calls)
     v_xc         :     88.67s CPU     90.94s WALL (     225 calls)
     newd         :    708.92s CPU    780.21s WALL (     202 calls)
     PAW_pot      :    478.55s CPU    478.62s WALL (     224 calls)
     mix_rho      :      9.65s CPU      9.94s WALL (     189 calls)
     energy_dftd3 :     67.08s CPU     67.09s WALL (      23 calls)

     Called by c_bands:
     init_us_2    :    285.54s CPU    285.98s WALL (   16960 calls)
     cegterg      :  99077.12s CPU  99467.07s WALL (    7600 calls)

     Called by sum_band:
     sum_band:wei :      0.09s CPU      0.09s WALL (     189 calls)
     sum_band:loo :   6339.89s CPU   6381.76s WALL (     189 calls)
     sum_band:buf :     32.30s CPU     32.41s WALL (    7560 calls)
     sum_band:ini :    126.42s CPU    126.50s WALL (    7560 calls)
     sum_band:cal :   4835.90s CPU   4838.17s WALL (    8440 calls)
     sum_band:bec :     13.45s CPU     13.48s WALL (    8440 calls)
     addusdens    :   1336.57s CPU   1410.57s WALL (     189 calls)
                                        0.00s GPU  (     189 calls)
     addusd:skk   :      4.37s CPU      6.52s WALL (    1323 calls)
                                        0.00s GPU  (    1323 calls)

     Called by *egterg:
     cdiaghg      :   4223.05s CPU   4223.47s WALL (   56827 calls)
     cegterg:over :  12485.79s CPU  12495.81s WALL (   50547 calls)
     cegterg:upda :   7321.91s CPU   7339.95s WALL (   50547 calls)
     cegterg:last :  19500.10s CPU  19500.76s WALL (   22440 calls)
     h_psi        :  37655.41s CPU  37955.76s WALL (   58187 calls)
     s_psi        :  14434.54s CPU  14437.74s WALL (   58187 calls)
     g_psi        :     81.27s CPU     81.51s WALL (   50547 calls)

     Called by h_psi:
     h_psi:calbec :  14242.57s CPU  14252.63s WALL (   58187 calls)
     vloc_psi     :   8881.91s CPU   9146.94s WALL (   58187 calls)
     add_vuspsi   :  14456.27s CPU  14457.41s WALL (   58187 calls)

     General routines
     calbec       :  21184.37s CPU  21197.69s WALL (   70307 calls)
     fft          :     42.11s CPU     44.83s WALL (    5391 calls)
     ffts         :      1.23s CPU      1.28s WALL (     782 calls)
     fftw         :   7268.37s CPU   7469.55s WALL ( 8557756 calls)
     interpolate  :      5.09s CPU      5.31s WALL (     404 calls)

     Parallel routines

     PAW routines
     PAW_pot      :    478.55s CPU    478.62s WALL (     224 calls)
     PAW_symme    :      0.11s CPU      0.12s WALL (     412 calls)

     PWSCF        :   1d 7h 3m CPU   1d 7h13m WALL


   This run was terminated on:  12:57:51  25Mar2025            

=------------------------------------------------------------------------------=
   JOB DONE.
=------------------------------------------------------------------------------=

