 INFO
nunit      1    1    1
unit   cell
celltype   primcell
shape   parapipedal
 END_INFO
 DIM-GROUP
           3           1
 PRIMVEC
    5.3323419860    0.0000000000    0.0000000000
    0.0000000000    9.2564604440    0.0000000000
   -1.8924748330    0.0000000000   10.3237340250
 CONVVEC
    5.3323419860    0.0000000000    0.0000000000
    0.0000000000    9.2564604440    0.0000000000
   -1.8924748330    0.0000000000   10.3237340250
 PRIMCOORD
          44           1
 19      0.0000000000     4.5281750840     0.0000000000     0.0000000000    -0.0000221400     0.0000000000
 19      2.6661709930     0.0598628970     0.0000000000     0.0000000000    -0.0000085400     0.0000000000
 12     -0.9462374160     0.0580426460     5.1618670130     0.0000000000    -0.0000576000     0.0000000000
 12     -0.9462374160     6.1757729790     5.1618670130     0.0000000000    -0.0000286600     0.0000000000
 12      1.7199335770     4.5893295970     5.1618670130     0.0000000000    -0.0000030200     0.0000000000
 12      1.7199335770     7.7334440930     5.1618670130     0.0000000000    -0.0000698200     0.0000000000
 12      1.7199335770     1.5780825120     5.1618670130     0.0000000000     0.0000866500     0.0000000000
 14      0.0496080350     1.5115625860     2.3403907950     0.0000096000     0.0000428300     0.0000002100
 14      3.3902590440     1.5115625860     7.9833432300    -0.0000096000     0.0000428300    -0.0000002100
 14      3.5332740930     7.7215077060     7.9053139300    -0.0000099300    -0.0000050900     0.0000210200
 14     -0.0934123990     7.7215077060     2.4184199410     0.0000099300    -0.0000050900    -0.0000210200
 14      2.5724427680     6.1712407720     2.4034741630     0.0000002500    -0.0000269100     0.0000165200
 14      0.8674242020     6.1712407720     7.9202600170    -0.0000002500    -0.0000269100    -0.0000165200
 13      0.7222383380     3.0609297900     7.9520027980     0.0000049300    -0.0000118000     0.0000527600
 13      2.7176233850     3.0609297900     2.3717313820    -0.0000049300    -0.0000118000    -0.0000527600
  8     -0.0021568710     1.4607663710     3.9699997000    -0.0000429000     0.0000018600    -0.0000275500
  8      3.4420185680     1.4607663710     6.3537346240     0.0000429000     0.0000018600     0.0000275500
  8      3.5125981340     7.7251316660     6.2841535650     0.0000414900    -0.0000160900     0.0000338800
  8     -0.0727363590     7.7251316660     4.0395807690    -0.0000414900    -0.0000160900    -0.0000338800
  8      2.6022151120     6.2001684810     4.0325129850     0.0000184700    -0.0000086100     0.0000039400
  8      0.8376520970     6.2001684810     6.2912207400    -0.0000184700    -0.0000086100    -0.0000039400
  8      0.7828192850     3.0838655050     6.2041207960     0.0000330800     0.0000031500     0.0000589100
  8      2.6570424670     3.0838655050     4.1196132290    -0.0000330800     0.0000031500    -0.0000589100
  8      1.5259962170     1.8982189770     1.7610707300    -0.0000073300     0.0000347600    -0.0000356900
  8      1.9138709080     1.8982189770     8.5626634500     0.0000073300     0.0000347600     0.0000356900
  8      5.0350625940     9.2229490490     1.7709191440     0.0000045400     0.0000347300     0.0000692700
  8     -1.5952008320     9.2229490490     8.5528148810    -0.0000045400     0.0000347300    -0.0000692700
  8      2.1064769800     7.1280535200     8.5051023670     0.0000008300    -0.0000327000     0.0000376300
  8      1.3333901450     7.1280535200     1.8186318130    -0.0000008300    -0.0000327000    -0.0000376300
  8      3.9920297640     6.8187445730     1.8072751820    -0.0000380300     0.0000418200     0.0000057800
  8     -0.5521624790     6.8187445730     8.5164589980     0.0000380300     0.0000418200    -0.0000057800
  8      2.3843774950     4.6969950280     1.7537506360    -0.0000265300    -0.0000298600     0.0000052200
  8      1.0554843840     4.6969950280     8.5699835340     0.0000265300    -0.0000298600    -0.0000052200
  8     -0.8379872970     2.5387966750     8.6032648410     0.0000035900     0.0000236100    -0.0000213100
  8      4.2778543990     2.5387966750     1.7204690290    -0.0000035900     0.0000236100     0.0000213100
  8     -0.0187530240     4.7346644760     4.0713087140    -0.0000019300     0.0000311800    -0.0000580900
  8      3.4586200970     4.7346644760     6.2524253110     0.0000019300     0.0000311800     0.0000580900
  8      2.6254228640     9.2526717630     4.1311779180     0.0000086800    -0.0000113300    -0.0000339400
  8      0.8144423720     9.2526717630     6.1925665650    -0.0000086800    -0.0000113300     0.0000339400
  1     -0.0108518890     4.5618073440     3.1206566990     0.0000098300    -0.0000354300    -0.0000210000
  1      3.4507138380     4.5618073440     7.2030773260    -0.0000098300    -0.0000354300     0.0000210000
  1      2.5951188900     0.1192700080     3.1729428760    -0.0000369500    -0.0000245600    -0.0000084200
  1      0.8447428620     0.1192700080     7.1507911490     0.0000369500    -0.0000245600     0.0000084200
 26     -0.9462374160     3.1046037670     5.1618670130     0.0000000000     0.0000799800     0.0000000000
 CONVCOORD
          44           1
 19      0.0000000000     4.5281750840     0.0000000000
 19      2.6661709930     0.0598628970     0.0000000000
 12     -0.9462374160     0.0580426460     5.1618670130
 12     -0.9462374160     6.1757729790     5.1618670130
 12      1.7199335770     4.5893295970     5.1618670130
 12      1.7199335770     7.7334440930     5.1618670130
 12      1.7199335770     1.5780825120     5.1618670130
 14      0.0496080350     1.5115625860     2.3403907950
 14      3.3902590440     1.5115625860     7.9833432300
 14      3.5332740930     7.7215077060     7.9053139300
 14     -0.0934123990     7.7215077060     2.4184199410
 14      2.5724427680     6.1712407720     2.4034741630
 14      0.8674242020     6.1712407720     7.9202600170
 13      0.7222383380     3.0609297900     7.9520027980
 13      2.7176233850     3.0609297900     2.3717313820
  8     -0.0021568710     1.4607663710     3.9699997000
  8      3.4420185680     1.4607663710     6.3537346240
  8      3.5125981340     7.7251316660     6.2841535650
  8     -0.0727363590     7.7251316660     4.0395807690
  8      2.6022151120     6.2001684810     4.0325129850
  8      0.8376520970     6.2001684810     6.2912207400
  8      0.7828192850     3.0838655050     6.2041207960
  8      2.6570424670     3.0838655050     4.1196132290
  8      1.5259962170     1.8982189770     1.7610707300
  8      1.9138709080     1.8982189770     8.5626634500
  8     -0.2972793920     9.2229490490     1.7709191440
  8     -1.5952008320     9.2229490490     8.5528148810
  8      2.1064769800     7.1280535200     8.5051023670
  8      1.3333901450     7.1280535200     1.8186318130
  8      3.9920297640     6.8187445730     1.8072751820
  8     -0.5521624790     6.8187445730     8.5164589980
  8      2.3843774950     4.6969950280     1.7537506360
  8      1.0554843840     4.6969950280     8.5699835340
  8     -0.8379872970     2.5387966750     8.6032648410
  8      4.2778543990     2.5387966750     1.7204690290
  8     -0.0187530240     4.7346644760     4.0713087140
  8      3.4586200970     4.7346644760     6.2524253110
  8      2.6254228640     9.2526717630     4.1311779180
  8      0.8144423720     9.2526717630     6.1925665650
  1     -0.0108518890     4.5618073440     3.1206566990
  1      3.4507138380     4.5618073440     7.2030773260
  1      2.5951188900     0.1192700080     3.1729428760
  1      0.8447428620     0.1192700080     7.1507911490
 26     -0.9462374160     3.1046037670     5.1618670130
 RECIP-PRIMVEC
    0.1875348585   -0.0000000000    0.0343775808

    0.0000000000    0.1080326553   -0.0000000000

    0.0000000000    0.0000000000    0.0968641770

 RECIP-CONVVEC
    0.1875348585   -0.0000000000    0.0343775808

    0.0000000000    0.1080326553   -0.0000000000

    0.0000000000    0.0000000000    0.0968641770

 WIGNER-SEITZ-PRIMCELL
           4
 -0.2666171E+01  0.4628230E+01 -0.4846581E+01  -0.3161138E+00  0.0000000E+00 -0.9487213E+00
 -0.7736962E+00  0.4628230E+01 -0.5477153E+01  -0.3161138E+00  0.0000000E+00 -0.9487213E+00
 -0.7736962E+00 -0.4628230E+01 -0.5477153E+01  -0.3161138E+00  0.0000000E+00 -0.9487213E+00
 -0.2666171E+01 -0.4628230E+01 -0.4846581E+01  -0.3161138E+00  0.0000000E+00 -0.9487213E+00
           4
 -0.2666171E+01  0.4628230E+01 -0.4846581E+01  -0.1000000E+01 -0.4797614E-16  0.4396024E-32
 -0.2666171E+01 -0.4628230E+01 -0.4846581E+01  -0.1000000E+01 -0.4797614E-16  0.4396024E-32
 -0.2666171E+01 -0.4628230E+01  0.4846581E+01  -0.1000000E+01 -0.4797614E-16  0.4396024E-32
 -0.2666171E+01  0.4628230E+01  0.4846581E+01  -0.1000000E+01 -0.4797614E-16  0.4396024E-32
           6
  0.7736962E+00 -0.4628230E+01  0.5477153E+01   0.0000000E+00 -0.1000000E+01  0.1065499E-15
 -0.2666171E+01 -0.4628230E+01  0.4846581E+01   0.0000000E+00 -0.1000000E+01  0.1065499E-15
 -0.2666171E+01 -0.4628230E+01 -0.4846581E+01   0.0000000E+00 -0.1000000E+01  0.1065499E-15
 -0.7736962E+00 -0.4628230E+01 -0.5477153E+01   0.0000000E+00 -0.1000000E+01  0.1065499E-15
  0.2666171E+01 -0.4628230E+01 -0.4846581E+01   0.0000000E+00 -0.1000000E+01  0.1065499E-15
  0.2666171E+01 -0.4628230E+01  0.4846581E+01   0.0000000E+00 -0.1000000E+01  0.1065499E-15
           4
  0.2666171E+01  0.4628230E+01 -0.4846581E+01   0.1803085E+00  0.0000000E+00 -0.9836101E+00
  0.2666171E+01 -0.4628230E+01 -0.4846581E+01   0.1803085E+00  0.0000000E+00 -0.9836101E+00
 -0.7736962E+00 -0.4628230E+01 -0.5477153E+01   0.1803085E+00  0.0000000E+00 -0.9836101E+00
 -0.7736962E+00  0.4628230E+01 -0.5477153E+01   0.1803085E+00  0.0000000E+00 -0.9836101E+00
           4
 -0.2666171E+01  0.4628230E+01  0.4846581E+01  -0.1803085E+00 -0.3292440E-15  0.9836101E+00
 -0.2666171E+01 -0.4628230E+01  0.4846581E+01  -0.1803085E+00 -0.3292440E-15  0.9836101E+00
  0.7736962E+00 -0.4628230E+01  0.5477153E+01  -0.1803085E+00 -0.3292440E-15  0.9836101E+00
  0.7736962E+00  0.4628230E+01  0.5477153E+01  -0.1803085E+00 -0.3292440E-15  0.9836101E+00
           6
  0.2666171E+01  0.4628230E+01 -0.4846581E+01   0.0000000E+00  0.1000000E+01  0.5282959E-15
 -0.7736962E+00  0.4628230E+01 -0.5477153E+01   0.0000000E+00  0.1000000E+01  0.5282959E-15
 -0.2666171E+01  0.4628230E+01 -0.4846581E+01   0.0000000E+00  0.1000000E+01  0.5282959E-15
 -0.2666171E+01  0.4628230E+01  0.4846581E+01   0.0000000E+00  0.1000000E+01  0.5282959E-15
  0.7736962E+00  0.4628230E+01  0.5477153E+01   0.0000000E+00  0.1000000E+01  0.5282959E-15
  0.2666171E+01  0.4628230E+01  0.4846581E+01   0.0000000E+00  0.1000000E+01  0.5282959E-15
           4
  0.2666171E+01  0.4628230E+01  0.4846581E+01   0.1000000E+01  0.4797614E-16  0.8792048E-32
  0.2666171E+01 -0.4628230E+01  0.4846581E+01   0.1000000E+01  0.4797614E-16  0.8792048E-32
  0.2666171E+01 -0.4628230E+01 -0.4846581E+01   0.1000000E+01  0.4797614E-16  0.8792048E-32
  0.2666171E+01  0.4628230E+01 -0.4846581E+01   0.1000000E+01  0.4797614E-16  0.8792048E-32
           4
  0.2666171E+01 -0.4628230E+01  0.4846581E+01   0.3161138E+00 -0.0000000E+00  0.9487213E+00
  0.2666171E+01  0.4628230E+01  0.4846581E+01   0.3161138E+00 -0.0000000E+00  0.9487213E+00
  0.7736962E+00  0.4628230E+01  0.5477153E+01   0.3161138E+00 -0.0000000E+00  0.9487213E+00
  0.7736962E+00 -0.4628230E+01  0.5477153E+01   0.3161138E+00 -0.0000000E+00  0.9487213E+00
 WIGNER-SEITZ-PRIMCELL_END
 WIGNER-SEITZ-CONVCELL
           4
 -0.2666171E+01  0.4628230E+01 -0.4846581E+01  -0.3161138E+00  0.0000000E+00 -0.9487213E+00
 -0.7736962E+00  0.4628230E+01 -0.5477153E+01  -0.3161138E+00  0.0000000E+00 -0.9487213E+00
 -0.7736962E+00 -0.4628230E+01 -0.5477153E+01  -0.3161138E+00  0.0000000E+00 -0.9487213E+00
 -0.2666171E+01 -0.4628230E+01 -0.4846581E+01  -0.3161138E+00  0.0000000E+00 -0.9487213E+00
           4
 -0.2666171E+01  0.4628230E+01 -0.4846581E+01  -0.1000000E+01 -0.4797614E-16  0.4396024E-32
 -0.2666171E+01 -0.4628230E+01 -0.4846581E+01  -0.1000000E+01 -0.4797614E-16  0.4396024E-32
 -0.2666171E+01 -0.4628230E+01  0.4846581E+01  -0.1000000E+01 -0.4797614E-16  0.4396024E-32
 -0.2666171E+01  0.4628230E+01  0.4846581E+01  -0.1000000E+01 -0.4797614E-16  0.4396024E-32
           6
  0.7736962E+00 -0.4628230E+01  0.5477153E+01   0.0000000E+00 -0.1000000E+01  0.1065499E-15
 -0.2666171E+01 -0.4628230E+01  0.4846581E+01   0.0000000E+00 -0.1000000E+01  0.1065499E-15
 -0.2666171E+01 -0.4628230E+01 -0.4846581E+01   0.0000000E+00 -0.1000000E+01  0.1065499E-15
 -0.7736962E+00 -0.4628230E+01 -0.5477153E+01   0.0000000E+00 -0.1000000E+01  0.1065499E-15
  0.2666171E+01 -0.4628230E+01 -0.4846581E+01   0.0000000E+00 -0.1000000E+01  0.1065499E-15
  0.2666171E+01 -0.4628230E+01  0.4846581E+01   0.0000000E+00 -0.1000000E+01  0.1065499E-15
           4
  0.2666171E+01  0.4628230E+01 -0.4846581E+01   0.1803085E+00  0.0000000E+00 -0.9836101E+00
  0.2666171E+01 -0.4628230E+01 -0.4846581E+01   0.1803085E+00  0.0000000E+00 -0.9836101E+00
 -0.7736962E+00 -0.4628230E+01 -0.5477153E+01   0.1803085E+00  0.0000000E+00 -0.9836101E+00
 -0.7736962E+00  0.4628230E+01 -0.5477153E+01   0.1803085E+00  0.0000000E+00 -0.9836101E+00
           4
 -0.2666171E+01  0.4628230E+01  0.4846581E+01  -0.1803085E+00 -0.3292440E-15  0.9836101E+00
 -0.2666171E+01 -0.4628230E+01  0.4846581E+01  -0.1803085E+00 -0.3292440E-15  0.9836101E+00
  0.7736962E+00 -0.4628230E+01  0.5477153E+01  -0.1803085E+00 -0.3292440E-15  0.9836101E+00
  0.7736962E+00  0.4628230E+01  0.5477153E+01  -0.1803085E+00 -0.3292440E-15  0.9836101E+00
           6
  0.2666171E+01  0.4628230E+01 -0.4846581E+01   0.0000000E+00  0.1000000E+01  0.5282959E-15
 -0.7736962E+00  0.4628230E+01 -0.5477153E+01   0.0000000E+00  0.1000000E+01  0.5282959E-15
 -0.2666171E+01  0.4628230E+01 -0.4846581E+01   0.0000000E+00  0.1000000E+01  0.5282959E-15
 -0.2666171E+01  0.4628230E+01  0.4846581E+01   0.0000000E+00  0.1000000E+01  0.5282959E-15
  0.7736962E+00  0.4628230E+01  0.5477153E+01   0.0000000E+00  0.1000000E+01  0.5282959E-15
  0.2666171E+01  0.4628230E+01  0.4846581E+01   0.0000000E+00  0.1000000E+01  0.5282959E-15
           4
  0.2666171E+01  0.4628230E+01  0.4846581E+01   0.1000000E+01  0.4797614E-16  0.8792048E-32
  0.2666171E+01 -0.4628230E+01  0.4846581E+01   0.1000000E+01  0.4797614E-16  0.8792048E-32
  0.2666171E+01 -0.4628230E+01 -0.4846581E+01   0.1000000E+01  0.4797614E-16  0.8792048E-32
  0.2666171E+01  0.4628230E+01 -0.4846581E+01   0.1000000E+01  0.4797614E-16  0.8792048E-32
           4
  0.2666171E+01 -0.4628230E+01  0.4846581E+01   0.3161138E+00 -0.0000000E+00  0.9487213E+00
  0.2666171E+01  0.4628230E+01  0.4846581E+01   0.3161138E+00 -0.0000000E+00  0.9487213E+00
  0.7736962E+00  0.4628230E+01  0.5477153E+01   0.3161138E+00 -0.0000000E+00  0.9487213E+00
  0.7736962E+00 -0.4628230E+01  0.5477153E+01   0.3161138E+00 -0.0000000E+00  0.9487213E+00
 WIGNER-SEITZ-CONVCELL_END
 BRILLOUIN-ZONE-PRIMCELL
           4
  0.9949473E-01 -0.5401633E-01 -0.1405451E-01   0.9487213E+00  0.0000000E+00 -0.3161138E+00
  0.8804013E-01 -0.5401633E-01 -0.4843209E-01   0.9487213E+00  0.0000000E+00 -0.3161138E+00
  0.8804013E-01  0.5401633E-01 -0.4843209E-01   0.9487213E+00  0.0000000E+00 -0.3161138E+00
  0.9949473E-01  0.5401633E-01 -0.1405451E-01   0.9487213E+00  0.0000000E+00 -0.3161138E+00
           4
 -0.8804013E-01  0.5401633E-01 -0.4843209E-01   0.0000000E+00  0.9119364E-16 -0.1000000E+01
  0.8804013E-01  0.5401633E-01 -0.4843209E-01   0.0000000E+00  0.9119364E-16 -0.1000000E+01
  0.8804013E-01 -0.5401633E-01 -0.4843209E-01   0.0000000E+00  0.9119364E-16 -0.1000000E+01
 -0.8804013E-01 -0.5401633E-01 -0.4843209E-01   0.0000000E+00  0.9119364E-16 -0.1000000E+01
           6
  0.8804013E-01 -0.5401633E-01  0.4843209E-01  -0.0000000E+00 -0.1000000E+01  0.0000000E+00
 -0.8804013E-01 -0.5401633E-01  0.4843209E-01  -0.0000000E+00 -0.1000000E+01  0.0000000E+00
 -0.9949473E-01 -0.5401633E-01  0.1405451E-01  -0.0000000E+00 -0.1000000E+01  0.0000000E+00
 -0.8804013E-01 -0.5401633E-01 -0.4843209E-01  -0.0000000E+00 -0.1000000E+01  0.0000000E+00
  0.8804013E-01 -0.5401633E-01 -0.4843209E-01  -0.0000000E+00 -0.1000000E+01  0.0000000E+00
  0.9949473E-01 -0.5401633E-01 -0.1405451E-01  -0.0000000E+00 -0.1000000E+01  0.0000000E+00
           4
  0.8804013E-01  0.5401633E-01  0.4843209E-01   0.9836101E+00 -0.7108924E-16  0.1803085E+00
  0.8804013E-01 -0.5401633E-01  0.4843209E-01   0.9836101E+00 -0.7108924E-16  0.1803085E+00
  0.9949473E-01 -0.5401633E-01 -0.1405451E-01   0.9836101E+00 -0.7108924E-16  0.1803085E+00
  0.9949473E-01  0.5401633E-01 -0.1405451E-01   0.9836101E+00 -0.7108924E-16  0.1803085E+00
           4
 -0.9949473E-01  0.5401633E-01  0.1405451E-01  -0.9836101E+00  0.4739282E-16 -0.1803085E+00
 -0.8804013E-01  0.5401633E-01 -0.4843209E-01  -0.9836101E+00  0.4739282E-16 -0.1803085E+00
 -0.8804013E-01 -0.5401633E-01 -0.4843209E-01  -0.9836101E+00  0.4739282E-16 -0.1803085E+00
 -0.9949473E-01 -0.5401633E-01  0.1405451E-01  -0.9836101E+00  0.4739282E-16 -0.1803085E+00
           6
  0.9949473E-01  0.5401633E-01 -0.1405451E-01  -0.0000000E+00  0.1000000E+01 -0.2865790E-15
  0.8804013E-01  0.5401633E-01 -0.4843209E-01  -0.0000000E+00  0.1000000E+01 -0.2865790E-15
 -0.8804013E-01  0.5401633E-01 -0.4843209E-01  -0.0000000E+00  0.1000000E+01 -0.2865790E-15
 -0.9949473E-01  0.5401633E-01  0.1405451E-01  -0.0000000E+00  0.1000000E+01 -0.2865790E-15
 -0.8804013E-01  0.5401633E-01  0.4843209E-01  -0.0000000E+00  0.1000000E+01 -0.2865790E-15
  0.8804013E-01  0.5401633E-01  0.4843209E-01  -0.0000000E+00  0.1000000E+01 -0.2865790E-15
           4
 -0.8804013E-01 -0.5401633E-01  0.4843209E-01  -0.0000000E+00 -0.1470537E-15  0.1000000E+01
  0.8804013E-01 -0.5401633E-01  0.4843209E-01  -0.0000000E+00 -0.1470537E-15  0.1000000E+01
  0.8804013E-01  0.5401633E-01  0.4843209E-01  -0.0000000E+00 -0.1470537E-15  0.1000000E+01
 -0.8804013E-01  0.5401633E-01  0.4843209E-01  -0.0000000E+00 -0.1470537E-15  0.1000000E+01
           4
 -0.8804013E-01  0.5401633E-01  0.4843209E-01  -0.9487213E+00  0.2063167E-15  0.3161138E+00
 -0.9949473E-01  0.5401633E-01  0.1405451E-01  -0.9487213E+00  0.2063167E-15  0.3161138E+00
 -0.9949473E-01 -0.5401633E-01  0.1405451E-01  -0.9487213E+00  0.2063167E-15  0.3161138E+00
 -0.8804013E-01 -0.5401633E-01  0.4843209E-01  -0.9487213E+00  0.2063167E-15  0.3161138E+00
 BRILLOUIN-ZONE-PRIMCELL_END
 BRILLOUIN-ZONE-CONVCELL
           4
  0.9949473E-01 -0.5401633E-01 -0.1405451E-01   0.9487213E+00  0.0000000E+00 -0.3161138E+00
  0.8804013E-01 -0.5401633E-01 -0.4843209E-01   0.9487213E+00  0.0000000E+00 -0.3161138E+00
  0.8804013E-01  0.5401633E-01 -0.4843209E-01   0.9487213E+00  0.0000000E+00 -0.3161138E+00
  0.9949473E-01  0.5401633E-01 -0.1405451E-01   0.9487213E+00  0.0000000E+00 -0.3161138E+00
           4
 -0.8804013E-01  0.5401633E-01 -0.4843209E-01   0.0000000E+00  0.9119364E-16 -0.1000000E+01
  0.8804013E-01  0.5401633E-01 -0.4843209E-01   0.0000000E+00  0.9119364E-16 -0.1000000E+01
  0.8804013E-01 -0.5401633E-01 -0.4843209E-01   0.0000000E+00  0.9119364E-16 -0.1000000E+01
 -0.8804013E-01 -0.5401633E-01 -0.4843209E-01   0.0000000E+00  0.9119364E-16 -0.1000000E+01
           6
  0.8804013E-01 -0.5401633E-01  0.4843209E-01  -0.0000000E+00 -0.1000000E+01  0.0000000E+00
 -0.8804013E-01 -0.5401633E-01  0.4843209E-01  -0.0000000E+00 -0.1000000E+01  0.0000000E+00
 -0.9949473E-01 -0.5401633E-01  0.1405451E-01  -0.0000000E+00 -0.1000000E+01  0.0000000E+00
 -0.8804013E-01 -0.5401633E-01 -0.4843209E-01  -0.0000000E+00 -0.1000000E+01  0.0000000E+00
  0.8804013E-01 -0.5401633E-01 -0.4843209E-01  -0.0000000E+00 -0.1000000E+01  0.0000000E+00
  0.9949473E-01 -0.5401633E-01 -0.1405451E-01  -0.0000000E+00 -0.1000000E+01  0.0000000E+00
           4
  0.8804013E-01  0.5401633E-01  0.4843209E-01   0.9836101E+00 -0.7108924E-16  0.1803085E+00
  0.8804013E-01 -0.5401633E-01  0.4843209E-01   0.9836101E+00 -0.7108924E-16  0.1803085E+00
  0.9949473E-01 -0.5401633E-01 -0.1405451E-01   0.9836101E+00 -0.7108924E-16  0.1803085E+00
  0.9949473E-01  0.5401633E-01 -0.1405451E-01   0.9836101E+00 -0.7108924E-16  0.1803085E+00
           4
 -0.9949473E-01  0.5401633E-01  0.1405451E-01  -0.9836101E+00  0.4739282E-16 -0.1803085E+00
 -0.8804013E-01  0.5401633E-01 -0.4843209E-01  -0.9836101E+00  0.4739282E-16 -0.1803085E+00
 -0.8804013E-01 -0.5401633E-01 -0.4843209E-01  -0.9836101E+00  0.4739282E-16 -0.1803085E+00
 -0.9949473E-01 -0.5401633E-01  0.1405451E-01  -0.9836101E+00  0.4739282E-16 -0.1803085E+00
           6
  0.9949473E-01  0.5401633E-01 -0.1405451E-01  -0.0000000E+00  0.1000000E+01 -0.2865790E-15
  0.8804013E-01  0.5401633E-01 -0.4843209E-01  -0.0000000E+00  0.1000000E+01 -0.2865790E-15
 -0.8804013E-01  0.5401633E-01 -0.4843209E-01  -0.0000000E+00  0.1000000E+01 -0.2865790E-15
 -0.9949473E-01  0.5401633E-01  0.1405451E-01  -0.0000000E+00  0.1000000E+01 -0.2865790E-15
 -0.8804013E-01  0.5401633E-01  0.4843209E-01  -0.0000000E+00  0.1000000E+01 -0.2865790E-15
  0.8804013E-01  0.5401633E-01  0.4843209E-01  -0.0000000E+00  0.1000000E+01 -0.2865790E-15
           4
 -0.8804013E-01 -0.5401633E-01  0.4843209E-01  -0.0000000E+00 -0.1470537E-15  0.1000000E+01
  0.8804013E-01 -0.5401633E-01  0.4843209E-01  -0.0000000E+00 -0.1470537E-15  0.1000000E+01
  0.8804013E-01  0.5401633E-01  0.4843209E-01  -0.0000000E+00 -0.1470537E-15  0.1000000E+01
 -0.8804013E-01  0.5401633E-01  0.4843209E-01  -0.0000000E+00 -0.1470537E-15  0.1000000E+01
           4
 -0.8804013E-01  0.5401633E-01  0.4843209E-01  -0.9487213E+00  0.2063167E-15  0.3161138E+00
 -0.9949473E-01  0.5401633E-01  0.1405451E-01  -0.9487213E+00  0.2063167E-15  0.3161138E+00
 -0.9949473E-01 -0.5401633E-01  0.1405451E-01  -0.9487213E+00  0.2063167E-15  0.3161138E+00
 -0.8804013E-01 -0.5401633E-01  0.4843209E-01  -0.9487213E+00  0.2063167E-15  0.3161138E+00
 BRILLOUIN-ZONE-CONVCELL_END
 ATOMS
   19    0.0000000000    4.5281750840    0.0000000000    0.0000000000   -0.0000221400    0.0000000000
   19    2.6661709930    0.0598628970    0.0000000000    0.0000000000   -0.0000085400    0.0000000000
   12   -0.9462374160    0.0580426460    5.1618670130    0.0000000000   -0.0000576000    0.0000000000
   12   -0.9462374160    6.1757729790    5.1618670130    0.0000000000   -0.0000286600    0.0000000000
   12    1.7199335770    4.5893295970    5.1618670130    0.0000000000   -0.0000030200    0.0000000000
   12    1.7199335770    7.7334440930    5.1618670130    0.0000000000   -0.0000698200    0.0000000000
   12    1.7199335770    1.5780825120    5.1618670130    0.0000000000    0.0000866500    0.0000000000
   14    0.0496080350    1.5115625860    2.3403907950    0.0000096000    0.0000428300    0.0000002100
   14    3.3902590440    1.5115625860    7.9833432300   -0.0000096000    0.0000428300   -0.0000002100
   14    3.5332740930    7.7215077060    7.9053139300   -0.0000099300   -0.0000050900    0.0000210200
   14   -0.0934123990    7.7215077060    2.4184199410    0.0000099300   -0.0000050900   -0.0000210200
   14    2.5724427680    6.1712407720    2.4034741630    0.0000002500   -0.0000269100    0.0000165200
   14    0.8674242020    6.1712407720    7.9202600170   -0.0000002500   -0.0000269100   -0.0000165200
   13    0.7222383380    3.0609297900    7.9520027980    0.0000049300   -0.0000118000    0.0000527600
   13    2.7176233850    3.0609297900    2.3717313820   -0.0000049300   -0.0000118000   -0.0000527600
    8   -0.0021568710    1.4607663710    3.9699997000   -0.0000429000    0.0000018600   -0.0000275500
    8    3.4420185680    1.4607663710    6.3537346240    0.0000429000    0.0000018600    0.0000275500
    8    3.5125981340    7.7251316660    6.2841535650    0.0000414900   -0.0000160900    0.0000338800
    8   -0.0727363590    7.7251316660    4.0395807690   -0.0000414900   -0.0000160900   -0.0000338800
    8    2.6022151120    6.2001684810    4.0325129850    0.0000184700   -0.0000086100    0.0000039400
    8    0.8376520970    6.2001684810    6.2912207400   -0.0000184700   -0.0000086100   -0.0000039400
    8    0.7828192850    3.0838655050    6.2041207960    0.0000330800    0.0000031500    0.0000589100
    8    2.6570424670    3.0838655050    4.1196132290   -0.0000330800    0.0000031500   -0.0000589100
    8    1.5259962170    1.8982189770    1.7610707300   -0.0000073300    0.0000347600   -0.0000356900
    8    1.9138709080    1.8982189770    8.5626634500    0.0000073300    0.0000347600    0.0000356900
    8   -0.2972793920    9.2229490490    1.7709191440    0.0000045400    0.0000347300    0.0000692700
    8    2.1064769800    7.1280535200    8.5051023670    0.0000008300   -0.0000327000    0.0000376300
    8    1.3333901450    7.1280535200    1.8186318130   -0.0000008300   -0.0000327000   -0.0000376300
    8    3.9920297640    6.8187445730    1.8072751820   -0.0000380300    0.0000418200    0.0000057800
    8   -0.5521624790    6.8187445730    8.5164589980    0.0000380300    0.0000418200   -0.0000057800
    8    2.3843774950    4.6969950280    1.7537506360   -0.0000265300   -0.0000298600    0.0000052200
    8    1.0554843840    4.6969950280    8.5699835340    0.0000265300   -0.0000298600   -0.0000052200
    8   -0.8379872970    2.5387966750    8.6032648410    0.0000035900    0.0000236100   -0.0000213100
    8    4.2778543990    2.5387966750    1.7204690290   -0.0000035900    0.0000236100    0.0000213100
    8   -0.0187530240    4.7346644760    4.0713087140   -0.0000019300    0.0000311800   -0.0000580900
    8    3.4586200970    4.7346644760    6.2524253110    0.0000019300    0.0000311800    0.0000580900
    8    2.6254228640    9.2526717630    4.1311779180    0.0000086800   -0.0000113300   -0.0000339400
    8    0.8144423720    9.2526717630    6.1925665650   -0.0000086800   -0.0000113300    0.0000339400
    1   -0.0108518890    4.5618073440    3.1206566990    0.0000098300   -0.0000354300   -0.0000210000
    1    3.4507138380    4.5618073440    7.2030773260   -0.0000098300   -0.0000354300    0.0000210000
    1    2.5951188900    0.1192700080    3.1729428760   -0.0000369500   -0.0000245600   -0.0000084200
    1    0.8447428620    0.1192700080    7.1507911490    0.0000369500   -0.0000245600    0.0000084200
   26   -0.9462374160    3.1046037670    5.1618670130    0.0000000000    0.0000799800    0.0000000000
   19   -1.8924748330    4.5281750840   10.3237340250    0.0000000000   -0.0000221400    0.0000000000
   19    0.7736961600    0.0598628970   10.3237340250    0.0000000000   -0.0000085400    0.0000000000
   19    5.3323419860    4.5281750840    0.0000000000    0.0000000000   -0.0000221400    0.0000000000
   12    4.3861045700    0.0580426460    5.1618670130    0.0000000000   -0.0000576000    0.0000000000
   12    4.3861045700    6.1757729790    5.1618670130    0.0000000000   -0.0000286600    0.0000000000
    8    3.7371411540    9.2229490490    8.5528148810   -0.0000045400    0.0000347300   -0.0000692700
   26    4.3861045700    3.1046037670    5.1618670130    0.0000000000    0.0000799800    0.0000000000
   19    3.4398671530    4.5281750840   10.3237340250    0.0000000000   -0.0000221400    0.0000000000
 FRAMES
1      0.0000000000    0.0000000000    0.0000000000      5.3323419860    0.0000000000    0.0000000000
1      0.0000000000    0.0000000000    0.0000000000      0.0000000000    9.2564604440    0.0000000000
1      0.0000000000    0.0000000000    0.0000000000     -1.8924748330    0.0000000000   10.3237340250
1     -1.8924748330    0.0000000000   10.3237340250      3.4398671530    0.0000000000   10.3237340250
1     -1.8924748330    0.0000000000   10.3237340250     -1.8924748330    9.2564604440   10.3237340250
1      0.0000000000    9.2564604440    0.0000000000      5.3323419860    9.2564604440    0.0000000000
1      0.0000000000    9.2564604440    0.0000000000     -1.8924748330    9.2564604440   10.3237340250
1     -1.8924748330    9.2564604440   10.3237340250      3.4398671530    9.2564604440   10.3237340250
1      5.3323419860    0.0000000000    0.0000000000      5.3323419860    9.2564604440    0.0000000000
1      5.3323419860    0.0000000000    0.0000000000      3.4398671530    0.0000000000   10.3237340250
1      3.4398671530    0.0000000000   10.3237340250      3.4398671530    9.2564604440   10.3237340250
1      5.3323419860    9.2564604440    0.0000000000      3.4398671530    9.2564604440   10.3237340250
