
     Program PWSCF v.7.3.1 starts on  7Jan2025 at 15:28:26 

     This program is part of the open-source Quantum ESPRESSO suite
     for quantum simulation of materials; please cite
         "P. Giannozzi et al., J. Phys.:Condens. Matter 21 395502 (2009);
         "P. Giannozzi et al., J. Phys.:Condens. Matter 29 465901 (2017);
         "P. Giannozzi et al., J. Chem. Phys. 152 154105 (2020);
          URL http://www.quantum-espresso.org", 
     in publications or presentations arising from this work. More details at
     http://www.quantum-espresso.org/quote

     Parallel version (MPI), running on     6 processors

     MPI processes distributed on     1 nodes
     5263 MiB available memory on the printing compute node when the environment starts

     Reading input from relax.in
Warning: card  &CELL ignored
Warning: card    CELL_DOFREE     = 'IBRAV' ignored
Warning: card  / ignored

     Current dimensions of program PWSCF are:
     Max number of different atomic species (ntypx) = 10
     Max number of k-points (npk) =  40000
     Max angular momentum in pseudopotentials (lmaxx) =  4
     file Al.pbe-n-kjpaw_psl.1.0.0.UPF: wavefunction(s)  3S 3P renormalized
     file Fe.pbe-spn-kjpaw_psl.1.0.0.UPF: wavefunction(s)  3P 3D renormalized
     file H.pbe-kjpaw_psl.1.0.0.UPF: wavefunction(s)  1S renormalized
     file K.pbe-spn-kjpaw_psl.1.0.0.UPF: wavefunction(s)  3S renormalized
     file Mg.pbe-spnl-kjpaw_psl.1.0.0.UPF: wavefunction(s)  2P renormalized
     file O.pbe-n-kjpaw_psl.1.0.0.UPF: wavefunction(s)  2S 2P renormalized
     file Si.pbe-n-kjpaw_psl.1.0.0.UPF: wavefunction(s)  3S 3P renormalized

     R & G space division:  proc/nbgrp/npool/nimage =       6
     Subspace diagonalization in iterative solution of the eigenvalue problem:
     one sub-group per band group will be used
     custom distributed-memory algorithm (size of sub-group:  2*  2 procs)


     Parallelization info
     --------------------
     sticks:   dense  smooth     PW     G-vecs:    dense   smooth      PW
     Min        1105     554    150                97744    34578    4918
     Max        1106     555    151                97745    34580    4920
     Sum        6633    3329    905               586467   207475   29511

     Using Slab Decomposition



     bravais-lattice index     =          -12
     lattice parameter (alat)  =      10.0136  a.u.
     unit-cell volume          =    3303.4414 (a.u.)^3
     number of atoms/cell      =           44
     number of atomic types    =            7
     number of electrons       =       262.00
     number of Kohn-Sham states=          157
     kinetic-energy cutoff     =      60.0000  Ry
     charge density cutoff     =     480.0000  Ry
     scf convergence threshold =      1.0E-06
     mixing beta               =       0.7000
     number of iterations used =            8  plain     mixing
     energy convergence thresh.=      1.0E-04
     force convergence thresh. =      1.0E-03
     Exchange-correlation= SLA  PW   PBX  PBC
                           (   1   4   3   4   0   0   0)
     nstep                     =           50


     celldm(1)=  10.013640  celldm(2)=   1.735306  celldm(3)=   1.926511
     celldm(4)=   0.000000  celldm(5)=  -0.177565  celldm(6)=   0.000000

     crystal axes: (cart. coord. in units of alat)
               a(1) = (   1.000000   0.000000   0.000000 )  
               a(2) = (   0.000000   1.735306   0.000000 )  
               a(3) = (  -0.342081   0.000000   1.895896 )  

     reciprocal axes: (cart. coord. in units 2 pi/alat)
               b(1) = (  1.000000 -0.000000  0.180432 )  
               b(2) = (  0.000000  0.576267 -0.000000 )  
               b(3) = (  0.000000  0.000000  0.527455 )  


     PseudoPot. # 1 for Al read from file:
     ./../../../pseudos/Al.pbe-n-kjpaw_psl.1.0.0.UPF
     MD5 check sum: 502b6b27b9c6270cab5dd1084b96fa6d
     Pseudo is Projector augmented-wave + core cor, Zval =  3.0
     Generated using &quot;atomic&quot; code by A. Dal Corso  v.6.3
     Shape of augmentation charge: PSQ
     Using radial grid of 1135 points,  6 beta functions with: 
                l(1) =   0
                l(2) =   0
                l(3) =   1
                l(4) =   1
                l(5) =   2
                l(6) =   2
     Q(r) pseudized with 0 coefficients 


     PseudoPot. # 2 for Fe read from file:
     ./../../../pseudos/Fe.pbe-spn-kjpaw_psl.1.0.0.UPF
     MD5 check sum: fc81f059e5c5069939230b1155715ae8
     Pseudo is Projector augmented-wave + core cor, Zval = 16.0
     Generated using &quot;atomic&quot; code by A. Dal Corso  v.6.3
     Shape of augmentation charge: PSQ
     Using radial grid of 1191 points,  6 beta functions with: 
                l(1) =   0
                l(2) =   0
                l(3) =   1
                l(4) =   1
                l(5) =   2
                l(6) =   2
     Q(r) pseudized with 0 coefficients 


     PseudoPot. # 3 for H  read from file:
     ./../../../pseudos/H.pbe-kjpaw_psl.1.0.0.UPF
     MD5 check sum: d81a744832360e4a8af0b0b5b123bc2a
     Pseudo is Projector augmented-wave, Zval =  1.0
     Generated using &quot;atomic&quot; code by A. Dal Corso  v.6.3MaX
     Shape of augmentation charge: PSQ
     Using radial grid of  929 points,  2 beta functions with: 
                l(1) =   0
                l(2) =   0
     Q(r) pseudized with 0 coefficients 


     PseudoPot. # 4 for K  read from file:
     ./../../../pseudos/K.pbe-spn-kjpaw_psl.1.0.0.UPF
     MD5 check sum: 34cc42130a09071ebe376fd42eb21491
     Pseudo is Projector augmented-wave + core cor, Zval =  9.0
     Generated using &quot;atomic&quot; code by A. Dal Corso  v.6.2.2
     Shape of augmentation charge: PSQ
     Using radial grid of 1165 points,  6 beta functions with: 
                l(1) =   0
                l(2) =   0
                l(3) =   1
                l(4) =   1
                l(5) =   2
                l(6) =   2
     Q(r) pseudized with 0 coefficients 


     PseudoPot. # 5 for Mg read from file:
     ./../../../pseudos/Mg.pbe-spnl-kjpaw_psl.1.0.0.UPF
     MD5 check sum: fda14e0d92a6a9a5ebed782e5a4b3067
     Pseudo is Projector augmented-wave + core cor, Zval = 10.0
     Generated using &quot;atomic&quot; code by A. Dal Corso  v.6.3
     Shape of augmentation charge: PSQ
     Using radial grid of 1129 points,  4 beta functions with: 
                l(1) =   0
                l(2) =   0
                l(3) =   1
                l(4) =   1
     Q(r) pseudized with 0 coefficients 


     PseudoPot. # 6 for O  read from file:
     ./../../../pseudos/O.pbe-n-kjpaw_psl.1.0.0.UPF
     MD5 check sum: e99d9cef9b487d1ca56f5b95ecd0fd7a
     Pseudo is Projector augmented-wave + core cor, Zval =  6.0
     Generated using &quot;atomic&quot; code by A. Dal Corso  v.6.3
     Shape of augmentation charge: PSQ
     Using radial grid of 1095 points,  4 beta functions with: 
                l(1) =   0
                l(2) =   0
                l(3) =   1
                l(4) =   1
     Q(r) pseudized with 0 coefficients 


     PseudoPot. # 7 for Si read from file:
     ./../../../pseudos/Si.pbe-n-kjpaw_psl.1.0.0.UPF
     MD5 check sum: c39c59da582df4a0d9f10159256ea34e
     Pseudo is Projector augmented-wave + core cor, Zval =  4.0
     Generated using &quot;atomic&quot; code by A. Dal Corso  v.6.3
     Shape of augmentation charge: PSQ
     Using radial grid of 1141 points,  6 beta functions with: 
                l(1) =   0
                l(2) =   0
                l(3) =   1
                l(4) =   1
                l(5) =   2
                l(6) =   2
     Q(r) pseudized with 0 coefficients 


     atomic species   valence    mass     pseudopotential
     Al                3.00    26.98154     Al( 1.00)
     Fe               16.00    55.84500     Fe( 1.00)
     H                 1.00     1.00794     H ( 1.00)
     K                 9.00    39.09830     K ( 1.00)
     Mg               10.00    24.30500     Mg( 1.00)
     O                 6.00    15.99940     O ( 1.00)
     Si                4.00    28.08550     Si( 1.00)

     Starting magnetic structure 
     atomic species   magnetization
     Al              0.000
     Fe              0.300
     H               0.000
     K               0.000
     Mg              0.000
     O               0.000
     Si              0.000

      2 Sym. Ops. (no inversion) found


                                    s                        frac. trans.

      isym =  1     identity                                     

 cryst.   s( 1) = (     1          0          0      )
                  (     0          1          0      )
                  (     0          0          1      )

 cart.    s( 1) = (  1.0000000  0.0000000 -0.0000000 )
                  (  0.0000000  1.0000000  0.0000000 )
                  (  0.0000000  0.0000000  1.0000000 )


      isym =  2     180 deg rotation - cart. axis [0,1,0]        

 cryst.   s( 2) = (    -1          0          0      )
                  (     0          1          0      )
                  (     0          0         -1      )

 cart.    s( 2) = ( -1.0000000  0.0000000  0.0000000 )
                  (  0.0000000  1.0000000  0.0000000 )
                  (  0.0000000  0.0000000 -1.0000000 )


     point group C_2  (2)   
     there are  2 classes
     the character table:

       E     C2   
A      1.00  1.00
B      1.00 -1.00

     the symmetry operations in each class and the name of the first element:

     E        1
          identity                                               
     C2       2
          180 deg rotation - cart. axis [0,1,0]                  

   Cartesian axes

     site n.     atom                  positions (alat units)
         1        K      tau(   1) = (   0.0000000   0.8559224   0.0000000  )
         2        K      tau(   2) = (   0.5000000   0.0093568   0.0000000  )
         3        Mg     tau(   3) = (  -0.1710407   0.0067712   0.9479482  )
         4        Mg     tau(   4) = (  -0.1710407   1.1543881   0.9479482  )
         5        Mg     tau(   5) = (   0.3289593   0.8562226   0.9479482  )
         6        Mg     tau(   6) = (   0.3289593   1.4480089   0.9479482  )
         7        Mg     tau(   7) = (   0.3289593   0.2986375   0.9479482  )
         8        Si     tau(   8) = (   0.0066674   0.2865251   0.4219393  )
         9        Si     tau(   9) = (   0.6512512   0.2865251   1.4739571  )
        10        Si     tau(  10) = (   0.6701371   1.4476688   1.4628623  )
        11        Si     tau(  11) = (  -0.0122184   1.4476688   0.4330341  )
        12        Si     tau(  12) = (   0.4872056   1.1568454   0.4292651  )
        13        Si     tau(  13) = (   0.1707131   1.1568454   1.4666313  )
        14        Al     tau(  14) = (   0.1506005   0.5746762   1.4713786  )
        15        Al     tau(  15) = (   0.5073182   0.5746762   0.4245178  )
        16        O      tau(  16) = (  -0.0043508   0.2833738   0.7297400  )
        17        O      tau(  17) = (   0.6622695   0.2833738   1.1661564  )
        18        O      tau(  18) = (   0.6658139   1.4451231   1.1576912  )
        19        O      tau(  19) = (  -0.0078952   1.4451231   0.7382052  )
        20        O      tau(  20) = (   0.4926234   1.1618863   0.7357690  )
        21        O      tau(  21) = (   0.1652953   1.1618863   1.1601274  )
        22        O      tau(  22) = (   0.1548298   0.5779784   1.1454267  )
        23        O      tau(  23) = (   0.5030889   0.5779784   0.7504697  )
        24        O      tau(  24) = (   0.2847398   0.3548857   0.3143567  )
        25        O      tau(  25) = (   0.3731789   0.3548857   1.5815397  )
        26        O      tau(  26) = (   0.9404978   1.7303189   0.3181314  )
        27        O      tau(  27) = (  -0.2825791   1.7303189   1.5777650  )
        28        O      tau(  28) = (   0.3988927   1.3439356   1.5754330  )
        29        O      tau(  29) = (   0.2590260   1.3439356   0.3204634  )
        30        O      tau(  30) = (   0.7582660   1.2710892   0.3185125  )
        31        O      tau(  31) = (  -0.1003473   1.2710892   1.5773839  )
        32        O      tau(  32) = (   0.4432368   0.8811364   0.3085875  )
        33        O      tau(  33) = (   0.2146819   0.8811364   1.5873090  )
        34        O      tau(  34) = (  -0.1423236   0.4782556   1.5925436  )
        35        O      tau(  35) = (   0.8002423   0.4782556   0.3033529  )
        36        O      tau(  36) = (  -0.0041068   0.8750247   0.7469263  )
        37        O      tau(  37) = (   0.6620255   0.8750247   1.1489701  )
        38        O      tau(  38) = (   0.4966158   1.7335917   0.7534577  )
        39        O      tau(  39) = (   0.1613029   1.7335917   1.1424387  )
        40        H      tau(  40) = (  -0.0032097   0.8603995   0.5673129  )
        41        H      tau(  41) = (   0.6611284   0.8603995   1.3285835  )
        42        H      tau(  42) = (   0.4926802   0.0219534   0.5746291  )
        43        H      tau(  43) = (   0.1652385   0.0219534   1.3212673  )
        44        Fe     tau(  44) = (  -0.1710407   0.5780843   0.9479482  )

     --------------------------------------------
     DFT-D3 Dispersion Correction (3-body terms):
     --------------------------------------------
       Reference C6 values for interpolation: 

         atom   Coordination number   C6
         H          0.912             6.05
         H          0.000            15.18
         O          0.000            31.01
         O          0.993            25.63
         O          1.989            20.74
         Mg         0.000          1366.75
         Mg         0.963           902.54
         Mg         1.950           351.12
         Al         0.000          1081.08
         Al         0.965           875.51
         Al         1.931           513.50
         Al         2.915           307.19
         Si         0.000           635.71
         Si         0.951           540.53
         Si         1.944           466.25
         Si         2.941           443.01
         Si         3.868           299.55
         K          0.000          9967.00
         K          0.977           676.04
         Fe         0.000           982.67
         Fe         1.648           409.99
         Fe         9.138           219.01

       Values used:

         atom   Coordination number  R0_AB[au]  C6      C8
         K         13.594            4.007    676.04 129074.98
         K         13.826            4.007    676.04 129074.98
         Mg        11.561            3.292    351.12  31436.69
         Mg        11.488            3.292    351.12  31436.69
         Mg        11.470            3.292    351.12  31436.69
         Mg        11.760            3.292    351.12  31436.69
         Mg        11.625            3.292    351.12  31436.69
         Si         6.820            3.583    299.55  21425.58
         Si         6.820            3.583    299.55  21425.58
         Si         6.545            3.583    299.55  21425.58
         Si         6.545            3.583    299.55  21425.58
         Si         6.592            3.583    299.55  21425.58
         Si         6.592            3.583    299.55  21425.58
         Al         7.608            3.789    307.19  29441.29
         Al         7.608            3.789    307.19  29441.29
         O          3.654            2.345     20.74    418.58
         O          3.654            2.345     20.74    418.58
         O          3.929            2.345     20.74    418.58
         O          3.929            2.345     20.74    418.58
         O          3.909            2.345     20.74    418.58
         O          3.909            2.345     20.74    418.58
         O          3.847            2.345     20.74    418.58
         O          3.847            2.345     20.74    418.58
         O          3.191            2.345     20.74    418.58
         O          3.191            2.345     20.74    418.58
         O          3.154            2.345     20.74    418.58
         O          3.154            2.345     20.74    418.58
         O          3.056            2.345     20.74    418.58
         O          3.056            2.345     20.74    418.58
         O          3.059            2.345     20.74    418.58
         O          3.059            2.345     20.74    418.58
         O          3.189            2.345     20.74    418.58
         O          3.189            2.345     20.74    418.58
         O          3.254            2.345     20.74    418.58
         O          3.254            2.345     20.74    418.58
         O          3.777            2.345     20.74    418.58
         O          3.777            2.345     20.74    418.58
         O          3.999            2.345     20.74    418.58
         O          3.999            2.345     20.74    418.58
         H          1.297            2.062      6.07     73.35
         H          1.297            2.062      6.07     73.35
         H          1.300            2.062      6.07     73.35
         H          1.300            2.062      6.07     73.35
         Fe         8.120            3.252    219.01  20487.87

         Molecular C6 ( Ry / a.u.^6 ) =    165305.24


   Crystallographic axes

     site n.     atom                  positions (cryst. coord.)
         1        K      tau(   1) = (  0.0000000  0.4932400  0.0000000  )
         2        K      tau(   2) = (  0.5000000  0.0053920  0.0000000  )
         3        Mg     tau(   3) = (  0.0000000  0.0039020  0.5000000  )
         4        Mg     tau(   4) = (  0.0000000  0.6652360  0.5000000  )
         5        Mg     tau(   5) = (  0.5000000  0.4934130  0.5000000  )
         6        Mg     tau(   6) = (  0.5000000  0.8344400  0.5000000  )
         7        Mg     tau(   7) = (  0.5000000  0.1720950  0.5000000  )
         8        Si     tau(   8) = (  0.0827990  0.1651150  0.2225540  )
         9        Si     tau(   9) = (  0.9172010  0.1651150  0.7774460  )
        10        Si     tau(  10) = (  0.9340850  0.8342440  0.7715940  )
        11        Si     tau(  11) = (  0.0659150  0.8342440  0.2284060  )
        12        Si     tau(  12) = (  0.5646590  0.6666520  0.2264180  )
        13        Si     tau(  13) = (  0.4353410  0.6666520  0.7735820  )
        14        Al     tau(  14) = (  0.4160850  0.3311670  0.7760860  )
        15        Al     tau(  15) = (  0.5839150  0.3311670  0.2239140  )
        16        O      tau(  16) = (  0.1273180  0.1632990  0.3849050  )
        17        O      tau(  17) = (  0.8726820  0.1632990  0.6150950  )
        18        O      tau(  18) = (  0.8746990  0.8327770  0.6106300  )
        19        O      tau(  19) = (  0.1253010  0.8327770  0.3893700  )
        20        O      tau(  20) = (  0.6253800  0.6695570  0.3880850  )
        21        O      tau(  21) = (  0.3746200  0.6695570  0.6119150  )
        22        O      tau(  22) = (  0.3615020  0.3330700  0.6041610  )
        23        O      tau(  23) = (  0.6384980  0.3330700  0.3958390  )
        24        O      tau(  24) = (  0.3414600  0.2045090  0.1658090  )
        25        O      tau(  25) = (  0.6585400  0.2045090  0.8341910  )
        26        O      tau(  26) = (  0.9978990  0.9971260  0.1678000  )
        27        O      tau(  27) = (  0.0021010  0.9971260  0.8322000  )
        28        O      tau(  28) = (  0.6831520  0.7744660  0.8309700  )
        29        O      tau(  29) = (  0.3168480  0.7744660  0.1690300  )
        30        O      tau(  30) = (  0.8157360  0.7324870  0.1680010  )
        31        O      tau(  31) = (  0.1842640  0.7324870  0.8319990  )
        32        O      tau(  32) = (  0.4989160  0.5077700  0.1627660  )
        33        O      tau(  33) = (  0.5010840  0.5077700  0.8372340  )
        34        O      tau(  34) = (  0.1450230  0.2756030  0.8399950  )
        35        O      tau(  35) = (  0.8549770  0.2756030  0.1600050  )
        36        O      tau(  36) = (  0.1306630  0.5042480  0.3939700  )
        37        O      tau(  37) = (  0.8693370  0.5042480  0.6060300  )
        38        O      tau(  38) = (  0.6325640  0.9990120  0.3974150  )
        39        O      tau(  39) = (  0.3674360  0.9990120  0.6025850  )
        40        H      tau(  40) = (  0.0991520  0.4958200  0.2992320  )
        41        H      tau(  41) = (  0.9008480  0.4958200  0.7007680  )
        42        H      tau(  42) = (  0.5963620  0.0126510  0.3030910  )
        43        H      tau(  43) = (  0.4036380  0.0126510  0.6969090  )
        44        Fe     tau(  44) = (  0.0000000  0.3331310  0.5000000  )

     number of k points=    20  Gaussian smearing, width (Ry)=  0.0010
                       cart. coord. in units 2pi/alat
        k(    1) = (   0.0000000   0.0000000   0.0000000), wk =   0.0185185
        k(    2) = (   0.0000000   0.0000000   0.1758183), wk =   0.0370370
        k(    3) = (   0.0000000   0.1920891   0.0000000), wk =   0.0370370
        k(    4) = (   0.0000000   0.1920891   0.1758183), wk =   0.0740741
        k(    5) = (   0.1666667   0.0000000   0.0300721), wk =   0.0370370
        k(    6) = (   0.1666667   0.0000000   0.2058904), wk =   0.0370370
        k(    7) = (   0.1666667   0.0000000  -0.1457462), wk =   0.0370370
        k(    8) = (   0.1666667   0.1920891   0.0300721), wk =   0.0740741
        k(    9) = (   0.1666667   0.1920891   0.2058904), wk =   0.0740741
        k(   10) = (   0.1666667   0.1920891  -0.1457462), wk =   0.0740741
        k(   11) = (   0.3333333   0.0000000   0.0601442), wk =   0.0370370
        k(   12) = (   0.3333333   0.0000000   0.2359625), wk =   0.0370370
        k(   13) = (   0.3333333   0.0000000  -0.1156742), wk =   0.0370370
        k(   14) = (   0.3333333   0.1920891   0.0601442), wk =   0.0740741
        k(   15) = (   0.3333333   0.1920891   0.2359625), wk =   0.0740741
        k(   16) = (   0.3333333   0.1920891  -0.1156742), wk =   0.0740741
        k(   17) = (  -0.5000000   0.0000000  -0.0902162), wk =   0.0185185
        k(   18) = (  -0.5000000   0.0000000   0.0856021), wk =   0.0370370
        k(   19) = (  -0.5000000   0.1920891  -0.0902162), wk =   0.0370370
        k(   20) = (  -0.5000000   0.1920891   0.0856021), wk =   0.0740741

                       cryst. coord.
        k(    1) = (   0.0000000   0.0000000   0.0000000), wk =   0.0185185
        k(    2) = (   0.0000000   0.0000000   0.3333333), wk =   0.0370370
        k(    3) = (   0.0000000   0.3333333   0.0000000), wk =   0.0370370
        k(    4) = (   0.0000000   0.3333333   0.3333333), wk =   0.0740741
        k(    5) = (   0.1666667   0.0000000  -0.0000000), wk =   0.0370370
        k(    6) = (   0.1666667   0.0000000   0.3333333), wk =   0.0370370
        k(    7) = (   0.1666667   0.0000000  -0.3333333), wk =   0.0370370
        k(    8) = (   0.1666667   0.3333333  -0.0000000), wk =   0.0740741
        k(    9) = (   0.1666667   0.3333333   0.3333333), wk =   0.0740741
        k(   10) = (   0.1666667   0.3333333  -0.3333333), wk =   0.0740741
        k(   11) = (   0.3333333   0.0000000  -0.0000000), wk =   0.0370370
        k(   12) = (   0.3333333   0.0000000   0.3333333), wk =   0.0370370
        k(   13) = (   0.3333333   0.0000000  -0.3333333), wk =   0.0370370
        k(   14) = (   0.3333333   0.3333333  -0.0000000), wk =   0.0740741
        k(   15) = (   0.3333333   0.3333333   0.3333333), wk =   0.0740741
        k(   16) = (   0.3333333   0.3333333  -0.3333333), wk =   0.0740741
        k(   17) = (  -0.5000000   0.0000000   0.0000000), wk =   0.0185185
        k(   18) = (  -0.5000000   0.0000000   0.3333333), wk =   0.0370370
        k(   19) = (  -0.5000000   0.3333333   0.0000000), wk =   0.0370370
        k(   20) = (  -0.5000000   0.3333333   0.3333333), wk =   0.0740741

     Dense  grid:   586467 G-vectors     FFT dimensions: (  72, 125, 135)

     Smooth grid:   207475 G-vectors     FFT dimensions: (  50,  90,  96)

     Dynamical RAM for                 wfc:      10.35 MB

     Dynamical RAM for     wfc (w. buffer):     424.41 MB

     Dynamical RAM for           str. fact:      10.44 MB

     Dynamical RAM for           local pot:       0.00 MB

     Dynamical RAM for          nlocal pot:      28.88 MB

     Dynamical RAM for                qrad:      12.30 MB

     Dynamical RAM for          rho,v,vnew:      18.42 MB

     Dynamical RAM for               rhoin:       6.14 MB

     Dynamical RAM for            rho*nmix:      47.73 MB

     Dynamical RAM for           G-vectors:       5.86 MB

     Dynamical RAM for          h,s,v(r/c):       1.13 MB

     Dynamical RAM for          <psi|beta>:       1.05 MB

     Dynamical RAM for                 psi:      20.70 MB

     Dynamical RAM for                hpsi:      20.70 MB

     Dynamical RAM for                spsi:      20.70 MB

     Dynamical RAM for      wfcinit/wfcrot:      21.27 MB

     Dynamical RAM for           addusdens:     314.70 MB

     Dynamical RAM for          addusforce:     383.50 MB

     Dynamical RAM for         addusstress:     302.02 MB

     Estimated static dynamical RAM per process >     527.86 MB

     Estimated max dynamical RAM per process >     959.09 MB

     Estimated total dynamical RAM >       5.62 GB

     Atomic positions and unit cell read from directory:
     ./temp/phl-fe1-fe2.save/
     Atomic positions from file used, from input discarded


     Check: negative core charge=   -0.000004
     Generating pointlists ...
     new r_m :   0.1354 (alat units)  1.3563 (a.u.) for type    1
     new r_m :   0.1579 (alat units)  1.5812 (a.u.) for type    2
     new r_m :   0.0751 (alat units)  0.7521 (a.u.) for type    3
     new r_m :   0.2113 (alat units)  2.1158 (a.u.) for type    4
     new r_m :   0.1566 (alat units)  1.5686 (a.u.) for type    5
     new r_m :   0.0751 (alat units)  0.7521 (a.u.) for type    6
     new r_m :   0.1259 (alat units)  1.2603 (a.u.) for type    7

     The initial density is read from file :
     ./temp/phl-fe1-fe2.save/charge-density


     negative rho (up, down):  0.000E+00 1.493E-04
     Cannot read wfcs: file not found
     Starting wfcs are  183 randomized atomic wfcs
     Checking if some PAW data can be deallocated... 
       PAW data deallocated on    5 nodes for type:  1
       PAW data deallocated on    5 nodes for type:  2
       PAW data deallocated on    5 nodes for type:  3
       PAW data deallocated on    5 nodes for type:  4
       PAW data deallocated on    5 nodes for type:  5
       PAW data deallocated on    1 nodes for type:  6
       PAW data deallocated on    4 nodes for type:  7

     total cpu time spent up to now is      389.9 secs

     Self-consistent Calculation

     iteration #  1     ecut=    60.00 Ry     beta= 0.70
     Davidson diagonalization with overlap

---- Real-time Memory Report at c_bands before calling an iterative solver
           592 MiB given to the printing process from OS
             0 MiB allocation reported by mallinfo(arena+hblkhd)
          1756 MiB available memory on the node where the printing process lives
------------------
     c_bands:  5 eigenvalues not converged
     c_bands:  2 eigenvalues not converged
     c_bands:  3 eigenvalues not converged
     c_bands:  2 eigenvalues not converged
     c_bands:  3 eigenvalues not converged
     c_bands:  1 eigenvalues not converged
     c_bands:  2 eigenvalues not converged
     c_bands:  4 eigenvalues not converged
     c_bands:  1 eigenvalues not converged
     c_bands:  2 eigenvalues not converged
     c_bands:  1 eigenvalues not converged
     c_bands:  2 eigenvalues not converged
     c_bands:  3 eigenvalues not converged
     c_bands:  4 eigenvalues not converged
     c_bands:  4 eigenvalues not converged
     c_bands:  1 eigenvalues not converged
     c_bands:  3 eigenvalues not converged
     c_bands:  2 eigenvalues not converged
     c_bands:  5 eigenvalues not converged
     c_bands:  4 eigenvalues not converged
     c_bands:  3 eigenvalues not converged
     c_bands:  3 eigenvalues not converged
     c_bands:  3 eigenvalues not converged
     c_bands:  3 eigenvalues not converged
     c_bands:  2 eigenvalues not converged
     c_bands:  4 eigenvalues not converged
     c_bands:  1 eigenvalues not converged
     c_bands:  2 eigenvalues not converged
     c_bands:  3 eigenvalues not converged
     c_bands:  2 eigenvalues not converged
     c_bands:  4 eigenvalues not converged
     c_bands:  4 eigenvalues not converged
     c_bands:  3 eigenvalues not converged
     c_bands:  5 eigenvalues not converged
     c_bands:  4 eigenvalues not converged
     c_bands:  5 eigenvalues not converged
     c_bands:  4 eigenvalues not converged
     ethr =  1.00E-05,  avg # of iterations = 39.9

     negative rho (up, down):  0.000E+00 8.850E-04

     total cpu time spent up to now is    10114.0 secs

     total energy              =   -2630.67224897 Ry
     estimated scf accuracy    <       0.87310669 Ry

     total magnetization       =     4.70 Bohr mag/cell
     absolute magnetization    =     4.72 Bohr mag/cell

     iteration #  2     ecut=    60.00 Ry     beta= 0.70
     Davidson diagonalization with overlap

---- Real-time Memory Report at c_bands before calling an iterative solver
           889 MiB given to the printing process from OS
             0 MiB allocation reported by mallinfo(arena+hblkhd)
          1609 MiB available memory on the node where the printing process lives
------------------
     ethr =  3.33E-04,  avg # of iterations = 11.2

     negative rho (up, down):  0.000E+00 8.581E-05

     total cpu time spent up to now is    11675.7 secs

     total energy              =   -2628.91309389 Ry
     estimated scf accuracy    <      22.98695926 Ry

     total magnetization       =     0.04 Bohr mag/cell
     absolute magnetization    =     0.36 Bohr mag/cell

     iteration #  3     ecut=    60.00 Ry     beta= 0.70
     Davidson diagonalization with overlap

---- Real-time Memory Report at c_bands before calling an iterative solver
           892 MiB given to the printing process from OS
             0 MiB allocation reported by mallinfo(arena+hblkhd)
          1687 MiB available memory on the node where the printing process lives
------------------
     ethr =  3.33E-04,  avg # of iterations =  9.2

     negative rho (up, down):  0.000E+00 1.483E-04

     total cpu time spent up to now is    12895.6 secs

     total energy              =   -2631.22902402 Ry
     estimated scf accuracy    <       0.05717536 Ry

     total magnetization       =     4.00 Bohr mag/cell
     absolute magnetization    =     4.06 Bohr mag/cell

     iteration #  4     ecut=    60.00 Ry     beta= 0.70
     Davidson diagonalization with overlap

---- Real-time Memory Report at c_bands before calling an iterative solver
           894 MiB given to the printing process from OS
             0 MiB allocation reported by mallinfo(arena+hblkhd)
          1629 MiB available memory on the node where the printing process lives
------------------
     c_bands:  1 eigenvalues not converged
     c_bands:  1 eigenvalues not converged
     c_bands:  1 eigenvalues not converged
     c_bands:  1 eigenvalues not converged
     c_bands:  1 eigenvalues not converged
     c_bands:  1 eigenvalues not converged
     c_bands:  2 eigenvalues not converged
     ethr =  2.18E-05,  avg # of iterations = 15.4

     negative rho (up, down):  0.000E+00 1.409E-04

     total cpu time spent up to now is    14801.9 secs

     total energy              =   -2631.24843723 Ry
     estimated scf accuracy    <       0.01246121 Ry

     total magnetization       =     4.00 Bohr mag/cell
     absolute magnetization    =     4.05 Bohr mag/cell

     iteration #  5     ecut=    60.00 Ry     beta= 0.70
     Davidson diagonalization with overlap

---- Real-time Memory Report at c_bands before calling an iterative solver
           894 MiB given to the printing process from OS
             0 MiB allocation reported by mallinfo(arena+hblkhd)
          1475 MiB available memory on the node where the printing process lives
------------------
     c_bands:  1 eigenvalues not converged
     c_bands:  1 eigenvalues not converged
     c_bands:  1 eigenvalues not converged
     c_bands:  1 eigenvalues not converged
     c_bands:  1 eigenvalues not converged
     c_bands:  1 eigenvalues not converged
     c_bands:  1 eigenvalues not converged
     c_bands:  1 eigenvalues not converged
     ethr =  4.76E-06,  avg # of iterations = 10.6

     negative rho (up, down):  0.000E+00 1.492E-04

     total cpu time spent up to now is    16014.8 secs

     total energy              =   -2631.25057287 Ry
     estimated scf accuracy    <       0.00338122 Ry

     total magnetization       =     4.00 Bohr mag/cell
     absolute magnetization    =     4.04 Bohr mag/cell

     iteration #  6     ecut=    60.00 Ry     beta= 0.70
     Davidson diagonalization with overlap

---- Real-time Memory Report at c_bands before calling an iterative solver
           894 MiB given to the printing process from OS
             0 MiB allocation reported by mallinfo(arena+hblkhd)
          1521 MiB available memory on the node where the printing process lives
------------------
     c_bands:  2 eigenvalues not converged
     c_bands:  1 eigenvalues not converged
     c_bands:  1 eigenvalues not converged
     c_bands:  1 eigenvalues not converged
     c_bands:  1 eigenvalues not converged
     c_bands:  1 eigenvalues not converged
     ethr =  1.29E-06,  avg # of iterations =  9.3

     negative rho (up, down):  0.000E+00 1.529E-04

     total cpu time spent up to now is    17567.5 secs

     total energy              =   -2631.25139034 Ry
     estimated scf accuracy    <       0.00129580 Ry

     total magnetization       =     4.00 Bohr mag/cell
     absolute magnetization    =     4.04 Bohr mag/cell

     iteration #  7     ecut=    60.00 Ry     beta= 0.70
     Davidson diagonalization with overlap

---- Real-time Memory Report at c_bands before calling an iterative solver
           894 MiB given to the printing process from OS
             0 MiB allocation reported by mallinfo(arena+hblkhd)
          1582 MiB available memory on the node where the printing process lives
------------------
     c_bands:  1 eigenvalues not converged
     c_bands:  1 eigenvalues not converged
     ethr =  4.95E-07,  avg # of iterations =  3.0

     negative rho (up, down):  0.000E+00 1.609E-04

     total cpu time spent up to now is    18676.8 secs

     total energy              =   -2631.25147653 Ry
     estimated scf accuracy    <       0.00032509 Ry

     total magnetization       =     4.00 Bohr mag/cell
     absolute magnetization    =     4.04 Bohr mag/cell

     iteration #  8     ecut=    60.00 Ry     beta= 0.70
     Davidson diagonalization with overlap

---- Real-time Memory Report at c_bands before calling an iterative solver
           896 MiB given to the printing process from OS
             0 MiB allocation reported by mallinfo(arena+hblkhd)
          1572 MiB available memory on the node where the printing process lives
------------------
     c_bands:  1 eigenvalues not converged
     ethr =  1.24E-07,  avg # of iterations =  5.7

     negative rho (up, down):  0.000E+00 1.623E-04

     total cpu time spent up to now is    20336.9 secs

     total energy              =   -2631.25164725 Ry
     estimated scf accuracy    <       0.00024986 Ry

     total magnetization       =     4.00 Bohr mag/cell
     absolute magnetization    =     4.04 Bohr mag/cell

     iteration #  9     ecut=    60.00 Ry     beta= 0.70
     Davidson diagonalization with overlap

---- Real-time Memory Report at c_bands before calling an iterative solver
           899 MiB given to the printing process from OS
             0 MiB allocation reported by mallinfo(arena+hblkhd)
          1613 MiB available memory on the node where the printing process lives
------------------
     ethr =  9.54E-08,  avg # of iterations =  3.0

     negative rho (up, down):  0.000E+00 1.653E-04

     total cpu time spent up to now is    21326.6 secs

     total energy              =   -2631.25165899 Ry
     estimated scf accuracy    <       0.00004024 Ry

     total magnetization       =     4.00 Bohr mag/cell
     absolute magnetization    =     4.04 Bohr mag/cell

     iteration # 10     ecut=    60.00 Ry     beta= 0.70
     Davidson diagonalization with overlap

---- Real-time Memory Report at c_bands before calling an iterative solver
           901 MiB given to the printing process from OS
             0 MiB allocation reported by mallinfo(arena+hblkhd)
          1631 MiB available memory on the node where the printing process lives
------------------
     ethr =  1.54E-08,  avg # of iterations =  9.4

     negative rho (up, down):  0.000E+00 1.664E-04

     total cpu time spent up to now is    23399.8 secs

     total energy              =   -2631.25169344 Ry
     estimated scf accuracy    <       0.00009084 Ry

     total magnetization       =     4.00 Bohr mag/cell
     absolute magnetization    =     4.04 Bohr mag/cell

     iteration # 11     ecut=    60.00 Ry     beta= 0.70
     Davidson diagonalization with overlap

---- Real-time Memory Report at c_bands before calling an iterative solver
           901 MiB given to the printing process from OS
             0 MiB allocation reported by mallinfo(arena+hblkhd)
          1573 MiB available memory on the node where the printing process lives
------------------
     ethr =  1.54E-08,  avg # of iterations =  3.4

     negative rho (up, down):  0.000E+00 1.680E-04

     total cpu time spent up to now is    24420.0 secs

     total energy              =   -2631.25168467 Ry
     estimated scf accuracy    <       0.00002108 Ry

     total magnetization       =     4.00 Bohr mag/cell
     absolute magnetization    =     4.04 Bohr mag/cell

     iteration # 12     ecut=    60.00 Ry     beta= 0.70
     Davidson diagonalization with overlap

---- Real-time Memory Report at c_bands before calling an iterative solver
           901 MiB given to the printing process from OS
             0 MiB allocation reported by mallinfo(arena+hblkhd)
          1565 MiB available memory on the node where the printing process lives
------------------
     ethr =  8.05E-09,  avg # of iterations =  5.6

     negative rho (up, down):  0.000E+00 1.683E-04

     total cpu time spent up to now is    26280.0 secs

     total energy              =   -2631.25170186 Ry
     estimated scf accuracy    <       0.00005010 Ry

     total magnetization       =     4.00 Bohr mag/cell
     absolute magnetization    =     4.04 Bohr mag/cell

     iteration # 13     ecut=    60.00 Ry     beta= 0.70
     Davidson diagonalization with overlap

---- Real-time Memory Report at c_bands before calling an iterative solver
           901 MiB given to the printing process from OS
             0 MiB allocation reported by mallinfo(arena+hblkhd)
          1660 MiB available memory on the node where the printing process lives
------------------
     ethr =  8.05E-09,  avg # of iterations =  2.0

     negative rho (up, down):  0.000E+00 1.687E-04

     total cpu time spent up to now is    27240.6 secs

     total energy              =   -2631.25169300 Ry
     estimated scf accuracy    <       0.00002007 Ry

     total magnetization       =     4.00 Bohr mag/cell
     absolute magnetization    =     4.04 Bohr mag/cell

     iteration # 14     ecut=    60.00 Ry     beta= 0.70
     Davidson diagonalization with overlap

---- Real-time Memory Report at c_bands before calling an iterative solver
           901 MiB given to the printing process from OS
             0 MiB allocation reported by mallinfo(arena+hblkhd)
          1635 MiB available memory on the node where the printing process lives
------------------
     ethr =  7.66E-09,  avg # of iterations =  5.0

     negative rho (up, down):  0.000E+00 1.685E-04

     total cpu time spent up to now is    28725.3 secs

     total energy              =   -2631.25170131 Ry
     estimated scf accuracy    <       0.00000295 Ry

     total magnetization       =     4.00 Bohr mag/cell
     absolute magnetization    =     4.04 Bohr mag/cell

     iteration # 15     ecut=    60.00 Ry     beta= 0.70
     Davidson diagonalization with overlap

---- Real-time Memory Report at c_bands before calling an iterative solver
           901 MiB given to the printing process from OS
             0 MiB allocation reported by mallinfo(arena+hblkhd)
          1655 MiB available memory on the node where the printing process lives
------------------
     ethr =  1.13E-09,  avg # of iterations =  3.9

     negative rho (up, down):  0.000E+00 1.685E-04

     Magnetic moment per site  (integrated on atomic sphere of radius R)
     atom   1 (R=0.211)  charge=  7.4860  magn=  0.0001
     atom   2 (R=0.211)  charge=  7.4898  magn=  0.0001
     atom   3 (R=0.157)  charge=  8.1007  magn= -0.0002
     atom   4 (R=0.157)  charge=  8.0995  magn=  0.0000
     atom   5 (R=0.157)  charge=  8.1015  magn=  0.0007
     atom   6 (R=0.157)  charge=  8.0974  magn= -0.0000
     atom   7 (R=0.157)  charge=  8.1032  magn=  0.0006
     atom   8 (R=0.126)  charge=  0.5511  magn=  0.0009
     atom   9 (R=0.126)  charge=  0.5511  magn=  0.0009
     atom  10 (R=0.126)  charge=  0.5419  magn= -0.0000
     atom  11 (R=0.126)  charge=  0.5419  magn= -0.0000
     atom  12 (R=0.126)  charge=  0.5414  magn=  0.0000
     atom  13 (R=0.126)  charge=  0.5414  magn=  0.0000
     atom  14 (R=0.135)  charge=  0.3422  magn=  0.0013
     atom  15 (R=0.135)  charge=  0.3422  magn=  0.0013
     atom  16 (R=0.075)  charge=  1.9356  magn=  0.0164
     atom  17 (R=0.075)  charge=  1.9356  magn=  0.0164
     atom  18 (R=0.075)  charge=  1.9371  magn=  0.0004
     atom  19 (R=0.075)  charge=  1.9371  magn=  0.0004
     atom  20 (R=0.075)  charge=  1.9347  magn=  0.0004
     atom  21 (R=0.075)  charge=  1.9347  magn=  0.0004
     atom  22 (R=0.075)  charge=  1.9297  magn=  0.0273
     atom  23 (R=0.075)  charge=  1.9297  magn=  0.0273
     atom  24 (R=0.075)  charge=  1.9363  magn=  0.0010
     atom  25 (R=0.075)  charge=  1.9363  magn=  0.0010
     atom  26 (R=0.075)  charge=  1.9428  magn=  0.0009
     atom  27 (R=0.075)  charge=  1.9428  magn=  0.0009
     atom  28 (R=0.075)  charge=  1.9411  magn=  0.0001
     atom  29 (R=0.075)  charge=  1.9411  magn=  0.0001
     atom  30 (R=0.075)  charge=  1.9401  magn=  0.0002
     atom  31 (R=0.075)  charge=  1.9401  magn=  0.0002
     atom  32 (R=0.075)  charge=  1.9379  magn=  0.0006
     atom  33 (R=0.075)  charge=  1.9379  magn=  0.0006
     atom  34 (R=0.075)  charge=  1.9346  magn= -0.0000
     atom  35 (R=0.075)  charge=  1.9346  magn= -0.0000
     atom  36 (R=0.075)  charge=  1.9338  magn=  0.0207
     atom  37 (R=0.075)  charge=  1.9338  magn=  0.0207
     atom  38 (R=0.075)  charge=  1.9376  magn=  0.0003
     atom  39 (R=0.075)  charge=  1.9376  magn=  0.0003
     atom  40 (R=0.075)  charge=  0.4010  magn=  0.0002
     atom  41 (R=0.075)  charge=  0.4010  magn=  0.0002
     atom  42 (R=0.075)  charge=  0.3993  magn= -0.0000
     atom  43 (R=0.075)  charge=  0.3993  magn= -0.0000
     atom  44 (R=0.158)  charge= 13.2985  magn=  3.2879

     total cpu time spent up to now is    29803.7 secs

     End of self-consistent calculation

 ------ SPIN UP ------------


          k = 0.0000 0.0000 0.0000 ( 25927 PWs)   bands (ev):

   -81.0654 -67.4806 -67.4429 -67.3003 -67.1026 -66.9737 -48.0789 -46.7811
   -46.5140 -34.2513 -34.2298 -34.2239 -34.2048 -34.1986 -34.1799 -34.0634
   -34.0589 -34.0373 -33.8627 -33.8546 -33.8495 -33.7425 -33.7219 -33.7150
   -22.9607 -22.9531 -14.9990 -14.9440 -14.0735 -14.0248 -13.5415 -13.5176
   -13.3662 -13.2401 -13.1775 -13.0389 -12.8332 -12.7841 -12.7747 -12.7573
   -12.6664 -12.5605 -12.4349 -12.3677 -12.2555 -12.2237 -12.2217 -12.1056
   -11.4633 -11.1574  -6.5406  -6.5157  -6.4488  -6.4486  -6.4331  -6.4303
    -4.1975  -4.1384  -2.3516  -2.2515  -1.7674  -1.2925  -1.1215  -1.0709
    -0.9944  -0.9232  -0.5877  -0.5711  -0.4694  -0.3238  -0.2961  -0.0806
     0.0537   0.1422   0.2638   0.4834   0.6231   0.6264   0.7438   0.9463
     0.9577   1.1303   1.1590   1.2797   1.4320   1.5113   1.5353   1.7165
     1.7445   1.8888   1.8910   2.1167   2.1674   2.1822   2.2216   2.2967
     2.2993   2.5479   2.5885   2.6849   2.6947   2.7254   2.7835   2.8716
     2.9099   2.9144   3.0593   3.1037   3.1591   3.2203   3.2501   3.3260
     3.3932   3.4265   3.4937   3.5062   3.5878   3.6219   3.6280   3.7483
     3.8239   3.8758   3.9461   3.9552   3.9978   4.1664   4.3900   4.3972
     5.3339   5.5900   6.5100   7.0729   7.1977   9.1449  10.6578  11.2455
    11.6146  11.9364  12.1791  12.2081  12.6119  12.6505  13.0334  13.1008
    13.1216  13.3443  13.3653  13.5217  13.5874  13.6577  13.7789  13.8315
    13.8691  14.1254  14.2473  14.2813  14.4008

     occupation numbers 
     1.0000   1.0000   1.0000   1.0000   1.0000   1.0000   1.0000   1.0000
     1.0000   1.0000   1.0000   1.0000   1.0000   1.0000   1.0000   1.0000
     1.0000   1.0000   1.0000   1.0000   1.0000   1.0000   1.0000   1.0000
     1.0000   1.0000   1.0000   1.0000   1.0000   1.0000   1.0000   1.0000
     1.0000   1.0000   1.0000   1.0000   1.0000   1.0000   1.0000   1.0000
     1.0000   1.0000   1.0000   1.0000   1.0000   1.0000   1.0000   1.0000
     1.0000   1.0000   1.0000   1.0000   1.0000   1.0000   1.0000   1.0000
     1.0000   1.0000   1.0000   1.0000   1.0000   1.0000   1.0000   1.0000
     1.0000   1.0000   1.0000   1.0000   1.0000   1.0000   1.0000   1.0000
     1.0000   1.0000   1.0000   1.0000   1.0000   1.0000   1.0000   1.0000
     1.0000   1.0000   1.0000   1.0000   1.0000   1.0000   1.0000   1.0000
     1.0000   1.0000   1.0000   1.0000   1.0000   1.0000   1.0000   1.0000
     1.0000   1.0000   1.0000   1.0000   1.0000   1.0000   1.0000   1.0000
     1.0000   1.0000   1.0000   1.0000   1.0000   1.0000   1.0000   1.0000
     1.0000   1.0000   1.0000   1.0000   1.0000   1.0000   1.0000   1.0000
     1.0000   1.0000   1.0000   1.0000   1.0000   1.0000   1.0000   1.0000
     1.0000   1.0000   1.0000   1.0000   1.0000   0.0000   0.0000   0.0000
     0.0000   0.0000   0.0000   0.0000   0.0000   0.0000   0.0000   0.0000
     0.0000   0.0000   0.0000   0.0000   0.0000   0.0000   0.0000   0.0000
     0.0000   0.0000   0.0000   0.0000   0.0000

          k = 0.0000 0.0000 0.1758 ( 25971 PWs)   bands (ev):

   -81.0654 -67.4806 -67.4429 -67.3003 -67.1026 -66.9737 -48.0789 -46.7812
   -46.5140 -34.2513 -34.2298 -34.2239 -34.2049 -34.1986 -34.1799 -34.0634
   -34.0589 -34.0373 -33.8627 -33.8546 -33.8495 -33.7425 -33.7220 -33.7150
   -22.9607 -22.9531 -14.9858 -14.9581 -14.0619 -14.0372 -13.5421 -13.5171
   -13.3547 -13.2612 -13.1687 -13.0346 -12.8344 -12.7875 -12.7700 -12.7623
   -12.6595 -12.5645 -12.4276 -12.3748 -12.2563 -12.2224 -12.2153 -12.1127
   -11.4629 -11.1583  -6.5407  -6.5156  -6.4488  -6.4486  -6.4331  -6.4301
    -4.1935  -4.1428  -2.3286  -2.2787  -1.7355  -1.2801  -1.1102  -1.0766
    -0.9913  -0.9427  -0.5813  -0.5595  -0.4941  -0.3434  -0.2702  -0.1822
     0.0860   0.1607   0.2073   0.4286   0.6125   0.6198   0.7720   0.9643
     1.0063   1.1308   1.2083   1.2308   1.4510   1.5214   1.5798   1.6545
     1.8294   1.9104   1.9990   2.1525   2.1625   2.2038   2.2157   2.2769
     2.3435   2.4759   2.5756   2.5918   2.6745   2.7220   2.7528   2.8157
     2.8602   2.9433   3.0742   3.1442   3.1652   3.1999   3.2360   3.3738
     3.3974   3.4380   3.4525   3.4897   3.5857   3.6233   3.6755   3.7613
     3.8136   3.8525   3.8981   3.9668   3.9743   4.2199   4.3860   4.3952
     5.3349   5.5857   6.5098   7.0711   7.1998   9.4571  10.1808  11.3460
    11.6501  11.7779  12.1172  12.2286  12.7774  12.9048  13.0157  13.1379
    13.2134  13.2444  13.3677  13.4433  13.5023  13.6866  13.7856  13.7994
    13.9506  14.0428  14.1610  14.3283  14.3343

     occupation numbers 
     1.0000   1.0000   1.0000   1.0000   1.0000   1.0000   1.0000   1.0000
     1.0000   1.0000   1.0000   1.0000   1.0000   1.0000   1.0000   1.0000
     1.0000   1.0000   1.0000   1.0000   1.0000   1.0000   1.0000   1.0000
     1.0000   1.0000   1.0000   1.0000   1.0000   1.0000   1.0000   1.0000
     1.0000   1.0000   1.0000   1.0000   1.0000   1.0000   1.0000   1.0000
     1.0000   1.0000   1.0000   1.0000   1.0000   1.0000   1.0000   1.0000
     1.0000   1.0000   1.0000   1.0000   1.0000   1.0000   1.0000   1.0000
     1.0000   1.0000   1.0000   1.0000   1.0000   1.0000   1.0000   1.0000
     1.0000   1.0000   1.0000   1.0000   1.0000   1.0000   1.0000   1.0000
     1.0000   1.0000   1.0000   1.0000   1.0000   1.0000   1.0000   1.0000
     1.0000   1.0000   1.0000   1.0000   1.0000   1.0000   1.0000   1.0000
     1.0000   1.0000   1.0000   1.0000   1.0000   1.0000   1.0000   1.0000
     1.0000   1.0000   1.0000   1.0000   1.0000   1.0000   1.0000   1.0000
     1.0000   1.0000   1.0000   1.0000   1.0000   1.0000   1.0000   1.0000
     1.0000   1.0000   1.0000   1.0000   1.0000   1.0000   1.0000   1.0000
     1.0000   1.0000   1.0000   1.0000   1.0000   1.0000   1.0000   1.0000
     1.0000   1.0000   1.0000   1.0000   1.0000   0.0000   0.0000   0.0000
     0.0000   0.0000   0.0000   0.0000   0.0000   0.0000   0.0000   0.0000
     0.0000   0.0000   0.0000   0.0000   0.0000   0.0000   0.0000   0.0000
     0.0000   0.0000   0.0000   0.0000   0.0000

          k = 0.0000 0.1921 0.0000 ( 25933 PWs)   bands (ev):

   -81.0654 -67.4806 -67.4429 -67.3003 -67.1026 -66.9737 -48.0789 -46.7811
   -46.5140 -34.2513 -34.2298 -34.2239 -34.2049 -34.1986 -34.1799 -34.0634
   -34.0589 -34.0373 -33.8627 -33.8546 -33.8495 -33.7425 -33.7220 -33.7151
   -22.9607 -22.9531 -14.9935 -14.9386 -14.1107 -14.0574 -13.5417 -13.5178
   -13.2723 -13.1645 -13.1315 -13.0577 -12.8877 -12.8490 -12.8101 -12.7624
   -12.6783 -12.5571 -12.4243 -12.3637 -12.2551 -12.2230 -12.2153 -12.1013
   -11.4614 -11.1567  -6.5366  -6.5200  -6.4472  -6.4442  -6.4350  -6.4342
    -4.1563  -4.0964  -2.5028  -2.3960  -1.7062  -1.3692  -0.9941  -0.9858
    -0.9223  -0.8660  -0.6574  -0.5680  -0.5435  -0.2540  -0.2491  -0.0627
    -0.0283   0.1923   0.2756   0.4766   0.5526   0.5750   0.7495   0.9116
     0.9842   1.0511   1.1660   1.2476   1.3916   1.5601   1.6143   1.7319
     1.7561   1.9323   1.9910   2.1143   2.1280   2.2317   2.2726   2.3783
     2.4070   2.5223   2.5406   2.5595   2.7106   2.7192   2.8121   2.8560
     2.9046   2.9791   3.0536   3.0632   3.1297   3.1658   3.2981   3.3207
     3.4179   3.4434   3.4669   3.5056   3.5643   3.6324   3.6615   3.7561
     3.8186   3.8536   3.9124   3.9511   3.9839   4.1736   4.1843   4.3814
     5.3357   5.5817   6.5189   7.0428   7.2095   9.5444  10.4707  10.8917
    11.4581  11.8810  12.3092  12.5736  12.6769  12.7988  12.9422  13.0836
    13.1240  13.3126  13.3731  13.4806  13.5052  13.6667  13.6718  13.8127
    13.8291  13.8677  14.3412  14.3437  14.5067

     occupation numbers 
     1.0000   1.0000   1.0000   1.0000   1.0000   1.0000   1.0000   1.0000
     1.0000   1.0000   1.0000   1.0000   1.0000   1.0000   1.0000   1.0000
     1.0000   1.0000   1.0000   1.0000   1.0000   1.0000   1.0000   1.0000
     1.0000   1.0000   1.0000   1.0000   1.0000   1.0000   1.0000   1.0000
     1.0000   1.0000   1.0000   1.0000   1.0000   1.0000   1.0000   1.0000
     1.0000   1.0000   1.0000   1.0000   1.0000   1.0000   1.0000   1.0000
     1.0000   1.0000   1.0000   1.0000   1.0000   1.0000   1.0000   1.0000
     1.0000   1.0000   1.0000   1.0000   1.0000   1.0000   1.0000   1.0000
     1.0000   1.0000   1.0000   1.0000   1.0000   1.0000   1.0000   1.0000
     1.0000   1.0000   1.0000   1.0000   1.0000   1.0000   1.0000   1.0000
     1.0000   1.0000   1.0000   1.0000   1.0000   1.0000   1.0000   1.0000
     1.0000   1.0000   1.0000   1.0000   1.0000   1.0000   1.0000   1.0000
     1.0000   1.0000   1.0000   1.0000   1.0000   1.0000   1.0000   1.0000
     1.0000   1.0000   1.0000   1.0000   1.0000   1.0000   1.0000   1.0000
     1.0000   1.0000   1.0000   1.0000   1.0000   1.0000   1.0000   1.0000
     1.0000   1.0000   1.0000   1.0000   1.0000   1.0000   1.0000   1.0000
     1.0000   1.0000   1.0000   1.0000   1.0000   0.0000   0.0000   0.0000
     0.0000   0.0000   0.0000   0.0000   0.0000   0.0000   0.0000   0.0000
     0.0000   0.0000   0.0000   0.0000   0.0000   0.0000   0.0000   0.0000
     0.0000   0.0000   0.0000   0.0000   0.0000

          k = 0.0000 0.1921 0.1758 ( 25924 PWs)   bands (ev):

   -81.0654 -67.4806 -67.4429 -67.3003 -67.1026 -66.9737 -48.0789 -46.7811
   -46.5140 -34.2514 -34.2298 -34.2239 -34.2049 -34.1986 -34.1799 -34.0634
   -34.0589 -34.0373 -33.8627 -33.8546 -33.8495 -33.7425 -33.7219 -33.7150
   -22.9607 -22.9531 -14.9803 -14.9528 -14.0980 -14.0712 -13.5423 -13.5172
   -13.2645 -13.1614 -13.1477 -13.0470 -12.9013 -12.8333 -12.8137 -12.7636
   -12.6754 -12.5612 -12.4176 -12.3705 -12.2561 -12.2221 -12.2076 -12.1083
   -11.4610 -11.1576  -6.5367  -6.5200  -6.4472  -6.4441  -6.4350  -6.4341
    -4.1496  -4.1036  -2.4790  -2.4226  -1.6780  -1.3575  -0.9914  -0.9833
    -0.9139  -0.8805  -0.6383  -0.5927  -0.5512  -0.2931  -0.2166  -0.1548
     0.0205   0.1921   0.2004   0.4424   0.5473   0.5753   0.7927   0.8983
     1.0350   1.0633   1.1078   1.3061   1.4706   1.5611   1.6386   1.7162
     1.8599   1.9086   2.0442   2.0983   2.1590   2.1930   2.2823   2.3775
     2.4221   2.4751   2.5452   2.5613   2.6599   2.6941   2.7755   2.8406
     2.8897   2.9672   3.0314   3.0846   3.1151   3.1844   3.2468   3.3494
     3.3867   3.4636   3.4718   3.5156   3.5891   3.6320   3.6669   3.7506
     3.8137   3.8377   3.8761   3.9575   3.9757   4.1849   4.2362   4.3796
     5.3369   5.5765   6.5188   7.0384   7.2112   9.8170  10.4674  10.6608
    11.1591  11.8583  12.2945  12.6189  12.7953  12.9543  13.0920  13.1543
    13.1883  13.2731  13.4051  13.4554  13.5786  13.6122  13.6489  13.7492
    13.8131  13.9959  14.2036  14.3378  14.4257

     occupation numbers 
     1.0000   1.0000   1.0000   1.0000   1.0000   1.0000   1.0000   1.0000
     1.0000   1.0000   1.0000   1.0000   1.0000   1.0000   1.0000   1.0000
     1.0000   1.0000   1.0000   1.0000   1.0000   1.0000   1.0000   1.0000
     1.0000   1.0000   1.0000   1.0000   1.0000   1.0000   1.0000   1.0000
     1.0000   1.0000   1.0000   1.0000   1.0000   1.0000   1.0000   1.0000
     1.0000   1.0000   1.0000   1.0000   1.0000   1.0000   1.0000   1.0000
     1.0000   1.0000   1.0000   1.0000   1.0000   1.0000   1.0000   1.0000
     1.0000   1.0000   1.0000   1.0000   1.0000   1.0000   1.0000   1.0000
     1.0000   1.0000   1.0000   1.0000   1.0000   1.0000   1.0000   1.0000
     1.0000   1.0000   1.0000   1.0000   1.0000   1.0000   1.0000   1.0000
     1.0000   1.0000   1.0000   1.0000   1.0000   1.0000   1.0000   1.0000
     1.0000   1.0000   1.0000   1.0000   1.0000   1.0000   1.0000   1.0000
     1.0000   1.0000   1.0000   1.0000   1.0000   1.0000   1.0000   1.0000
     1.0000   1.0000   1.0000   1.0000   1.0000   1.0000   1.0000   1.0000
     1.0000   1.0000   1.0000   1.0000   1.0000   1.0000   1.0000   1.0000
     1.0000   1.0000   1.0000   1.0000   1.0000   1.0000   1.0000   1.0000
     1.0000   1.0000   1.0000   1.0000   1.0000   0.0000   0.0000   0.0000
     0.0000   0.0000   0.0000   0.0000   0.0000   0.0000   0.0000   0.0000
     0.0000   0.0000   0.0000   0.0000   0.0000   0.0000   0.0000   0.0000
     0.0000   0.0000   0.0000   0.0000   0.0000

          k = 0.1667 0.0000 0.0301 ( 25941 PWs)   bands (ev):

   -81.0654 -67.4806 -67.4429 -67.3003 -67.1026 -66.9737 -48.0789 -46.7811
   -46.5140 -34.2510 -34.2306 -34.2233 -34.2053 -34.1982 -34.1800 -34.0634
   -34.0589 -34.0373 -33.8627 -33.8546 -33.8495 -33.7426 -33.7220 -33.7150
   -22.9606 -22.9529 -14.9404 -14.8865 -14.0890 -14.0438 -13.6635 -13.6304
   -13.2929 -13.1662 -13.1282 -13.0234 -12.8527 -12.7883 -12.7694 -12.7663
   -12.6577 -12.5679 -12.4530 -12.3861 -12.3221 -12.2680 -12.1958 -12.0905
   -11.4479 -11.1720  -6.5415  -6.5189  -6.4475  -6.4457  -6.4312  -6.4299
    -4.0399  -3.9777  -2.3131  -2.2134  -1.7619  -1.3621  -1.3367  -1.2638
    -0.8163  -0.7419  -0.6474  -0.5705  -0.4745  -0.2922  -0.2524  -0.0760
     0.0787   0.1503   0.2593   0.4506   0.5683   0.6621   0.7103   0.8301
     1.0356   1.1365   1.1678   1.2556   1.3812   1.4598   1.5816   1.6544
     1.7033   1.8963   1.9995   2.0348   2.1097   2.1915   2.2882   2.3070
     2.4276   2.5040   2.6008   2.6378   2.6833   2.7289   2.7709   2.8905
     2.9246   2.9616   3.0273   3.1182   3.1505   3.2063   3.2720   3.3006
     3.3743   3.3923   3.4703   3.4872   3.5331   3.6355   3.6876   3.7634
     3.7904   3.8565   3.8915   3.9169   3.9659   4.1312   4.1946   4.3655
     5.3898   5.5565   6.5141   7.0724   7.1876   9.4724  10.8292  11.3232
    11.7489  11.9720  12.1865  12.3642  12.6252  12.7759  12.9427  13.0583
    13.1550  13.3070  13.3120  13.5253  13.5794  13.6551  13.7005  13.7931
    13.8972  14.1709  14.1909  14.2712  14.4021

     occupation numbers 
     1.0000   1.0000   1.0000   1.0000   1.0000   1.0000   1.0000   1.0000
     1.0000   1.0000   1.0000   1.0000   1.0000   1.0000   1.0000   1.0000
     1.0000   1.0000   1.0000   1.0000   1.0000   1.0000   1.0000   1.0000
     1.0000   1.0000   1.0000   1.0000   1.0000   1.0000   1.0000   1.0000
     1.0000   1.0000   1.0000   1.0000   1.0000   1.0000   1.0000   1.0000
     1.0000   1.0000   1.0000   1.0000   1.0000   1.0000   1.0000   1.0000
     1.0000   1.0000   1.0000   1.0000   1.0000   1.0000   1.0000   1.0000
     1.0000   1.0000   1.0000   1.0000   1.0000   1.0000   1.0000   1.0000
     1.0000   1.0000   1.0000   1.0000   1.0000   1.0000   1.0000   1.0000
     1.0000   1.0000   1.0000   1.0000   1.0000   1.0000   1.0000   1.0000
     1.0000   1.0000   1.0000   1.0000   1.0000   1.0000   1.0000   1.0000
     1.0000   1.0000   1.0000   1.0000   1.0000   1.0000   1.0000   1.0000
     1.0000   1.0000   1.0000   1.0000   1.0000   1.0000   1.0000   1.0000
     1.0000   1.0000   1.0000   1.0000   1.0000   1.0000   1.0000   1.0000
     1.0000   1.0000   1.0000   1.0000   1.0000   1.0000   1.0000   1.0000
     1.0000   1.0000   1.0000   1.0000   1.0000   1.0000   1.0000   1.0000
     1.0000   1.0000   1.0000   1.0000   1.0000   0.0000   0.0000   0.0000
     0.0000   0.0000   0.0000   0.0000   0.0000   0.0000   0.0000   0.0000
     0.0000   0.0000   0.0000   0.0000   0.0000   0.0000   0.0000   0.0000
     0.0000   0.0000   0.0000   0.0000   0.0000

          k = 0.1667 0.0000 0.2059 ( 25961 PWs)   bands (ev):

   -81.0654 -67.4806 -67.4429 -67.3003 -67.1026 -66.9737 -48.0789 -46.7812
   -46.5140 -34.2510 -34.2306 -34.2233 -34.2053 -34.1982 -34.1800 -34.0634
   -34.0589 -34.0373 -33.8627 -33.8546 -33.8495 -33.7426 -33.7220 -33.7150
   -22.9606 -22.9529 -14.9238 -14.9042 -14.0785 -14.0549 -13.6588 -13.6354
   -13.2820 -13.1878 -13.1188 -13.0180 -12.8513 -12.7910 -12.7807 -12.7581
   -12.6514 -12.5721 -12.4470 -12.3941 -12.3114 -12.2792 -12.1835 -12.1004
   -11.4472 -11.1732  -6.5415  -6.5188  -6.4475  -6.4457  -6.4311  -6.4299
    -4.0412  -3.9765  -2.2927  -2.2386  -1.7272  -1.4025  -1.3057  -1.2472
    -0.8096  -0.7512  -0.6441  -0.5901  -0.4533  -0.2994  -0.2368  -0.1962
     0.1169   0.1873   0.2008   0.3894   0.5573   0.6699   0.6798   0.8922
     1.0645   1.1377   1.1793   1.2560   1.3718   1.5328   1.5558   1.6847
     1.7304   1.9492   2.0253   2.0579   2.1296   2.2480   2.2909   2.3444
     2.3866   2.4794   2.5064   2.6117   2.6356   2.7380   2.7555   2.8177
     2.8755   3.0199   3.0331   3.0764   3.1771   3.2385   3.2567   3.3200
     3.3448   3.3858   3.4512   3.4897   3.5682   3.6707   3.7025   3.7382
     3.8052   3.8194   3.8709   3.9017   3.9509   4.1720   4.2227   4.3629
     5.3897   5.5520   6.5134   7.0713   7.1876   9.8453  10.2843  11.4117
    11.7705  11.8383  12.2257  12.2876  12.5714  12.8923  13.1070  13.1834
    13.2376  13.3631  13.3711  13.4206  13.5559  13.6193  13.6554  13.8187
    13.8993  13.9663  14.1424  14.3551  14.4046

     occupation numbers 
     1.0000   1.0000   1.0000   1.0000   1.0000   1.0000   1.0000   1.0000
     1.0000   1.0000   1.0000   1.0000   1.0000   1.0000   1.0000   1.0000
     1.0000   1.0000   1.0000   1.0000   1.0000   1.0000   1.0000   1.0000
     1.0000   1.0000   1.0000   1.0000   1.0000   1.0000   1.0000   1.0000
     1.0000   1.0000   1.0000   1.0000   1.0000   1.0000   1.0000   1.0000
     1.0000   1.0000   1.0000   1.0000   1.0000   1.0000   1.0000   1.0000
     1.0000   1.0000   1.0000   1.0000   1.0000   1.0000   1.0000   1.0000
     1.0000   1.0000   1.0000   1.0000   1.0000   1.0000   1.0000   1.0000
     1.0000   1.0000   1.0000   1.0000   1.0000   1.0000   1.0000   1.0000
     1.0000   1.0000   1.0000   1.0000   1.0000   1.0000   1.0000   1.0000
     1.0000   1.0000   1.0000   1.0000   1.0000   1.0000   1.0000   1.0000
     1.0000   1.0000   1.0000   1.0000   1.0000   1.0000   1.0000   1.0000
     1.0000   1.0000   1.0000   1.0000   1.0000   1.0000   1.0000   1.0000
     1.0000   1.0000   1.0000   1.0000   1.0000   1.0000   1.0000   1.0000
     1.0000   1.0000   1.0000   1.0000   1.0000   1.0000   1.0000   1.0000
     1.0000   1.0000   1.0000   1.0000   1.0000   1.0000   1.0000   1.0000
     1.0000   1.0000   1.0000   1.0000   1.0000   0.0000   0.0000   0.0000
     0.0000   0.0000   0.0000   0.0000   0.0000   0.0000   0.0000   0.0000
     0.0000   0.0000   0.0000   0.0000   0.0000   0.0000   0.0000   0.0000
     0.0000   0.0000   0.0000   0.0000   0.0000

          k = 0.1667 0.0000-0.1457 ( 25956 PWs)   bands (ev):

   -81.0654 -67.4806 -67.4429 -67.3003 -67.1026 -66.9737 -48.0789 -46.7812
   -46.5140 -34.2510 -34.2306 -34.2233 -34.2053 -34.1982 -34.1800 -34.0634
   -34.0589 -34.0373 -33.8628 -33.8546 -33.8495 -33.7426 -33.7220 -33.7150
   -22.9606 -22.9529 -14.9310 -14.8966 -14.0801 -14.0533 -13.6581 -13.6360
   -13.2858 -13.1773 -13.1271 -13.0182 -12.8522 -12.7847 -12.7833 -12.7586
   -12.6543 -12.5717 -12.4428 -12.3979 -12.3047 -12.2845 -12.1866 -12.0977
   -11.4471 -11.1730  -6.5416  -6.5189  -6.4475  -6.4457  -6.4310  -6.4299
    -4.0244  -3.9937  -2.2891  -2.2403  -1.7408  -1.3993  -1.3034  -1.2537
    -0.8002  -0.7625  -0.6371  -0.5578  -0.4803  -0.2878  -0.2697  -0.1584
     0.0868   0.1777   0.2198   0.3958   0.5848   0.6599   0.7464   0.8702
     1.0200   1.1506   1.1586   1.2605   1.3960   1.5055   1.5806   1.6321
     1.7687   1.9549   1.9778   2.0604   2.0972   2.1879   2.2752   2.3119
     2.3766   2.5174   2.5800   2.6036   2.6472   2.7306   2.7896   2.8224
     2.9130   2.9867   3.0635   3.1054   3.2243   3.2508   3.2663   3.2792
     3.3423   3.4081   3.4392   3.5255   3.5472   3.5712   3.7084   3.7337
     3.7950   3.8257   3.8368   3.9414   3.9753   4.1547   4.2115   4.3694
     5.3872   5.5563   6.5140   7.0711   7.1897   9.6505  10.5318  11.4435
    11.7993  11.8485  12.2509  12.2872  12.6132  12.9247  12.9903  13.1123
    13.1944  13.2796  13.3314  13.3825  13.5528  13.6052  13.6729  13.8018
    13.9299  14.1078  14.2179  14.3351  14.4035

     occupation numbers 
     1.0000   1.0000   1.0000   1.0000   1.0000   1.0000   1.0000   1.0000
     1.0000   1.0000   1.0000   1.0000   1.0000   1.0000   1.0000   1.0000
     1.0000   1.0000   1.0000   1.0000   1.0000   1.0000   1.0000   1.0000
     1.0000   1.0000   1.0000   1.0000   1.0000   1.0000   1.0000   1.0000
     1.0000   1.0000   1.0000   1.0000   1.0000   1.0000   1.0000   1.0000
     1.0000   1.0000   1.0000   1.0000   1.0000   1.0000   1.0000   1.0000
     1.0000   1.0000   1.0000   1.0000   1.0000   1.0000   1.0000   1.0000
     1.0000   1.0000   1.0000   1.0000   1.0000   1.0000   1.0000   1.0000
     1.0000   1.0000   1.0000   1.0000   1.0000   1.0000   1.0000   1.0000
     1.0000   1.0000   1.0000   1.0000   1.0000   1.0000   1.0000   1.0000
     1.0000   1.0000   1.0000   1.0000   1.0000   1.0000   1.0000   1.0000
     1.0000   1.0000   1.0000   1.0000   1.0000   1.0000   1.0000   1.0000
     1.0000   1.0000   1.0000   1.0000   1.0000   1.0000   1.0000   1.0000
     1.0000   1.0000   1.0000   1.0000   1.0000   1.0000   1.0000   1.0000
     1.0000   1.0000   1.0000   1.0000   1.0000   1.0000   1.0000   1.0000
     1.0000   1.0000   1.0000   1.0000   1.0000   1.0000   1.0000   1.0000
     1.0000   1.0000   1.0000   1.0000   1.0000   0.0000   0.0000   0.0000
     0.0000   0.0000   0.0000   0.0000   0.0000   0.0000   0.0000   0.0000
     0.0000   0.0000   0.0000   0.0000   0.0000   0.0000   0.0000   0.0000
     0.0000   0.0000   0.0000   0.0000   0.0000

          k = 0.1667 0.1921 0.0301 ( 25937 PWs)   bands (ev):

   -81.0654 -67.4806 -67.4429 -67.3003 -67.1026 -66.9737 -48.0789 -46.7811
   -46.5140 -34.2510 -34.2306 -34.2233 -34.2053 -34.1982 -34.1800 -34.0634
   -34.0589 -34.0373 -33.8627 -33.8545 -33.8495 -33.7426 -33.7220 -33.7150
   -22.9605 -22.9530 -14.9351 -14.8814 -14.1218 -14.0722 -13.6483 -13.6193
   -13.2311 -13.1401 -13.0776 -13.0202 -12.8741 -12.8554 -12.8064 -12.7747
   -12.6754 -12.5644 -12.4473 -12.3729 -12.3152 -12.2705 -12.1935 -12.0885
   -11.4466 -11.1716  -6.5389  -6.5220  -6.4464  -6.4422  -6.4348  -6.4307
    -4.0018  -3.9390  -2.4783  -2.3735  -1.6807  -1.3435  -1.2131  -1.1862
    -0.8129  -0.7601  -0.6852  -0.5869  -0.4436  -0.2509  -0.2010  -0.0513
     0.0449   0.1606   0.2509   0.4374   0.5152   0.6274   0.7226   0.7872
     1.0145   1.0874   1.1688   1.2599   1.3458   1.4851   1.6155   1.6600
     1.7439   1.9331   1.9680   2.0422   2.1476   2.1979   2.3261   2.3763
     2.4615   2.5303   2.5553   2.6063   2.6653   2.7860   2.8130   2.8681
     2.9296   2.9747   3.0430   3.0949   3.1463   3.2113   3.2627   3.2991
     3.3859   3.4156   3.4618   3.4941   3.5380   3.5874   3.6473   3.7545
     3.7760   3.8078   3.8887   3.9168   3.9654   4.0681   4.2064   4.2943
     5.3919   5.5469   6.5222   7.0437   7.2019   9.8220  10.6565  11.0405
    11.5579  11.9328  12.2872  12.6396  12.6692  12.8317  13.0063  13.0628
    13.1483  13.2950  13.3251  13.4451  13.4981  13.6059  13.7132  13.7793
    13.9115  14.0134  14.2678  14.4182  14.5754

     occupation numbers 
     1.0000   1.0000   1.0000   1.0000   1.0000   1.0000   1.0000   1.0000
     1.0000   1.0000   1.0000   1.0000   1.0000   1.0000   1.0000   1.0000
     1.0000   1.0000   1.0000   1.0000   1.0000   1.0000   1.0000   1.0000
     1.0000   1.0000   1.0000   1.0000   1.0000   1.0000   1.0000   1.0000
     1.0000   1.0000   1.0000   1.0000   1.0000   1.0000   1.0000   1.0000
     1.0000   1.0000   1.0000   1.0000   1.0000   1.0000   1.0000   1.0000
     1.0000   1.0000   1.0000   1.0000   1.0000   1.0000   1.0000   1.0000
     1.0000   1.0000   1.0000   1.0000   1.0000   1.0000   1.0000   1.0000
     1.0000   1.0000   1.0000   1.0000   1.0000   1.0000   1.0000   1.0000
     1.0000   1.0000   1.0000   1.0000   1.0000   1.0000   1.0000   1.0000
     1.0000   1.0000   1.0000   1.0000   1.0000   1.0000   1.0000   1.0000
     1.0000   1.0000   1.0000   1.0000   1.0000   1.0000   1.0000   1.0000
     1.0000   1.0000   1.0000   1.0000   1.0000   1.0000   1.0000   1.0000
     1.0000   1.0000   1.0000   1.0000   1.0000   1.0000   1.0000   1.0000
     1.0000   1.0000   1.0000   1.0000   1.0000   1.0000   1.0000   1.0000
     1.0000   1.0000   1.0000   1.0000   1.0000   1.0000   1.0000   1.0000
     1.0000   1.0000   1.0000   1.0000   1.0000   0.0000   0.0000   0.0000
     0.0000   0.0000   0.0000   0.0000   0.0000   0.0000   0.0000   0.0000
     0.0000   0.0000   0.0000   0.0000   0.0000   0.0000   0.0000   0.0000
     0.0000   0.0000   0.0000   0.0000   0.0000

          k = 0.1667 0.1921 0.2059 ( 25944 PWs)   bands (ev):

   -81.0654 -67.4806 -67.4429 -67.3003 -67.1026 -66.9737 -48.0789 -46.7811
   -46.5140 -34.2510 -34.2306 -34.2233 -34.2053 -34.1982 -34.1800 -34.0634
   -34.0589 -34.0373 -33.8627 -33.8545 -33.8495 -33.7426 -33.7220 -33.7150
   -22.9605 -22.9530 -14.9185 -14.8991 -14.1084 -14.0866 -13.6462 -13.6214
   -13.2234 -13.1361 -13.0971 -13.0061 -12.8841 -12.8541 -12.8002 -12.7744
   -12.6729 -12.5689 -12.4423 -12.3801 -12.3082 -12.2775 -12.1815 -12.0981
   -11.4458 -11.1727  -6.5390  -6.5219  -6.4464  -6.4421  -6.4347  -6.4306
    -4.0001  -3.9409  -2.4535  -2.4015  -1.6530  -1.3312  -1.2379  -1.1625
    -0.8200  -0.7513  -0.6849  -0.5981  -0.4271  -0.2978  -0.1851  -0.1230
     0.0821   0.1598   0.2065   0.3887   0.5141   0.6269   0.7063   0.8217
     1.0188   1.0718   1.2099   1.2841   1.3657   1.5435   1.6144   1.7069
     1.7994   1.8929   1.9581   2.0793   2.1808   2.2222   2.3468   2.3947
     2.4246   2.5136   2.5344   2.5682   2.6431   2.7361   2.7809   2.8683
     2.9002   2.9557   3.0195   3.1211   3.1496   3.1952   3.2294   3.3510
     3.3697   3.4007   3.4684   3.4860   3.5755   3.6102   3.6645   3.7366
     3.7711   3.7882   3.8651   3.8961   3.9553   4.1338   4.2241   4.2988
     5.3918   5.5418   6.5218   7.0409   7.2021  10.1417  10.5643  10.8653
    11.2416  11.8994  12.2710  12.6497  12.7382  12.8867  13.0999  13.2212
    13.2655  13.3530  13.4182  13.4446  13.5175  13.5975  13.6797  13.7433
    13.8214  14.0151  14.1796  14.2911  14.5075

     occupation numbers 
     1.0000   1.0000   1.0000   1.0000   1.0000   1.0000   1.0000   1.0000
     1.0000   1.0000   1.0000   1.0000   1.0000   1.0000   1.0000   1.0000
     1.0000   1.0000   1.0000   1.0000   1.0000   1.0000   1.0000   1.0000
     1.0000   1.0000   1.0000   1.0000   1.0000   1.0000   1.0000   1.0000
     1.0000   1.0000   1.0000   1.0000   1.0000   1.0000   1.0000   1.0000
     1.0000   1.0000   1.0000   1.0000   1.0000   1.0000   1.0000   1.0000
     1.0000   1.0000   1.0000   1.0000   1.0000   1.0000   1.0000   1.0000
     1.0000   1.0000   1.0000   1.0000   1.0000   1.0000   1.0000   1.0000
     1.0000   1.0000   1.0000   1.0000   1.0000   1.0000   1.0000   1.0000
     1.0000   1.0000   1.0000   1.0000   1.0000   1.0000   1.0000   1.0000
     1.0000   1.0000   1.0000   1.0000   1.0000   1.0000   1.0000   1.0000
     1.0000   1.0000   1.0000   1.0000   1.0000   1.0000   1.0000   1.0000
     1.0000   1.0000   1.0000   1.0000   1.0000   1.0000   1.0000   1.0000
     1.0000   1.0000   1.0000   1.0000   1.0000   1.0000   1.0000   1.0000
     1.0000   1.0000   1.0000   1.0000   1.0000   1.0000   1.0000   1.0000
     1.0000   1.0000   1.0000   1.0000   1.0000   1.0000   1.0000   1.0000
     1.0000   1.0000   1.0000   1.0000   1.0000   0.0000   0.0000   0.0000
     0.0000   0.0000   0.0000   0.0000   0.0000   0.0000   0.0000   0.0000
     0.0000   0.0000   0.0000   0.0000   0.0000   0.0000   0.0000   0.0000
     0.0000   0.0000   0.0000   0.0000   0.0000

          k = 0.1667 0.1921-0.1457 ( 25923 PWs)   bands (ev):

   -81.0654 -67.4806 -67.4429 -67.3003 -67.1026 -66.9737 -48.0789 -46.7811
   -46.5140 -34.2510 -34.2306 -34.2233 -34.2053 -34.1981 -34.1800 -34.0634
   -34.0589 -34.0373 -33.8627 -33.8545 -33.8495 -33.7426 -33.7220 -33.7150
   -22.9605 -22.9530 -14.9257 -14.8915 -14.1119 -14.0830 -13.6435 -13.6242
   -13.2260 -13.1364 -13.0904 -13.0120 -12.8848 -12.8463 -12.8086 -12.7736
   -12.6729 -12.5681 -12.4375 -12.3834 -12.3014 -12.2841 -12.1842 -12.0957
   -11.4457 -11.1725  -6.5390  -6.5220  -6.4464  -6.4421  -6.4347  -6.4306
    -3.9844  -3.9570  -2.4545  -2.3999  -1.6634  -1.3349  -1.2398  -1.1598
    -0.7987  -0.7764  -0.6534  -0.5924  -0.4679  -0.2634  -0.2043  -0.1006
     0.0521   0.1585   0.2084   0.4115   0.5329   0.6149   0.7644   0.8199
     0.9821   1.0736   1.1771   1.2896   1.3838   1.4962   1.6361   1.7111
     1.7788   1.9100   1.9398   2.0979   2.1345   2.2058   2.3012   2.3625
     2.4084   2.5221   2.5614   2.6042   2.6607   2.7519   2.8073   2.8672
     2.9419   2.9712   3.0514   3.0684   3.1751   3.1915   3.2227   3.3448
     3.3811   3.4300   3.4701   3.5178   3.5512   3.5843   3.6659   3.7190
     3.7546   3.7991   3.8453   3.9119   3.9539   4.1229   4.2119   4.2982
     5.3895   5.5469   6.5223   7.0398   7.2025   9.9911  10.7668  10.7976
    11.3535  11.9693  12.3170  12.5983  12.7106  12.8916  13.0493  13.1411
    13.2107  13.2771  13.3297  13.4132  13.5364  13.6379  13.6941  13.8202
    13.9307  13.9472  14.1430  14.3535  14.4983

     occupation numbers 
     1.0000   1.0000   1.0000   1.0000   1.0000   1.0000   1.0000   1.0000
     1.0000   1.0000   1.0000   1.0000   1.0000   1.0000   1.0000   1.0000
     1.0000   1.0000   1.0000   1.0000   1.0000   1.0000   1.0000   1.0000
     1.0000   1.0000   1.0000   1.0000   1.0000   1.0000   1.0000   1.0000
     1.0000   1.0000   1.0000   1.0000   1.0000   1.0000   1.0000   1.0000
     1.0000   1.0000   1.0000   1.0000   1.0000   1.0000   1.0000   1.0000
     1.0000   1.0000   1.0000   1.0000   1.0000   1.0000   1.0000   1.0000
     1.0000   1.0000   1.0000   1.0000   1.0000   1.0000   1.0000   1.0000
     1.0000   1.0000   1.0000   1.0000   1.0000   1.0000   1.0000   1.0000
     1.0000   1.0000   1.0000   1.0000   1.0000   1.0000   1.0000   1.0000
     1.0000   1.0000   1.0000   1.0000   1.0000   1.0000   1.0000   1.0000
     1.0000   1.0000   1.0000   1.0000   1.0000   1.0000   1.0000   1.0000
     1.0000   1.0000   1.0000   1.0000   1.0000   1.0000   1.0000   1.0000
     1.0000   1.0000   1.0000   1.0000   1.0000   1.0000   1.0000   1.0000
     1.0000   1.0000   1.0000   1.0000   1.0000   1.0000   1.0000   1.0000
     1.0000   1.0000   1.0000   1.0000   1.0000   1.0000   1.0000   1.0000
     1.0000   1.0000   1.0000   1.0000   1.0000   0.0000   0.0000   0.0000
     0.0000   0.0000   0.0000   0.0000   0.0000   0.0000   0.0000   0.0000
     0.0000   0.0000   0.0000   0.0000   0.0000   0.0000   0.0000   0.0000
     0.0000   0.0000   0.0000   0.0000   0.0000

          k = 0.3333 0.0000 0.0601 ( 25907 PWs)   bands (ev):

   -81.0654 -67.4805 -67.4429 -67.3003 -67.1026 -66.9737 -48.0788 -46.7811
   -46.5140 -34.2503 -34.2321 -34.2223 -34.2060 -34.1975 -34.1801 -34.0633
   -34.0589 -34.0373 -33.8628 -33.8545 -33.8495 -33.7427 -33.7221 -33.7148
   -22.9602 -22.9526 -14.7787 -14.7287 -14.2061 -14.1671 -13.7869 -13.7496
   -13.1853 -13.0648 -13.0077 -12.9912 -12.9017 -12.8333 -12.7799 -12.7790
   -12.6614 -12.5842 -12.5062 -12.4531 -12.3900 -12.3091 -12.1786 -12.0822
   -11.4144 -11.2070  -6.5443  -6.5247  -6.4440  -6.4404  -6.4326  -6.4240
    -3.6281  -3.5555  -2.4398  -2.3263  -1.7478  -1.5899  -1.3555  -1.1968
    -0.7890  -0.7475  -0.6753  -0.6137  -0.3481  -0.2204  -0.1758  -0.0456
    -0.0065   0.1852   0.2876   0.4284   0.5464   0.6534   0.7221   0.7832
     0.9140   1.0367   1.1652   1.2139   1.4043   1.4606   1.5490   1.6187
     1.6669   1.7344   1.8724   1.9842   2.0998   2.2550   2.3694   2.4339
     2.4757   2.5092   2.5969   2.6860   2.7399   2.7537   2.8035   2.9022
     2.9413   3.0079   3.0109   3.1191   3.1597   3.2107   3.2231   3.2323
     3.2954   3.3381   3.4391   3.4966   3.5615   3.6008   3.6378   3.7125
     3.7325   3.7614   3.8434   3.8810   3.9185   3.9458   4.0909   4.2951
     5.4717   5.4890   6.5220   7.0730   7.1757  10.2523  11.2361  11.4581
    11.9785  12.0283  12.2237  12.3268  12.6837  12.7664  12.7915  13.0650
    13.1708  13.2448  13.3348  13.5074  13.5290  13.6266  13.7464  13.9656
    14.0057  14.1534  14.2418  14.3374  14.4526

     occupation numbers 
     1.0000   1.0000   1.0000   1.0000   1.0000   1.0000   1.0000   1.0000
     1.0000   1.0000   1.0000   1.0000   1.0000   1.0000   1.0000   1.0000
     1.0000   1.0000   1.0000   1.0000   1.0000   1.0000   1.0000   1.0000
     1.0000   1.0000   1.0000   1.0000   1.0000   1.0000   1.0000   1.0000
     1.0000   1.0000   1.0000   1.0000   1.0000   1.0000   1.0000   1.0000
     1.0000   1.0000   1.0000   1.0000   1.0000   1.0000   1.0000   1.0000
     1.0000   1.0000   1.0000   1.0000   1.0000   1.0000   1.0000   1.0000
     1.0000   1.0000   1.0000   1.0000   1.0000   1.0000   1.0000   1.0000
     1.0000   1.0000   1.0000   1.0000   1.0000   1.0000   1.0000   1.0000
     1.0000   1.0000   1.0000   1.0000   1.0000   1.0000   1.0000   1.0000
     1.0000   1.0000   1.0000   1.0000   1.0000   1.0000   1.0000   1.0000
     1.0000   1.0000   1.0000   1.0000   1.0000   1.0000   1.0000   1.0000
     1.0000   1.0000   1.0000   1.0000   1.0000   1.0000   1.0000   1.0000
     1.0000   1.0000   1.0000   1.0000   1.0000   1.0000   1.0000   1.0000
     1.0000   1.0000   1.0000   1.0000   1.0000   1.0000   1.0000   1.0000
     1.0000   1.0000   1.0000   1.0000   1.0000   1.0000   1.0000   1.0000
     1.0000   1.0000   1.0000   1.0000   1.0000   0.0000   0.0000   0.0000
     0.0000   0.0000   0.0000   0.0000   0.0000   0.0000   0.0000   0.0000
     0.0000   0.0000   0.0000   0.0000   0.0000   0.0000   0.0000   0.0000
     0.0000   0.0000   0.0000   0.0000   0.0000

          k = 0.3333 0.0000 0.2360 ( 25948 PWs)   bands (ev):

   -81.0654 -67.4805 -67.4429 -67.3003 -67.1026 -66.9737 -48.0788 -46.7812
   -46.5140 -34.2503 -34.2321 -34.2224 -34.2060 -34.1975 -34.1801 -34.0633
   -34.0589 -34.0373 -33.8628 -33.8545 -33.8496 -33.7427 -33.7221 -33.7149
   -22.9602 -22.9526 -14.7602 -14.7482 -14.2038 -14.1695 -13.7797 -13.7574
   -13.1769 -13.0752 -13.0144 -12.9819 -12.8983 -12.8291 -12.7997 -12.7664
   -12.6602 -12.5860 -12.4999 -12.4629 -12.3747 -12.3208 -12.1677 -12.0925
   -11.4130 -11.2084  -6.5444  -6.5247  -6.4439  -6.4403  -6.4325  -6.4240
    -3.6297  -3.5539  -2.4132  -2.3566  -1.7192  -1.6284  -1.3266  -1.1861
    -0.7914  -0.7550  -0.6596  -0.6166  -0.3136  -0.2230  -0.1796  -0.1616
     0.0459   0.1456   0.2821   0.3954   0.5561   0.6472   0.6952   0.8348
     0.9140   1.0818   1.1789   1.2191   1.3414   1.4843   1.5721   1.6164
     1.7187   1.7645   1.8237   2.0643   2.1478   2.2875   2.3048   2.4236
     2.4488   2.4795   2.5537   2.6648   2.7375   2.7770   2.8269   2.8310
     2.9219   2.9690   3.0643   3.0975   3.1034   3.2137   3.2349   3.2583
     3.3312   3.3945   3.4582   3.5085   3.5681   3.5814   3.6273   3.6989
     3.7135   3.7510   3.8031   3.8458   3.9208   4.0332   4.0965   4.3017
     5.4695   5.4875   6.5211   7.0729   7.1761  10.5767  10.7820  11.5165
    11.9508  12.0368  12.2118  12.3692  12.6190  12.7101  12.8198  12.9322
    13.3180  13.3460  13.4274  13.4798  13.5241  13.6330  13.7965  13.9496
    13.9734  13.9906  14.0634  14.4790  14.6160

     occupation numbers 
     1.0000   1.0000   1.0000   1.0000   1.0000   1.0000   1.0000   1.0000
     1.0000   1.0000   1.0000   1.0000   1.0000   1.0000   1.0000   1.0000
     1.0000   1.0000   1.0000   1.0000   1.0000   1.0000   1.0000   1.0000
     1.0000   1.0000   1.0000   1.0000   1.0000   1.0000   1.0000   1.0000
     1.0000   1.0000   1.0000   1.0000   1.0000   1.0000   1.0000   1.0000
     1.0000   1.0000   1.0000   1.0000   1.0000   1.0000   1.0000   1.0000
     1.0000   1.0000   1.0000   1.0000   1.0000   1.0000   1.0000   1.0000
     1.0000   1.0000   1.0000   1.0000   1.0000   1.0000   1.0000   1.0000
     1.0000   1.0000   1.0000   1.0000   1.0000   1.0000   1.0000   1.0000
     1.0000   1.0000   1.0000   1.0000   1.0000   1.0000   1.0000   1.0000
     1.0000   1.0000   1.0000   1.0000   1.0000   1.0000   1.0000   1.0000
     1.0000   1.0000   1.0000   1.0000   1.0000   1.0000   1.0000   1.0000
     1.0000   1.0000   1.0000   1.0000   1.0000   1.0000   1.0000   1.0000
     1.0000   1.0000   1.0000   1.0000   1.0000   1.0000   1.0000   1.0000
     1.0000   1.0000   1.0000   1.0000   1.0000   1.0000   1.0000   1.0000
     1.0000   1.0000   1.0000   1.0000   1.0000   1.0000   1.0000   1.0000
     1.0000   1.0000   1.0000   1.0000   1.0000   0.0000   0.0000   0.0000
     0.0000   0.0000   0.0000   0.0000   0.0000   0.0000   0.0000   0.0000
     0.0000   0.0000   0.0000   0.0000   0.0000   0.0000   0.0000   0.0000
     0.0000   0.0000   0.0000   0.0000   0.0000

          k = 0.3333 0.0000-0.1157 ( 25913 PWs)   bands (ev):

   -81.0653 -67.4805 -67.4429 -67.3003 -67.1026 -66.9737 -48.0788 -46.7812
[...]
     atom   13 type  7   force =     0.00000000    0.00000000    0.00000000
     atom   14 type  1   force =     0.00000000    0.00000000    0.00000000
     atom   15 type  1   force =     0.00000000    0.00000000    0.00000000
     atom   16 type  6   force =     0.00000000    0.00000000    0.00000000
     atom   17 type  6   force =     0.00000000    0.00000000    0.00000000
     atom   18 type  6   force =     0.00000000    0.00000000    0.00000000
     atom   19 type  6   force =     0.00000000    0.00000000    0.00000000
     atom   20 type  6   force =     0.00000000    0.00000000    0.00000000
     atom   21 type  6   force =     0.00000000    0.00000000    0.00000000
     atom   22 type  6   force =     0.00000000    0.00000000    0.00000000
     atom   23 type  6   force =     0.00000000    0.00000000    0.00000000
     atom   24 type  6   force =     0.00000000    0.00000000    0.00000000
     atom   25 type  6   force =     0.00000000    0.00000000    0.00000000
     atom   26 type  6   force =     0.00000000    0.00000000    0.00000000
     atom   27 type  6   force =     0.00000000    0.00000000    0.00000000
     atom   28 type  6   force =     0.00000000    0.00000000    0.00000000
     atom   29 type  6   force =     0.00000000    0.00000000    0.00000000
     atom   30 type  6   force =     0.00000000    0.00000000    0.00000000
     atom   31 type  6   force =     0.00000000    0.00000000    0.00000000
     atom   32 type  6   force =     0.00000000    0.00000000    0.00000000
     atom   33 type  6   force =     0.00000000    0.00000000    0.00000000
     atom   34 type  6   force =     0.00000000    0.00000000    0.00000000
     atom   35 type  6   force =     0.00000000    0.00000000    0.00000000
     atom   36 type  6   force =     0.00000000    0.00000000    0.00000000
     atom   37 type  6   force =     0.00000000    0.00000000    0.00000000
     atom   38 type  6   force =     0.00000000    0.00000000    0.00000000
     atom   39 type  6   force =     0.00000000    0.00000000    0.00000000
     atom   40 type  3   force =     0.00000000    0.00000000    0.00000000
     atom   41 type  3   force =     0.00000000    0.00000000    0.00000000
     atom   42 type  3   force =     0.00000000    0.00000000    0.00000000
     atom   43 type  3   force =     0.00000000    0.00000000    0.00000000
     atom   44 type  2   force =     0.00000000    0.00000000    0.00000000
     The SCF correction term to forces
     atom    1 type  4   force =     0.00000000    0.00000806   -0.00000000
     atom    2 type  4   force =     0.00000000   -0.00001244    0.00000000
     atom    3 type  5   force =     0.00000000    0.00000336    0.00000000
     atom    4 type  5   force =    -0.00000000   -0.00000163   -0.00000000
     atom    5 type  5   force =     0.00000000   -0.00001612   -0.00000000
     atom    6 type  5   force =    -0.00000000    0.00002600    0.00000000
     atom    7 type  5   force =    -0.00000000   -0.00003367    0.00000000
     atom    8 type  7   force =    -0.00000183    0.00000026   -0.00001372
     atom    9 type  7   force =     0.00000183    0.00000026    0.00001372
     atom   10 type  7   force =    -0.00000040   -0.00000130    0.00001338
     atom   11 type  7   force =     0.00000040   -0.00000130   -0.00001338
     atom   12 type  7   force =    -0.00000115   -0.00000406   -0.00001835
     atom   13 type  7   force =     0.00000115   -0.00000406    0.00001835
     atom   14 type  1   force =     0.00000151    0.00000050    0.00001418
     atom   15 type  1   force =    -0.00000151    0.00000050   -0.00001418
     atom   16 type  6   force =    -0.00002535   -0.00000978   -0.00002708
     atom   17 type  6   force =     0.00002535   -0.00000978    0.00002708
     atom   18 type  6   force =    -0.00000239    0.00000576    0.00002338
     atom   19 type  6   force =     0.00000239    0.00000576   -0.00002338
     atom   20 type  6   force =     0.00000671    0.00000498   -0.00003542
     atom   21 type  6   force =    -0.00000671    0.00000499    0.00003542
     atom   22 type  6   force =    -0.00000229   -0.00000840    0.00000896
     atom   23 type  6   force =     0.00000229   -0.00000840   -0.00000896
     atom   24 type  6   force =    -0.00000924    0.00001473   -0.00002099
     atom   25 type  6   force =     0.00000924    0.00001473    0.00002099
     atom   26 type  6   force =    -0.00000026   -0.00000100   -0.00001291
     atom   27 type  6   force =     0.00000026   -0.00000100    0.00001291
     atom   28 type  6   force =    -0.00000891    0.00000919    0.00001627
     atom   29 type  6   force =     0.00000891    0.00000919   -0.00001627
     atom   30 type  6   force =     0.00002693   -0.00003392   -0.00001887
     atom   31 type  6   force =    -0.00002693   -0.00003392    0.00001887
     atom   32 type  6   force =    -0.00005874   -0.00000566   -0.00000965
     atom   33 type  6   force =     0.00005874   -0.00000566    0.00000965
     atom   34 type  6   force =     0.00001985   -0.00000678    0.00001456
     atom   35 type  6   force =    -0.00001985   -0.00000678   -0.00001456
     atom   36 type  6   force =    -0.00001634    0.00001358   -0.00002739
     atom   37 type  6   force =     0.00001634    0.00001358    0.00002739
     atom   38 type  6   force =    -0.00000741    0.00001036   -0.00000111
     atom   39 type  6   force =     0.00000741    0.00001036    0.00000111
     atom   40 type  3   force =    -0.00000021    0.00000048   -0.00000750
     atom   41 type  3   force =     0.00000021    0.00000048    0.00000750
     atom   42 type  3   force =    -0.00000030    0.00000024   -0.00000236
     atom   43 type  3   force =     0.00000030    0.00000024    0.00000236
     atom   44 type  2   force =     0.00000000   -0.00003488    0.00000000

     DFT-D3 dispersion contribution to forces:
     atom    1 type  4   force =    -0.00000000    0.00053132    0.00000000
     atom    2 type  4   force =     0.00000000    0.00001935    0.00000000
     atom    3 type  5   force =     0.00000000    0.00041657   -0.00000000
     atom    4 type  5   force =    -0.00000000   -0.00139510   -0.00000000
     atom    5 type  5   force =     0.00000000   -0.00043303    0.00000000
     atom    6 type  5   force =    -0.00000000    0.00114510    0.00000000
     atom    7 type  5   force =     0.00000000   -0.00030467   -0.00000000
     atom    8 type  7   force =    -0.00000135   -0.00006514   -0.00017971
     atom    9 type  7   force =     0.00000135   -0.00006514    0.00017971
     atom   10 type  7   force =     0.00005419    0.00002704    0.00035201
     atom   11 type  7   force =    -0.00005419    0.00002704   -0.00035201
     atom   12 type  7   force =     0.00003631    0.00027032   -0.00034559
     atom   13 type  7   force =    -0.00003631    0.00027032    0.00034559
     atom   14 type  1   force =    -0.00017909   -0.00001748   -0.00104691
     atom   15 type  1   force =     0.00017909   -0.00001748    0.00104691
     atom   16 type  6   force =    -0.00005896    0.00014050    0.00049939
     atom   17 type  6   force =     0.00005896    0.00014050   -0.00049940
     atom   18 type  6   force =     0.00000248    0.00000449   -0.00031969
     atom   19 type  6   force =    -0.00000249    0.00000449    0.00031969
     atom   20 type  6   force =    -0.00001922   -0.00000720    0.00032348
     atom   21 type  6   force =     0.00001922   -0.00000720   -0.00032348
     atom   22 type  6   force =    -0.00008410   -0.00000831    0.00003152
     atom   23 type  6   force =     0.00008410   -0.00000831   -0.00003152
     atom   24 type  6   force =    -0.00017767    0.00108255    0.00006735
     atom   25 type  6   force =     0.00017767    0.00108255   -0.00006735
     atom   26 type  6   force =     0.00073979    0.00007158    0.00020232
     atom   27 type  6   force =    -0.00073979    0.00007158   -0.00020232
     atom   28 type  6   force =     0.00041262   -0.00056478   -0.00023464
     atom   29 type  6   force =    -0.00041262   -0.00056478    0.00023464
     atom   30 type  6   force =    -0.00019935    0.00031991    0.00031985
     atom   31 type  6   force =     0.00019935    0.00031991   -0.00031985
     atom   32 type  6   force =     0.00082269   -0.00040763    0.00038831
     atom   33 type  6   force =    -0.00082269   -0.00040763   -0.00038831
     atom   34 type  6   force =     0.00068119   -0.00066024   -0.00026704
     atom   35 type  6   force =    -0.00068119   -0.00066024    0.00026704
     atom   36 type  6   force =    -0.00014216   -0.00022493   -0.00036739
     atom   37 type  6   force =     0.00014216   -0.00022493    0.00036739
     atom   38 type  6   force =     0.00000735   -0.00000141   -0.00053467
     atom   39 type  6   force =    -0.00000735   -0.00000141    0.00053467
     atom   40 type  3   force =    -0.00009768    0.00026860   -0.00012054
     atom   41 type  3   force =     0.00009768    0.00026860    0.00012054
     atom   42 type  3   force =     0.00018769   -0.00054805   -0.00024497
     atom   43 type  3   force =    -0.00018769   -0.00054805    0.00024497
     atom   44 type  2   force =    -0.00000000    0.00066082   -0.00000000

     Total force =     0.003239     Total SCF correction =     0.000176

     DFT-D3 dispersion Force =     0.004411


     Computing stress (Cartesian axis) and pressure


     negative rho (up, down):  0.000E+00 3.651E-04
          total   stress  (Ry/bohr**3)                   (kbar)     P=       17.32
   0.00011321   0.00000000  -0.00000570           16.65        0.00       -0.84
   0.00000000   0.00013194   0.00000000            0.00       19.41        0.00
  -0.00000570   0.00000000   0.00010801           -0.84        0.00       15.89

     kinetic stress (kbar)  20775.02      0.00    -59.11
                                0.00  20868.74      0.00
                              -59.11      0.00  20558.40

     local   stress (kbar) -38647.17      0.00   -255.33
                                0.00 -37917.02     -0.00
                             -255.33     -0.00  17088.35

     nonloc. stress (kbar)   3933.27      0.00      7.35
                                0.00   3921.74      0.00
                                7.35      0.00   3911.31

     hartree stress (kbar)  22031.95     -0.00     90.06
                               -0.00  21737.47     -0.00
                               90.06     -0.00  -5184.91

     exc-cor stress (kbar)  -2920.76     -0.00     -0.01
                               -0.00  -2920.53     -0.00
                               -0.01     -0.00  -2917.45

     corecor stress (kbar)  -1921.71      0.00      0.46
                                0.00  -1922.47      0.00
                                0.46      0.00  -1923.78

     ewald   stress (kbar)  -3218.44     -0.00    215.79
                               -0.00  -3733.01      0.00
                              215.79      0.00 -31504.14

     hubbard stress (kbar)      0.00      0.00      0.00
                                0.00      0.00      0.00
                                0.00      0.00      0.00

     DFT-D   stress (kbar)    -15.52     -0.00     -0.05
                               -0.00    -15.51     -0.00
                               -0.05     -0.00    -11.89

     XDM     stress (kbar)      0.00      0.00      0.00
                                0.00      0.00      0.00
                                0.00      0.00      0.00

     dft-nl  stress (kbar)      0.00      0.00      0.00
                                0.00      0.00      0.00
                                0.00      0.00      0.00

     TS-vdW  stress (kbar)      0.00      0.00      0.00
                                0.00      0.00      0.00
                                0.00      0.00      0.00

     MDB     stress (kbar)      0.00      0.00      0.00
                                0.00      0.00      0.00
                                0.00      0.00      0.00

     3D-RISM stress (kbar)      0.00      0.00      0.00
                                0.00      0.00      0.00
                                0.00      0.00      0.00

     Energy error            =      2.3E-05 Ry
     Gradient error          =      7.3E-04 Ry/Bohr

     bfgs converged in  23 scf cycles and  22 bfgs steps
     (criteria: energy <  1.0E-04 Ry, force <  1.0E-03 Ry/Bohr)

     End of BFGS Geometry Optimization

     Final energy             =   -2631.2548759786 Ry

     File ./temp/phl-fe1-fe2.bfgs deleted, as requested
Begin final coordinates

ATOMIC_POSITIONS (crystal)
K                0.0000000000        0.4990268266        0.0000000000
K                0.5000000000       -0.0046397059        0.0000000000
Mg              -0.0000000000        0.0064807879        0.5000000000
Mg              -0.0000000000        0.6667100928        0.5000000000
Mg               0.5000000000        0.4961513874        0.5000000000
Mg               0.5000000000        0.8358861082        0.5000000000
Mg               0.5000000000        0.1707286121        0.5000000000
Si               0.0928830904        0.1636759704        0.2204106250
Si               0.9071168956        0.1636759704        0.7795894050
Si               0.9341264982        0.8346381603        0.7715512498
Si               0.0658735018        0.8346381603        0.2284487502
Si               0.5653378615        0.6662324628        0.2270118695
Si               0.4346621385        0.6662324628        0.7729881155
Al               0.4059826329        0.3302694253        0.7771167336
Al               0.5940173671        0.3302694253        0.2228832664
O                0.1371830544        0.1579558903        0.3823293950
O                0.8628169156        0.1579558903        0.6176706340
O                0.8739846229        0.8349045805        0.6106420476
O                0.1260153771        0.8349045805        0.3893579524
O                0.6273392614        0.6696868669        0.3887095702
O                0.3726607386        0.6696868669        0.6112904298
O                0.3598369943        0.3337237510        0.6035903363
O                0.6401630057        0.3337237510        0.3964096637
O                0.3548361868        0.2003041140        0.1640514997
O                0.6451638132        0.2003041140        0.8359484703
O                1.0004963728        0.9970579187        0.1639842475
O               -0.0004963728        0.9970579187        0.8360157375
O                0.6843293895        0.7725828202        0.8312957356
O                0.3156706105        0.7725828202        0.1687042644
O                0.8135858267        0.7343208196        0.1673319931
O                0.1864141733        0.7343208196        0.8326680069
O                0.5030613114        0.5068903223        0.1621586068
O                0.4969386586        0.5068903223        0.8378414082
O                0.1298039929        0.2792074696        0.8403514047
O                0.8701960221        0.2792074696        0.1596485953
O                0.1368447448        0.5119708785        0.3903017853
O                0.8631552702        0.5119708785        0.6096982147
O                0.6342901889        0.9994288435        0.3965759153
O                0.3657098111        0.9994288435        0.6034240547
H                0.1073822174        0.4883716553        0.2966482197
H                0.8926178126        0.4883716553        0.7033517803
H                0.5930209784        0.0156214950        0.3016580356
H                0.4069790216        0.0156214950        0.6983419644
Fe              -0.0000000000        0.3359640558        0.5000000000
End final coordinates



     Writing all to output data dir ./temp/phl-fe1-fe2.save/ :
     XML data file, charge density, pseudopotentials, collected wavefunctions

     init_run     :    386.54s CPU    389.09s WALL (       1 calls)
     electrons    : 263596.12s CPU 264553.00s WALL (      20 calls)
     update_pot   :     53.52s CPU     54.45s WALL (      19 calls)
     forces       :   6131.47s CPU   6148.52s WALL (      20 calls)
     force_dftd3  :     61.38s CPU     61.55s WALL (      20 calls)
     stress       :   9971.93s CPU  10086.55s WALL (      20 calls)
     stres_dftd3  :     61.00s CPU     61.12s WALL (      20 calls)

     Called by init_run:
     wfcinit      :    373.97s CPU    375.38s WALL (       1 calls)
     wfcinit:atom :      0.80s CPU      0.80s WALL (      40 calls)
     wfcinit:wfcr :    367.79s CPU    369.17s WALL (      40 calls)
     potinit      :      3.08s CPU      3.41s WALL (       1 calls)
     hinit0       :      0.99s CPU      1.10s WALL (       1 calls)

     Called by electrons:
     c_bands      : 241435.98s CPU 242062.29s WALL (     177 calls)
     sum_band     :  20457.02s CPU  20674.76s WALL (     177 calls)
     v_of_rho     :    143.16s CPU    149.99s WALL (     180 calls)
     v_h          :      7.93s CPU      8.36s WALL (     180 calls)
     v_xc         :    165.45s CPU    173.15s WALL (     220 calls)
     newd         :   1349.29s CPU   1467.13s WALL (     180 calls)
     PAW_pot      :    348.59s CPU    348.67s WALL (     199 calls)
     mix_rho      :     28.95s CPU     30.20s WALL (     177 calls)
     energy_dftd3 :     49.39s CPU     49.41s WALL (      20 calls)

     Called by c_bands:
     init_us_2    :    961.92s CPU    962.51s WALL (   16560 calls)
     cegterg      : 240551.28s CPU 241176.23s WALL (    7121 calls)

     Called by sum_band:
     sum_band:wei :      0.07s CPU      0.07s WALL (     177 calls)
     sum_band:loo :  17443.55s CPU  17512.38s WALL (     177 calls)
     sum_band:buf :    118.42s CPU    118.49s WALL (    7080 calls)
     sum_band:ini :    427.71s CPU    427.92s WALL (    7080 calls)
     sum_band:cal :  13507.55s CPU  13511.44s WALL (    7840 calls)
     sum_band:bec :     17.70s CPU     17.74s WALL (    7840 calls)
     addusdens    :   2978.31s CPU   3124.78s WALL (     177 calls)
                                        0.00s GPU  (     177 calls)
     addusd:skk   :     10.10s CPU     12.38s WALL (    1239 calls)
                                        0.00s GPU  (    1239 calls)

     Called by *egterg:
     cdiaghg      :   3255.46s CPU   3285.64s WALL (   52873 calls)
     cegterg:over :  31845.75s CPU  31851.34s WALL (   47233 calls)
     cegterg:upda :  17764.72s CPU  17786.09s WALL (   47233 calls)
     cegterg:last :  49158.69s CPU  49171.67s WALL (   19682 calls)
     cdiaghg:chol :     72.92s CPU     73.07s WALL (   52873 calls)
     cdiaghg:inve :     75.96s CPU     76.04s WALL (   52873 calls)
     cdiaghg:para :   1537.52s CPU   1550.78s WALL (  105746 calls)
     h_psi        :  94211.68s CPU  94663.02s WALL (   54394 calls)
     s_psi        :  38841.07s CPU  38844.53s WALL (   54394 calls)
     g_psi        :     81.44s CPU     81.53s WALL (   47233 calls)

     Called by h_psi:
     h_psi:calbec :  38645.96s CPU  38658.47s WALL (   54394 calls)
     vloc_psi     :  16087.87s CPU  16471.61s WALL (   54394 calls)
     add_vuspsi   :  39215.55s CPU  39219.23s WALL (   54394 calls)

     General routines
     calbec       :  58959.33s CPU  58977.83s WALL (   66234 calls)
     fft          :    119.75s CPU    131.40s WALL (    5313 calls)
     ffts         :      2.32s CPU      2.57s WALL (     714 calls)
     fftw         :   9458.55s CPU   9737.00s WALL ( 8136372 calls)
     interpolate  :     12.35s CPU     13.14s WALL (     360 calls)

     Parallel routines

     PAW routines
     PAW_pot      :    348.59s CPU    348.67s WALL (     199 calls)
     PAW_symme    :      0.24s CPU      0.26s WALL (     375 calls)

     PWSCF        :   3d 6h14m CPU   3d 6h33m WALL


   This run was terminated on:  22: 2: 1  10Jan2025            

=------------------------------------------------------------------------------=
   JOB DONE.
=------------------------------------------------------------------------------=
