
     Program PWSCF v.7.3.1 starts on 21Dec2025 at 12:57:22 

     This program is part of the open-source Quantum ESPRESSO suite
     for quantum simulation of materials; please cite
         "P. Giannozzi et al., J. Phys.:Condens. Matter 21 395502 (2009);
         "P. Giannozzi et al., J. Phys.:Condens. Matter 29 465901 (2017);
         "P. Giannozzi et al., J. Chem. Phys. 152 154105 (2020);
          URL http://www.quantum-espresso.org", 
     in publications or presentations arising from this work. More details at
     http://www.quantum-espresso.org/quote

     Parallel version (MPI), running on    14 processors

     MPI processes distributed on     1 nodes
     21586 MiB available memory on the printing compute node when the environment starts

     Reading input from relax.in

     Current dimensions of program PWSCF are:
     Max number of different atomic species (ntypx) = 10
     Max number of k-points (npk) = 120000
     Max angular momentum in pseudopotentials (lmaxx) =  4
     file Al.pbe-n-kjpaw_psl.1.0.0.UPF: wavefunction(s)  3S 3P renormalized
     file Fe.pbe-spn-kjpaw_psl.1.0.0.UPF: wavefunction(s)  3P 3D renormalized
     file H.pbe-kjpaw_psl.1.0.0.UPF: wavefunction(s)  1S renormalized
     file K.pbe-spn-kjpaw_psl.1.0.0.UPF: wavefunction(s)  3S renormalized
     file Mg.pbe-spnl-kjpaw_psl.1.0.0.UPF: wavefunction(s)  2P renormalized
     file O.pbe-n-kjpaw_psl.1.0.0.UPF: wavefunction(s)  2S 2P renormalized
     file Si.pbe-n-kjpaw_psl.1.0.0.UPF: wavefunction(s)  3S 3P renormalized

     K-points division:     npool     =       2
     R & G space division:  proc/nbgrp/npool/nimage =       7
     Subspace diagonalization in iterative solution of the eigenvalue problem:
     one sub-group per band group will be used
     custom distributed-memory algorithm (size of sub-group:  2*  2 procs)


     Parallelization info
     --------------------
     sticks:   dense  smooth     PW     G-vecs:    dense   smooth      PW
     Min        1442     720    193               160246    56657    7865
     Max        1443     721    194               160249    56663    7871
     Sum       10099    5041   1353              1121731   396609   55075

     Using Slab Decomposition



     bravais-lattice index     =          -12
     lattice parameter (alat)  =      10.0767  a.u.
     unit-cell volume          =    3438.7175 (a.u.)^3
     number of atoms/cell      =           44
     number of atomic types    =            7
     number of electrons       =       262.00
     number of Kohn-Sham states=          157
     kinetic-energy cutoff     =      90.0000  Ry
     charge density cutoff     =     720.0000  Ry
     scf convergence threshold =      1.0E-08
     mixing beta               =       0.7000
     number of iterations used =            8  plain     mixing
     energy convergence thresh.=      1.0E-05
     force convergence thresh. =      1.0E-04
     Exchange-correlation= SLA  PW   PBX  PBC
                           (   1   4   3   4   0   0   0)
     nstep                     =          100


     celldm(1)=  10.076666  celldm(2)=   1.735909  celldm(3)=   1.968321
     celldm(4)=   0.000000  celldm(5)=  -0.180309  celldm(6)=   0.000000

     crystal axes: (cart. coord. in units of alat)
               a(1) = (   1.000000   0.000000   0.000000 )  
               a(2) = (   0.000000   1.735909   0.000000 )  
               a(3) = (  -0.354905   0.000000   1.936060 )  

     reciprocal axes: (cart. coord. in units 2 pi/alat)
               b(1) = (  1.000000 -0.000000  0.183313 )  
               b(2) = (  0.000000  0.576067 -0.000000 )  
               b(3) = (  0.000000  0.000000  0.516513 )  


     PseudoPot. # 1 for Al read from file:
     ./../../../pseudos/Al.pbe-n-kjpaw_psl.1.0.0.UPF
     MD5 check sum: 502b6b27b9c6270cab5dd1084b96fa6d
     Pseudo is Projector augmented-wave + core cor, Zval =  3.0
     Generated using &quot;atomic&quot; code by A. Dal Corso  v.6.3
     Shape of augmentation charge: PSQ
     Using radial grid of 1135 points,  6 beta functions with: 
                l(1) =   0
                l(2) =   0
                l(3) =   1
                l(4) =   1
                l(5) =   2
                l(6) =   2
     Q(r) pseudized with 0 coefficients 


     PseudoPot. # 2 for Fe read from file:
     ./../../../pseudos/Fe.pbe-spn-kjpaw_psl.1.0.0.UPF
     MD5 check sum: fc81f059e5c5069939230b1155715ae8
     Pseudo is Projector augmented-wave + core cor, Zval = 16.0
     Generated using &quot;atomic&quot; code by A. Dal Corso  v.6.3
     Shape of augmentation charge: PSQ
     Using radial grid of 1191 points,  6 beta functions with: 
                l(1) =   0
                l(2) =   0
                l(3) =   1
                l(4) =   1
                l(5) =   2
                l(6) =   2
     Q(r) pseudized with 0 coefficients 


     PseudoPot. # 3 for H  read from file:
     ./../../../pseudos/H.pbe-kjpaw_psl.1.0.0.UPF
     MD5 check sum: d81a744832360e4a8af0b0b5b123bc2a
     Pseudo is Projector augmented-wave, Zval =  1.0
     Generated using &quot;atomic&quot; code by A. Dal Corso  v.6.3MaX
     Shape of augmentation charge: PSQ
     Using radial grid of  929 points,  2 beta functions with: 
                l(1) =   0
                l(2) =   0
     Q(r) pseudized with 0 coefficients 


     PseudoPot. # 4 for K  read from file:
     ./../../../pseudos/K.pbe-spn-kjpaw_psl.1.0.0.UPF
     MD5 check sum: 34cc42130a09071ebe376fd42eb21491
     Pseudo is Projector augmented-wave + core cor, Zval =  9.0
     Generated using &quot;atomic&quot; code by A. Dal Corso  v.6.2.2
     Shape of augmentation charge: PSQ
     Using radial grid of 1165 points,  6 beta functions with: 
                l(1) =   0
                l(2) =   0
                l(3) =   1
                l(4) =   1
                l(5) =   2
                l(6) =   2
     Q(r) pseudized with 0 coefficients 


     PseudoPot. # 5 for Mg read from file:
     ./../../../pseudos/Mg.pbe-spnl-kjpaw_psl.1.0.0.UPF
     MD5 check sum: fda14e0d92a6a9a5ebed782e5a4b3067
     Pseudo is Projector augmented-wave + core cor, Zval = 10.0
     Generated using &quot;atomic&quot; code by A. Dal Corso  v.6.3
     Shape of augmentation charge: PSQ
     Using radial grid of 1129 points,  4 beta functions with: 
                l(1) =   0
                l(2) =   0
                l(3) =   1
                l(4) =   1
     Q(r) pseudized with 0 coefficients 


     PseudoPot. # 6 for O  read from file:
     ./../../../pseudos/O.pbe-n-kjpaw_psl.1.0.0.UPF
     MD5 check sum: e99d9cef9b487d1ca56f5b95ecd0fd7a
     Pseudo is Projector augmented-wave + core cor, Zval =  6.0
     Generated using &quot;atomic&quot; code by A. Dal Corso  v.6.3
     Shape of augmentation charge: PSQ
     Using radial grid of 1095 points,  4 beta functions with: 
                l(1) =   0
                l(2) =   0
                l(3) =   1
                l(4) =   1
     Q(r) pseudized with 0 coefficients 


     PseudoPot. # 7 for Si read from file:
     ./../../../pseudos/Si.pbe-n-kjpaw_psl.1.0.0.UPF
     MD5 check sum: c39c59da582df4a0d9f10159256ea34e
     Pseudo is Projector augmented-wave + core cor, Zval =  4.0
     Generated using &quot;atomic&quot; code by A. Dal Corso  v.6.3
     Shape of augmentation charge: PSQ
     Using radial grid of 1141 points,  6 beta functions with: 
                l(1) =   0
                l(2) =   0
                l(3) =   1
                l(4) =   1
                l(5) =   2
                l(6) =   2
     Q(r) pseudized with 0 coefficients 


     atomic species   valence    mass     pseudopotential
     Al                3.00    26.98154     Al( 1.00)
     Fe               16.00    55.84500     Fe( 1.00)
     H                 1.00     1.00794     H ( 1.00)
     K                 9.00    39.09830     K ( 1.00)
     Mg               10.00    24.30500     Mg( 1.00)
     O                 6.00    15.99940     O ( 1.00)
     Si                4.00    28.08550     Si( 1.00)

     Starting magnetic structure 
     atomic species   magnetization
     Al              0.000
     Fe              0.300
     H               0.000
     K               0.000
     Mg              0.000
     O               0.000
     Si              0.000

      2 Sym. Ops. (no inversion) found


                                    s                        frac. trans.

      isym =  1     identity                                     

 cryst.   s( 1) = (     1          0          0      )
                  (     0          1          0      )
                  (     0          0          1      )

 cart.    s( 1) = (  1.0000000  0.0000000  0.0000000 )
                  (  0.0000000  1.0000000  0.0000000 )
                  (  0.0000000  0.0000000  1.0000000 )


      isym =  2     180 deg rotation - cart. axis [0,1,0]        

 cryst.   s( 2) = (    -1          0          0      )
                  (     0          1          0      )
                  (     0          0         -1      )

 cart.    s( 2) = ( -1.0000000  0.0000000  0.0000000 )
                  (  0.0000000  1.0000000  0.0000000 )
                  (  0.0000000  0.0000000 -1.0000000 )


     point group C_2  (2)   
     there are  2 classes
     the character table:

       E     C2   
A      1.00  1.00
B      1.00 -1.00

     the symmetry operations in each class and the name of the first element:

     E        1
          identity                                               
     C2       2
          180 deg rotation - cart. axis [0,1,0]                  

   Cartesian axes

     site n.     atom                  positions (alat units)
         1        K      tau(   1) = (   0.0000000   0.8398172   0.0000000  )
         2        K      tau(   2) = (   0.5000000   0.0224522   0.0000000  )
         3        Mg     tau(   3) = (  -0.1774526   0.0075634   0.9680302  )
         4        Mg     tau(   4) = (  -0.1774526   1.1551937   0.9680302  )
         5        Mg     tau(   5) = (   0.3225474   0.8555758   0.9680302  )
         6        Mg     tau(   6) = (   0.3225474   1.4484807   0.9680302  )
         7        Mg     tau(   7) = (   0.3225474   0.2995519   0.9680302  )
         8        Si     tau(   8) = (   0.0001003   0.2859858   0.4420239  )
         9        Si     tau(   9) = (   0.6449946   0.2859858   1.4940365  )
        10        Si     tau(  10) = (   0.6639834   1.4476753   1.4818509  )
        11        Si     tau(  11) = (  -0.0188895   1.4476753   0.4542094  )
        12        Si     tau(  12) = (   0.4804968   1.1575355   0.4500508  )
        13        Si     tau(  13) = (   0.1645980   1.1575355   1.4860096  )
        14        Al     tau(  14) = (   0.1441311   0.5750425   1.4900405  )
        15        Al     tau(  15) = (   0.5009627   0.5750425   0.4460199  )
        16        O      tau(  16) = (  -0.0107242   0.2843922   0.7486223  )
        17        O      tau(  17) = (   0.6558181   0.2843922   1.1874382  )
        18        O      tau(  18) = (   0.6595762   1.4460123   1.1776185  )
        19        O      tau(  19) = (  -0.0144823   1.4460123   0.7584420  )
        20        O      tau(  20) = (   0.4858085   1.1617572   0.7556173  )
        21        O      tau(  21) = (   0.1592864   1.1617572   1.1804431  )
        22        O      tau(  22) = (   0.1482197   0.5775630   1.1647630  )
        23        O      tau(  23) = (   0.4968741   0.5775630   0.7712974  )
        24        O      tau(  24) = (   0.2757690   0.3584409   0.3314709  )
        25        O      tau(  25) = (   0.3693258   0.3584409   1.6045895  )
        26        O      tau(  26) = (   0.9374077   1.7302865   0.3385318  )
        27        O      tau(  27) = (  -0.2923138   1.7302865   1.5975286  )
        28        O      tau(  28) = (   0.3945946   1.3413387   1.5945587  )
        29        O      tau(  29) = (   0.2505003   1.3413387   0.3415017  )
        30        O      tau(  30) = (   0.7496427   1.2748187   0.3399451  )
        31        O      tau(  31) = (  -0.1045478   1.2748187   1.5961153  )
        32        O      tau(  32) = (   0.4399873   0.8821334   0.3278041  )
        33        O      tau(  33) = (   0.2051066   0.8821334   1.6082564  )
        34        O      tau(  34) = (  -0.1464197   0.4734588   1.6154371  )
        35        O      tau(  35) = (   0.7915146   0.4734588   0.3206232  )
        36        O      tau(  36) = (  -0.0105441   0.8750335   0.7696130  )
        37        O      tau(  37) = (   0.6556390   0.8750335   1.1664473  )
        38        O      tau(  38) = (   0.4902382   1.7353120   0.7762286  )
        39        O      tau(  39) = (   0.1548563   1.7353120   1.1598338  )
        40        H      tau(  40) = (  -0.0084879   0.8628926   0.5889264  )
        41        H      tau(  41) = (   0.6535818   0.8628926   1.3471340  )
        42        H      tau(  42) = (   0.4873991   0.0216954   0.5963453  )
        43        H      tau(  43) = (   0.1576947   0.0216954   1.3397151  )
        44        Fe     tau(  44) = (  -0.1774526   0.5785924   0.9680302  )

     --------------------------------------------
     DFT-D3 Dispersion Correction (3-body terms):
     --------------------------------------------
       Reference C6 values for interpolation: 

         atom   Coordination number   C6
         H          0.912             6.05
         H          0.000            15.18
         O          0.000            31.01
         O          0.993            25.63
         O          1.989            20.74
         Mg         0.000          1366.75
         Mg         0.963           902.54
         Mg         1.950           351.12
         Al         0.000          1081.08
         Al         0.965           875.51
         Al         1.931           513.50
         Al         2.915           307.19
         Si         0.000           635.71
         Si         0.951           540.53
         Si         1.944           466.25
         Si         2.941           443.01
         Si         3.868           299.55
         K          0.000          9967.00
         K          0.977           676.04
         Fe         0.000           982.67
         Fe         1.648           409.99
         Fe         9.138           219.01

       Values used:

         atom   Coordination number  R0_AB[au]  C6      C8
         K         11.442            4.007    676.04 129074.98
         K         11.721            4.007    676.04 129074.98
         Mg        11.326            3.292    351.12  31436.69
         Mg        11.253            3.292    351.12  31436.69
         Mg        11.239            3.292    351.12  31436.69
         Mg        11.522            3.292    351.12  31436.69
         Mg        11.395            3.292    351.12  31436.69
         Si         6.569            3.583    299.55  21425.58
         Si         6.569            3.583    299.55  21425.58
         Si         6.125            3.583    299.55  21425.58
         Si         6.125            3.583    299.55  21425.58
         Si         6.157            3.583    299.55  21425.58
         Si         6.157            3.583    299.55  21425.58
         Al         7.329            3.789    307.19  29441.29
         Al         7.329            3.789    307.19  29441.29
         O          3.610            2.345     20.74    418.58
         O          3.610            2.345     20.74    418.58
         O          3.907            2.345     20.74    418.58
         O          3.907            2.345     20.74    418.58
         O          3.883            2.345     20.74    418.58
         O          3.883            2.345     20.74    418.58
         O          3.826            2.345     20.74    418.58
         O          3.826            2.345     20.74    418.58
         O          3.180            2.345     20.74    418.58
         O          3.180            2.345     20.74    418.58
         O          3.014            2.345     20.74    418.58
         O          3.014            2.345     20.74    418.58
         O          2.760            2.345     20.74    418.58
         O          2.760            2.345     20.74    418.58
         O          2.736            2.345     20.74    418.58
         O          2.736            2.345     20.74    418.58
         O          3.049            2.345     20.74    418.58
         O          3.049            2.345     20.74    418.58
         O          3.247            2.345     20.74    418.58
         O          3.247            2.345     20.74    418.58
         O          3.746            2.345     20.74    418.58
         O          3.746            2.345     20.74    418.58
         O          3.975            2.345     20.74    418.58
         O          3.975            2.345     20.74    418.58
         H          1.200            2.062      6.08     73.54
         H          1.200            2.062      6.08     73.54
         H          1.214            2.062      6.08     73.50
         H          1.214            2.062      6.08     73.50
         Fe         7.855            3.252    219.01  20487.87

         Molecular C6 ( Ry / a.u.^6 ) =    165311.27


   Crystallographic axes

     site n.     atom                  positions (cryst. coord.)
         1        K      tau(   1) = (  0.0000000  0.4837910  0.0000000  )
         2        K      tau(   2) = (  0.5000000  0.0129340  0.0000000  )
         3        Mg     tau(   3) = ( -0.0000000  0.0043570  0.5000000  )
         4        Mg     tau(   4) = ( -0.0000000  0.6654690  0.5000000  )
         5        Mg     tau(   5) = (  0.5000000  0.4928690  0.5000000  )
         6        Mg     tau(   6) = (  0.5000000  0.8344220  0.5000000  )
         7        Mg     tau(   7) = (  0.5000000  0.1725620  0.5000000  )
         8        Si     tau(   8) = (  0.0811290  0.1647470  0.2283110  )
         9        Si     tau(   9) = (  0.9188710  0.1647470  0.7716890  )
        10        Si     tau(  10) = (  0.9356260  0.8339580  0.7653950  )
        11        Si     tau(  11) = (  0.0643730  0.8339580  0.2346050  )
        12        Si     tau(  12) = (  0.5629970  0.6668180  0.2324570  )
        13        Si     tau(  13) = (  0.4370030  0.6668180  0.7675430  )
        14        Al     tau(  14) = (  0.4172750  0.3312630  0.7696250  )
        15        Al     tau(  15) = (  0.5827240  0.3312630  0.2303750  )
        16        O      tau(  16) = (  0.1265080  0.1638290  0.3866730  )
        17        O      tau(  17) = (  0.8734910  0.1638290  0.6133270  )
        18        O      tau(  18) = (  0.8754490  0.8330000  0.6082550  )
        19        O      tau(  19) = (  0.1245500  0.8330000  0.3917450  )
        20        O      tau(  20) = (  0.6243230  0.6692500  0.3902860  )
        21        O      tau(  21) = (  0.3756770  0.6692500  0.6097140  )
        22        O      tau(  22) = (  0.3617360  0.3327150  0.6016150  )
        23        O      tau(  23) = (  0.6382630  0.3327150  0.3983850  )
        24        O      tau(  24) = (  0.3365320  0.2064860  0.1712090  )
        25        O      tau(  25) = (  0.6634680  0.2064860  0.8287910  )
        26        O      tau(  26) = (  0.9994650  0.9967610  0.1748560  )
        27        O      tau(  27) = (  0.0005340  0.9967610  0.8251440  )
        28        O      tau(  28) = (  0.6868980  0.7727010  0.8236100  )
        29        O      tau(  29) = (  0.3131020  0.7727010  0.1763900  )
        30        O      tau(  30) = (  0.8119590  0.7343810  0.1755860  )
        31        O      tau(  31) = (  0.1880410  0.7343810  0.8244140  )
        32        O      tau(  32) = (  0.5000780  0.5081680  0.1693150  )
        33        O      tau(  33) = (  0.4999210  0.5081680  0.8306850  )
        34        O      tau(  34) = (  0.1497110  0.2727440  0.8343940  )
        35        O      tau(  35) = (  0.8502890  0.2727440  0.1656060  )
        36        O      tau(  36) = (  0.1305360  0.5040780  0.3975150  )
        37        O      tau(  37) = (  0.8694640  0.5040780  0.6024850  )
        38        O      tau(  38) = (  0.6325310  0.9996560  0.4009320  )
        39        O      tau(  39) = (  0.3674690  0.9996560  0.5990690  )
        40        H      tau(  40) = (  0.0994700  0.4970840  0.3041880  )
        41        H      tau(  41) = (  0.9005290  0.4970840  0.6958120  )
        42        H      tau(  42) = (  0.5967170  0.0124980  0.3080200  )
        43        H      tau(  43) = (  0.4032820  0.0124980  0.6919800  )
        44        Fe     tau(  44) = ( -0.0000000  0.3333080  0.5000000  )

     number of k points=    20  Gaussian smearing, width (Ry)=  0.0005
                       cart. coord. in units 2pi/alat
        k(    1) = (   0.0000000   0.0000000   0.0000000), wk =   0.0185185
        k(    2) = (   0.0000000   0.0000000   0.1721709), wk =   0.0370370
        k(    3) = (   0.0000000   0.1920223   0.0000000), wk =   0.0370370
        k(    4) = (   0.0000000   0.1920223   0.1721709), wk =   0.0740741
        k(    5) = (   0.1666667   0.0000000   0.0305522), wk =   0.0370370
        k(    6) = (   0.1666667   0.0000000   0.2027231), wk =   0.0370370
        k(    7) = (   0.1666667   0.0000000  -0.1416188), wk =   0.0370370
        k(    8) = (   0.1666667   0.1920223   0.0305522), wk =   0.0740741
        k(    9) = (   0.1666667   0.1920223   0.2027231), wk =   0.0740741
        k(   10) = (   0.1666667   0.1920223  -0.1416188), wk =   0.0740741
        k(   11) = (   0.3333333   0.0000000   0.0611044), wk =   0.0370370
        k(   12) = (   0.3333333   0.0000000   0.2332753), wk =   0.0370370
        k(   13) = (   0.3333333   0.0000000  -0.1110666), wk =   0.0370370
        k(   14) = (   0.3333333   0.1920223   0.0611044), wk =   0.0740741
        k(   15) = (   0.3333333   0.1920223   0.2332753), wk =   0.0740741
        k(   16) = (   0.3333333   0.1920223  -0.1110666), wk =   0.0740741
        k(   17) = (  -0.5000000   0.0000000  -0.0916565), wk =   0.0185185
        k(   18) = (  -0.5000000   0.0000000   0.0805144), wk =   0.0370370
        k(   19) = (  -0.5000000   0.1920223  -0.0916565), wk =   0.0370370
        k(   20) = (  -0.5000000   0.1920223   0.0805144), wk =   0.0740741

                       cryst. coord.
        k(    1) = (   0.0000000   0.0000000   0.0000000), wk =   0.0185185
        k(    2) = (   0.0000000   0.0000000   0.3333333), wk =   0.0370370
        k(    3) = (   0.0000000   0.3333333   0.0000000), wk =   0.0370370
        k(    4) = (   0.0000000   0.3333333   0.3333333), wk =   0.0740741
        k(    5) = (   0.1666667   0.0000000  -0.0000000), wk =   0.0370370
        k(    6) = (   0.1666667   0.0000000   0.3333333), wk =   0.0370370
        k(    7) = (   0.1666667   0.0000000  -0.3333333), wk =   0.0370370
        k(    8) = (   0.1666667   0.3333333  -0.0000000), wk =   0.0740741
        k(    9) = (   0.1666667   0.3333333   0.3333333), wk =   0.0740741
        k(   10) = (   0.1666667   0.3333333  -0.3333333), wk =   0.0740741
        k(   11) = (   0.3333333   0.0000000  -0.0000000), wk =   0.0370370
        k(   12) = (   0.3333333   0.0000000   0.3333333), wk =   0.0370370
        k(   13) = (   0.3333333   0.0000000  -0.3333333), wk =   0.0370370
        k(   14) = (   0.3333333   0.3333333  -0.0000000), wk =   0.0740741
        k(   15) = (   0.3333333   0.3333333   0.3333333), wk =   0.0740741
        k(   16) = (   0.3333333   0.3333333  -0.3333333), wk =   0.0740741
        k(   17) = (  -0.5000000   0.0000000   0.0000000), wk =   0.0185185
        k(   18) = (  -0.5000000   0.0000000   0.3333333), wk =   0.0370370
        k(   19) = (  -0.5000000   0.3333333   0.0000000), wk =   0.0370370
        k(   20) = (  -0.5000000   0.3333333   0.3333333), wk =   0.0740741

     Dense  grid:  1121731 G-vectors     FFT dimensions: (  90, 150, 180)

     Smooth grid:   396609 G-vectors     FFT dimensions: (  64, 108, 120)

     Dynamical RAM for                 wfc:      16.97 MB

     Dynamical RAM for     wfc (w. buffer):     356.28 MB

     Dynamical RAM for           str. fact:      17.12 MB

     Dynamical RAM for           local pot:       0.00 MB

     Dynamical RAM for          nlocal pot:      47.33 MB

     Dynamical RAM for                qrad:      15.07 MB

     Dynamical RAM for          rho,v,vnew:      30.74 MB

     Dynamical RAM for               rhoin:      10.25 MB

     Dynamical RAM for            rho*nmix:      78.25 MB

     Dynamical RAM for           G-vectors:       9.60 MB

     Dynamical RAM for          h,s,v(r/c):       1.13 MB

     Dynamical RAM for          <psi|beta>:       1.05 MB

     Dynamical RAM for                 psi:      33.93 MB

     Dynamical RAM for                hpsi:      33.93 MB

     Dynamical RAM for                spsi:      33.93 MB

     Dynamical RAM for      wfcinit/wfcrot:      40.32 MB

     Dynamical RAM for           addusdens:     260.41 MB

     Dynamical RAM for          addusforce:     315.62 MB

     Estimated static dynamical RAM per process >     522.01 MB

     Estimated max dynamical RAM per process >     915.88 MB

     Estimated total dynamical RAM >      11.99 GB

     Check: negative core charge=   -0.000001
     Generating pointlists ...
     new r_m :   0.1342 (alat units)  1.3522 (a.u.) for type    1
     new r_m :   0.1569 (alat units)  1.5815 (a.u.) for type    2
     new r_m :   0.0747 (alat units)  0.7528 (a.u.) for type    3
     new r_m :   0.2155 (alat units)  2.1720 (a.u.) for type    4
     new r_m :   0.1575 (alat units)  1.5867 (a.u.) for type    5
     new r_m :   0.0747 (alat units)  0.7528 (a.u.) for type    6
     new r_m :   0.1254 (alat units)  1.2637 (a.u.) for type    7

     Initial potential from superposition of free atoms

     starting charge     261.9493, renormalised to     262.0000
     Starting wfcs are  183 randomized atomic wfcs
     Checking if some PAW data can be deallocated... 
       PAW data deallocated on   12 nodes for type:  1
       PAW data deallocated on   13 nodes for type:  2
       PAW data deallocated on   12 nodes for type:  3
       PAW data deallocated on   13 nodes for type:  4
       PAW data deallocated on   12 nodes for type:  5
       PAW data deallocated on    5 nodes for type:  6
       PAW data deallocated on   11 nodes for type:  7

     total cpu time spent up to now is      227.4 secs

     Self-consistent Calculation

     iteration #  1     ecut=    90.00 Ry     beta= 0.70
     Davidson diagonalization with overlap

---- Real-time Memory Report at c_bands before calling an iterative solver
           586 MiB given to the printing process from OS
             0 MiB allocation reported by mallinfo(arena+hblkhd)
         15070 MiB available memory on the node where the printing process lives
------------------
     ethr =  1.00E-02,  avg # of iterations =  7.3

     negative rho (up, down):  0.000E+00 8.366E-05

     total cpu time spent up to now is     1003.0 secs

     total energy              =   -2624.88332447 Ry
     estimated scf accuracy    <      11.72917425 Ry

     total magnetization       =     4.00 Bohr mag/cell
     absolute magnetization    =     4.02 Bohr mag/cell

     iteration #  2     ecut=    90.00 Ry     beta= 0.70
     Davidson diagonalization with overlap

---- Real-time Memory Report at c_bands before calling an iterative solver
           868 MiB given to the printing process from OS
             0 MiB allocation reported by mallinfo(arena+hblkhd)
         12408 MiB available memory on the node where the printing process lives
------------------
     ethr =  4.48E-03,  avg # of iterations =  5.0

     negative rho (up, down):  0.000E+00 1.075E-04

     total cpu time spent up to now is     2109.2 secs

     total energy              =   -2629.37990591 Ry
     estimated scf accuracy    <       9.58435896 Ry

     total magnetization       =     4.00 Bohr mag/cell
     absolute magnetization    =     4.23 Bohr mag/cell

     iteration #  3     ecut=    90.00 Ry     beta= 0.70
     Davidson diagonalization with overlap

---- Real-time Memory Report at c_bands before calling an iterative solver
           871 MiB given to the printing process from OS
             0 MiB allocation reported by mallinfo(arena+hblkhd)
         12148 MiB available memory on the node where the printing process lives
------------------
     ethr =  3.66E-03,  avg # of iterations =  2.0

     negative rho (up, down):  0.000E+00 1.728E-04

     total cpu time spent up to now is     2694.9 secs

     total energy              =   -2630.17355307 Ry
     estimated scf accuracy    <       2.24472568 Ry

     total magnetization       =     4.94 Bohr mag/cell
     absolute magnetization    =     5.21 Bohr mag/cell

     iteration #  4     ecut=    90.00 Ry     beta= 0.70
     Davidson diagonalization with overlap

---- Real-time Memory Report at c_bands before calling an iterative solver
           875 MiB given to the printing process from OS
             0 MiB allocation reported by mallinfo(arena+hblkhd)
         12174 MiB available memory on the node where the printing process lives
------------------
     ethr =  8.57E-04,  avg # of iterations =  4.4

     negative rho (up, down):  0.000E+00 1.943E-04

     total cpu time spent up to now is     3580.4 secs

     total energy              =   -2631.17749921 Ry
     estimated scf accuracy    <       0.41696416 Ry

     total magnetization       =     4.00 Bohr mag/cell
     absolute magnetization    =     4.05 Bohr mag/cell

     iteration #  5     ecut=    90.00 Ry     beta= 0.70
     Davidson diagonalization with overlap

---- Real-time Memory Report at c_bands before calling an iterative solver
           879 MiB given to the printing process from OS
             0 MiB allocation reported by mallinfo(arena+hblkhd)
         12331 MiB available memory on the node where the printing process lives
------------------
     c_bands:  1 eigenvalues not converged
     ethr =  1.59E-04,  avg # of iterations = 12.2

     negative rho (up, down):  0.000E+00 3.213E-04

     total cpu time spent up to now is     4475.9 secs

     total energy              =   -2631.28412817 Ry
     estimated scf accuracy    <       0.07686876 Ry

     total magnetization       =     4.00 Bohr mag/cell
     absolute magnetization    =     4.06 Bohr mag/cell

     iteration #  6     ecut=    90.00 Ry     beta= 0.70
     Davidson diagonalization with overlap

---- Real-time Memory Report at c_bands before calling an iterative solver
           882 MiB given to the printing process from OS
             0 MiB allocation reported by mallinfo(arena+hblkhd)
         12056 MiB available memory on the node where the printing process lives
------------------
     c_bands:  3 eigenvalues not converged
     c_bands:  1 eigenvalues not converged
     c_bands:  2 eigenvalues not converged
     c_bands:  2 eigenvalues not converged
     c_bands:  2 eigenvalues not converged
     c_bands:  1 eigenvalues not converged
     c_bands:  1 eigenvalues not converged
     c_bands:  3 eigenvalues not converged
     ethr =  2.93E-05,  avg # of iterations = 14.0

     negative rho (up, down):  0.000E+00 3.226E-04

     total cpu time spent up to now is     5637.8 secs

     total energy              =   -2631.30802924 Ry
     estimated scf accuracy    <       0.04908633 Ry

     total magnetization       =     4.00 Bohr mag/cell
     absolute magnetization    =     4.05 Bohr mag/cell

     iteration #  7     ecut=    90.00 Ry     beta= 0.70
     Davidson diagonalization with overlap

---- Real-time Memory Report at c_bands before calling an iterative solver
           886 MiB given to the printing process from OS
             0 MiB allocation reported by mallinfo(arena+hblkhd)
         11992 MiB available memory on the node where the printing process lives
------------------
     c_bands:  1 eigenvalues not converged
     c_bands:  1 eigenvalues not converged
     ethr =  1.87E-05,  avg # of iterations =  5.9

     negative rho (up, down):  0.000E+00 3.118E-04

     total cpu time spent up to now is     6293.1 secs

     total energy              =   -2631.30496315 Ry
     estimated scf accuracy    <       0.02388835 Ry

     total magnetization       =     4.00 Bohr mag/cell
     absolute magnetization    =     4.05 Bohr mag/cell

     iteration #  8     ecut=    90.00 Ry     beta= 0.70
     Davidson diagonalization with overlap

---- Real-time Memory Report at c_bands before calling an iterative solver
           890 MiB given to the printing process from OS
             0 MiB allocation reported by mallinfo(arena+hblkhd)
         12129 MiB available memory on the node where the printing process lives
------------------
     c_bands:  1 eigenvalues not converged
     c_bands:  2 eigenvalues not converged
     ethr =  9.12E-06,  avg # of iterations = 11.7

     negative rho (up, down):  0.000E+00 3.061E-04

     total cpu time spent up to now is     7096.4 secs

     total energy              =   -2631.30772703 Ry
     estimated scf accuracy    <       0.00577519 Ry

     total magnetization       =     4.00 Bohr mag/cell
     absolute magnetization    =     4.06 Bohr mag/cell

     iteration #  9     ecut=    90.00 Ry     beta= 0.70
     Davidson diagonalization with overlap

---- Real-time Memory Report at c_bands before calling an iterative solver
           893 MiB given to the printing process from OS
             0 MiB allocation reported by mallinfo(arena+hblkhd)
         11772 MiB available memory on the node where the printing process lives
------------------
     c_bands:  1 eigenvalues not converged
     c_bands:  1 eigenvalues not converged
     c_bands:  2 eigenvalues not converged
     c_bands:  2 eigenvalues not converged
     c_bands:  1 eigenvalues not converged
     c_bands:  1 eigenvalues not converged
     ethr =  2.20E-06,  avg # of iterations = 15.1

     negative rho (up, down):  0.000E+00 2.999E-04

     total cpu time spent up to now is     8203.2 secs

     total energy              =   -2631.30980932 Ry
     estimated scf accuracy    <       0.00113899 Ry

     total magnetization       =     4.00 Bohr mag/cell
     absolute magnetization    =     4.05 Bohr mag/cell

     iteration # 10     ecut=    90.00 Ry     beta= 0.70
     Davidson diagonalization with overlap

---- Real-time Memory Report at c_bands before calling an iterative solver
           897 MiB given to the printing process from OS
             0 MiB allocation reported by mallinfo(arena+hblkhd)
         12035 MiB available memory on the node where the printing process lives
------------------
     c_bands:  1 eigenvalues not converged
     c_bands:  1 eigenvalues not converged
     ethr =  4.35E-07,  avg # of iterations =  7.4

     negative rho (up, down):  0.000E+00 2.979E-04

     total cpu time spent up to now is     9152.4 secs

     total energy              =   -2631.31033341 Ry
     estimated scf accuracy    <       0.00029094 Ry

     total magnetization       =     4.00 Bohr mag/cell
     absolute magnetization    =     4.05 Bohr mag/cell

     iteration # 11     ecut=    90.00 Ry     beta= 0.70
     Davidson diagonalization with overlap

---- Real-time Memory Report at c_bands before calling an iterative solver
           897 MiB given to the printing process from OS
             0 MiB allocation reported by mallinfo(arena+hblkhd)
         12226 MiB available memory on the node where the printing process lives
------------------
     c_bands:  1 eigenvalues not converged
     ethr =  1.11E-07,  avg # of iterations =  6.8

     negative rho (up, down):  0.000E+00 2.955E-04

     total cpu time spent up to now is     9964.9 secs

     total energy              =   -2631.31040444 Ry
     estimated scf accuracy    <       0.00004671 Ry

     total magnetization       =     4.00 Bohr mag/cell
     absolute magnetization    =     4.05 Bohr mag/cell

     iteration # 12     ecut=    90.00 Ry     beta= 0.70
     Davidson diagonalization with overlap

---- Real-time Memory Report at c_bands before calling an iterative solver
           897 MiB given to the printing process from OS
             0 MiB allocation reported by mallinfo(arena+hblkhd)
         11955 MiB available memory on the node where the printing process lives
------------------
     ethr =  1.78E-08,  avg # of iterations =  6.2

     negative rho (up, down):  0.000E+00 2.934E-04

     total cpu time spent up to now is    11208.7 secs

     total energy              =   -2631.31044016 Ry
     estimated scf accuracy    <       0.00007659 Ry

     total magnetization       =     4.00 Bohr mag/cell
     absolute magnetization    =     4.04 Bohr mag/cell

     iteration # 13     ecut=    90.00 Ry     beta= 0.70
     Davidson diagonalization with overlap

---- Real-time Memory Report at c_bands before calling an iterative solver
           897 MiB given to the printing process from OS
             0 MiB allocation reported by mallinfo(arena+hblkhd)
         12060 MiB available memory on the node where the printing process lives
------------------
     ethr =  1.78E-08,  avg # of iterations =  3.0

     negative rho (up, down):  0.000E+00 2.933E-04

     total cpu time spent up to now is    11816.1 secs

     total energy              =   -2631.31043629 Ry
     estimated scf accuracy    <       0.00002698 Ry

     total magnetization       =     4.00 Bohr mag/cell
     absolute magnetization    =     4.04 Bohr mag/cell

     iteration # 14     ecut=    90.00 Ry     beta= 0.70
     Davidson diagonalization with overlap

---- Real-time Memory Report at c_bands before calling an iterative solver
           897 MiB given to the printing process from OS
             0 MiB allocation reported by mallinfo(arena+hblkhd)
         12065 MiB available memory on the node where the printing process lives
------------------
     ethr =  1.03E-08,  avg # of iterations =  5.5

     negative rho (up, down):  0.000E+00 2.931E-04

     total cpu time spent up to now is    12603.2 secs

     total energy              =   -2631.31044455 Ry
     estimated scf accuracy    <       0.00000605 Ry

     total magnetization       =     4.00 Bohr mag/cell
     absolute magnetization    =     4.04 Bohr mag/cell

     iteration # 15     ecut=    90.00 Ry     beta= 0.70
     Davidson diagonalization with overlap

---- Real-time Memory Report at c_bands before calling an iterative solver
           897 MiB given to the printing process from OS
             0 MiB allocation reported by mallinfo(arena+hblkhd)
         12214 MiB available memory on the node where the printing process lives
------------------
     ethr =  2.31E-09,  avg # of iterations =  4.6

     negative rho (up, down):  0.000E+00 2.928E-04

     total cpu time spent up to now is    13319.9 secs

     total energy              =   -2631.31044479 Ry
     estimated scf accuracy    <       0.00000283 Ry

     total magnetization       =     4.00 Bohr mag/cell
     absolute magnetization    =     4.04 Bohr mag/cell

     iteration # 16     ecut=    90.00 Ry     beta= 0.70
     Davidson diagonalization with overlap

---- Real-time Memory Report at c_bands before calling an iterative solver
           897 MiB given to the printing process from OS
             0 MiB allocation reported by mallinfo(arena+hblkhd)
         12173 MiB available memory on the node where the printing process lives
------------------
     ethr =  1.08E-09,  avg # of iterations =  4.7

     negative rho (up, down):  0.000E+00 2.926E-04

     total cpu time spent up to now is    14054.0 secs

     total energy              =   -2631.31044539 Ry
     estimated scf accuracy    <       0.00000041 Ry

     total magnetization       =     4.00 Bohr mag/cell
     absolute magnetization    =     4.04 Bohr mag/cell

     iteration # 17     ecut=    90.00 Ry     beta= 0.70
     Davidson diagonalization with overlap

---- Real-time Memory Report at c_bands before calling an iterative solver
           897 MiB given to the printing process from OS
             0 MiB allocation reported by mallinfo(arena+hblkhd)
         11802 MiB available memory on the node where the printing process lives
------------------
     ethr =  1.56E-10,  avg # of iterations =  8.7

     negative rho (up, down):  0.000E+00 2.926E-04

     total cpu time spent up to now is    15575.6 secs

     total energy              =   -2631.31044582 Ry
     estimated scf accuracy    <       0.00000112 Ry

     total magnetization       =     4.00 Bohr mag/cell
     absolute magnetization    =     4.04 Bohr mag/cell

     iteration # 18     ecut=    90.00 Ry     beta= 0.70
     Davidson diagonalization with overlap

---- Real-time Memory Report at c_bands before calling an iterative solver
           897 MiB given to the printing process from OS
             0 MiB allocation reported by mallinfo(arena+hblkhd)
         11918 MiB available memory on the node where the printing process lives
------------------
     ethr =  1.56E-10,  avg # of iterations =  4.2

     negative rho (up, down):  0.000E+00 2.926E-04

     total cpu time spent up to now is    16266.0 secs

     total energy              =   -2631.31044582 Ry
     estimated scf accuracy    <       0.00000025 Ry

     total magnetization       =     4.00 Bohr mag/cell
     absolute magnetization    =     4.04 Bohr mag/cell

     iteration # 19     ecut=    90.00 Ry     beta= 0.70
     Davidson diagonalization with overlap

---- Real-time Memory Report at c_bands before calling an iterative solver
           897 MiB given to the printing process from OS
             0 MiB allocation reported by mallinfo(arena+hblkhd)
         12336 MiB available memory on the node where the printing process lives
------------------
     ethr =  9.69E-11,  avg # of iterations =  5.2

     negative rho (up, down):  0.000E+00 2.925E-04

     total cpu time spent up to now is    17422.7 secs

     total energy              =   -2631.31044602 Ry
     estimated scf accuracy    <       0.00000024 Ry

     total magnetization       =     4.00 Bohr mag/cell
     absolute magnetization    =     4.04 Bohr mag/cell

     iteration # 20     ecut=    90.00 Ry     beta= 0.70
     Davidson diagonalization with overlap

---- Real-time Memory Report at c_bands before calling an iterative solver
           897 MiB given to the printing process from OS
             0 MiB allocation reported by mallinfo(arena+hblkhd)
         12295 MiB available memory on the node where the printing process lives
------------------
     ethr =  9.29E-11,  avg # of iterations =  2.5

     negative rho (up, down):  0.000E+00 2.925E-04

     total cpu time spent up to now is    18015.1 secs

     total energy              =   -2631.31044600 Ry
     estimated scf accuracy    <       0.00000020 Ry

     total magnetization       =     4.00 Bohr mag/cell
     absolute magnetization    =     4.04 Bohr mag/cell

     iteration # 21     ecut=    90.00 Ry     beta= 0.70
     Davidson diagonalization with overlap

---- Real-time Memory Report at c_bands before calling an iterative solver
           897 MiB given to the printing process from OS
             0 MiB allocation reported by mallinfo(arena+hblkhd)
         12095 MiB available memory on the node where the printing process lives
------------------
     ethr =  7.48E-11,  avg # of iterations =  2.0

     negative rho (up, down):  0.000E+00 2.925E-04

     total cpu time spent up to now is    18621.1 secs

     total energy              =   -2631.31044599 Ry
     estimated scf accuracy    <       0.00000005 Ry

     total magnetization       =     4.00 Bohr mag/cell
     absolute magnetization    =     4.04 Bohr mag/cell

     iteration # 22     ecut=    90.00 Ry     beta= 0.70
     Davidson diagonalization with overlap

---- Real-time Memory Report at c_bands before calling an iterative solver
           897 MiB given to the printing process from OS
             0 MiB allocation reported by mallinfo(arena+hblkhd)
         12032 MiB available memory on the node where the printing process lives
------------------
     ethr =  2.02E-11,  avg # of iterations =  5.9

     negative rho (up, down):  0.000E+00 2.925E-04

     total cpu time spent up to now is    19710.4 secs

     total energy              =   -2631.31044603 Ry
     estimated scf accuracy    <       0.00000002 Ry

     total magnetization       =     4.00 Bohr mag/cell
     absolute magnetization    =     4.04 Bohr mag/cell

     iteration # 23     ecut=    90.00 Ry     beta= 0.70
     Davidson diagonalization with overlap

---- Real-time Memory Report at c_bands before calling an iterative solver
           897 MiB given to the printing process from OS
             0 MiB allocation reported by mallinfo(arena+hblkhd)
         12066 MiB available memory on the node where the printing process lives
------------------
     ethr =  8.46E-12,  avg # of iterations =  3.2

     negative rho (up, down):  0.000E+00 2.925E-04

     total cpu time spent up to now is    20336.8 secs

     total energy              =   -2631.31044602 Ry
     estimated scf accuracy    <       0.00000002 Ry

     total magnetization       =     4.00 Bohr mag/cell
     absolute magnetization    =     4.04 Bohr mag/cell

     iteration # 24     ecut=    90.00 Ry     beta= 0.70
     Davidson diagonalization with overlap

---- Real-time Memory Report at c_bands before calling an iterative solver
           897 MiB given to the printing process from OS
             0 MiB allocation reported by mallinfo(arena+hblkhd)
         12170 MiB available memory on the node where the printing process lives
------------------
     ethr =  8.46E-12,  avg # of iterations =  2.0

     negative rho (up, down):  0.000E+00 2.925E-04

     Magnetic moment per site  (integrated on atomic sphere of radius R)
     atom   1 (R=0.216)  charge=  7.5500  magn=  0.0000
     atom   2 (R=0.216)  charge=  7.5522  magn=  0.0001
     atom   3 (R=0.157)  charge=  8.1121  magn= -0.0001
     atom   4 (R=0.157)  charge=  8.1108  magn=  0.0001
     atom   5 (R=0.157)  charge=  8.1135  magn=  0.0009
     atom   6 (R=0.157)  charge=  8.1106  magn= -0.0000
     atom   7 (R=0.157)  charge=  8.1152  magn=  0.0006
     atom   8 (R=0.125)  charge=  0.5514  magn=  0.0011
     atom   9 (R=0.125)  charge=  0.5514  magn=  0.0011
     atom  10 (R=0.125)  charge=  0.5441  magn= -0.0000
     atom  11 (R=0.125)  charge=  0.5441  magn= -0.0000
     atom  12 (R=0.125)  charge=  0.5434  magn=  0.0000
     atom  13 (R=0.125)  charge=  0.5434  magn=  0.0000
     atom  14 (R=0.134)  charge=  0.3330  magn=  0.0014
     atom  15 (R=0.134)  charge=  0.3330  magn=  0.0014
     atom  16 (R=0.075)  charge=  1.9368  magn=  0.0161
     atom  17 (R=0.075)  charge=  1.9368  magn=  0.0161
     atom  18 (R=0.075)  charge=  1.9421  magn=  0.0004
     atom  19 (R=0.075)  charge=  1.9421  magn=  0.0004
     atom  20 (R=0.075)  charge=  1.9378  magn=  0.0004
     atom  21 (R=0.075)  charge=  1.9378  magn=  0.0004
     atom  22 (R=0.075)  charge=  1.9367  magn=  0.0265
     atom  23 (R=0.075)  charge=  1.9367  magn=  0.0265
     atom  24 (R=0.075)  charge=  1.9423  magn=  0.0011
     atom  25 (R=0.075)  charge=  1.9423  magn=  0.0011
     atom  26 (R=0.075)  charge=  1.9462  magn=  0.0009
     atom  27 (R=0.075)  charge=  1.9462  magn=  0.0009
     atom  28 (R=0.075)  charge=  1.9461  magn=  0.0001
     atom  29 (R=0.075)  charge=  1.9461  magn=  0.0001
     atom  30 (R=0.075)  charge=  1.9461  magn=  0.0002
     atom  31 (R=0.075)  charge=  1.9461  magn=  0.0002
     atom  32 (R=0.075)  charge=  1.9401  magn=  0.0006
     atom  33 (R=0.075)  charge=  1.9401  magn=  0.0006
     atom  34 (R=0.075)  charge=  1.9423  magn=  0.0000
     atom  35 (R=0.075)  charge=  1.9423  magn=  0.0000
     atom  36 (R=0.075)  charge=  1.9389  magn=  0.0206
     atom  37 (R=0.075)  charge=  1.9389  magn=  0.0206
     atom  38 (R=0.075)  charge=  1.9407  magn=  0.0003
     atom  39 (R=0.075)  charge=  1.9407  magn=  0.0003
     atom  40 (R=0.075)  charge=  0.4008  magn=  0.0004
     atom  41 (R=0.075)  charge=  0.4008  magn=  0.0004
     atom  42 (R=0.075)  charge=  0.3997  magn=  0.0000
     atom  43 (R=0.075)  charge=  0.3997  magn=  0.0000
     atom  44 (R=0.157)  charge= 13.3063  magn=  3.2899

     total cpu time spent up to now is    20989.3 secs

     End of self-consistent calculation

 ------ SPIN UP ------------


          k = 0.0000 0.0000 0.0000 ( 49603 PWs)   bands (ev):

   -81.3070 -67.9866 -67.9680 -67.8329 -67.6286 -67.4984 -48.3428 -47.0319
   -46.7505 -34.7709 -34.7468 -34.7456 -34.7353 -34.7308 -34.7204 -34.6052
   -34.6051 -34.5803 -34.3978 -34.3935 -34.3873 -34.2796 -34.2565 -34.2517
   -23.5787 -23.5497 -15.3095 -15.2679 -14.3960 -14.3632 -13.8710 -13.8593
   -13.6996 -13.5789 -13.5357 -13.4054 -13.2005 -13.1593 -13.1351 -13.1144
   -13.0441 -12.9434 -12.7845 -12.7171 -12.5794 -12.5694 -12.5329 -12.4224
   -11.8220 -11.5455  -7.1129  -7.0831  -7.0564  -7.0549  -7.0230  -7.0130
    -4.5588  -4.5226  -2.7168  -2.6380  -2.0949  -1.6486  -1.4873  -1.4373
    -1.3618  -1.3033  -0.9439  -0.9001  -0.8314  -0.6787  -0.6557  -0.4704
    -0.2820  -0.2100  -0.1005   0.1348   0.2945   0.2964   0.4022   0.6128
     0.6191   0.7643   0.8231   0.9071   1.1111   1.1614   1.1838   1.3519
     1.3980   1.5353   1.5514   1.7650   1.7960   1.8115   1.8506   1.9345
     1.9584   2.1761   2.2365   2.2774   2.3371   2.3649   2.4043   2.5189
     2.5241   2.5475   2.7066   2.7391   2.7799   2.8287   2.8559   2.9389
     3.0363   3.0704   3.1199   3.1209   3.2100   3.2388   3.2400   3.3201
     3.4359   3.5063   3.5561   3.6202   3.6518   3.7813   3.9785   4.0092
     5.0665   5.2983   6.2816   6.8911   6.9335   8.6178  10.0800  10.7707
    11.0556  11.4244  11.5435  11.7249  12.0688  12.1063  12.4990  12.5003
    12.6517  12.9077  12.9340  13.0390  13.1480  13.1557  13.2915  13.3203
    13.4087  13.4236  13.5082  13.5982  13.8248

     occupation numbers 
     1.0000   1.0000   1.0000   1.0000   1.0000   1.0000   1.0000   1.0000
     1.0000   1.0000   1.0000   1.0000   1.0000   1.0000   1.0000   1.0000
     1.0000   1.0000   1.0000   1.0000   1.0000   1.0000   1.0000   1.0000
     1.0000   1.0000   1.0000   1.0000   1.0000   1.0000   1.0000   1.0000
     1.0000   1.0000   1.0000   1.0000   1.0000   1.0000   1.0000   1.0000
     1.0000   1.0000   1.0000   1.0000   1.0000   1.0000   1.0000   1.0000
     1.0000   1.0000   1.0000   1.0000   1.0000   1.0000   1.0000   1.0000
     1.0000   1.0000   1.0000   1.0000   1.0000   1.0000   1.0000   1.0000
     1.0000   1.0000   1.0000   1.0000   1.0000   1.0000   1.0000   1.0000
     1.0000   1.0000   1.0000   1.0000   1.0000   1.0000   1.0000   1.0000
     1.0000   1.0000   1.0000   1.0000   1.0000   1.0000   1.0000   1.0000
     1.0000   1.0000   1.0000   1.0000   1.0000   1.0000   1.0000   1.0000
     1.0000   1.0000   1.0000   1.0000   1.0000   1.0000   1.0000   1.0000
     1.0000   1.0000   1.0000   1.0000   1.0000   1.0000   1.0000   1.0000
     1.0000   1.0000   1.0000   1.0000   1.0000   1.0000   1.0000   1.0000
     1.0000   1.0000   1.0000   1.0000   1.0000   1.0000   1.0000   1.0000
     1.0000   1.0000   1.0000   1.0000   1.0000   0.0000   0.0000   0.0000
     0.0000   0.0000   0.0000   0.0000   0.0000   0.0000   0.0000   0.0000
     0.0000   0.0000   0.0000   0.0000   0.0000   0.0000   0.0000   0.0000
     0.0000   0.0000   0.0000   0.0000   0.0000

          k = 0.0000 0.0000 0.1722 ( 49593 PWs)   bands (ev):

   -81.3070 -67.9866 -67.9680 -67.8329 -67.6286 -67.4984 -48.3428 -47.0319
   -46.7505 -34.7709 -34.7468 -34.7456 -34.7353 -34.7308 -34.7204 -34.6052
   -34.6051 -34.5803 -34.3978 -34.3935 -34.3873 -34.2796 -34.2565 -34.2517
   -23.5787 -23.5497 -15.3012 -15.2766 -14.3883 -14.3712 -13.8715 -13.8588
   -13.6938 -13.5901 -13.5314 -13.4026 -13.2009 -13.1600 -13.1305 -13.1209
   -13.0399 -12.9458 -12.7806 -12.7208 -12.5853 -12.5598 -12.5322 -12.4265
   -11.8218 -11.5460  -7.1129  -7.0832  -7.0565  -7.0549  -7.0229  -7.0130
    -4.5547  -4.5270  -2.6992  -2.6580  -2.0743  -1.6425  -1.4727  -1.4482
    -1.3598  -1.3158  -0.9233  -0.9052  -0.8474  -0.6926  -0.6299  -0.5462
    -0.2557  -0.1976  -0.1373   0.0933   0.2854   0.2937   0.4150   0.6253
     0.6497   0.7624   0.8587   0.8714   1.1076   1.1923   1.2236   1.2953
     1.4656   1.5499   1.6264   1.7865   1.7938   1.8306   1.8583   1.9146
     1.9943   2.1080   2.2090   2.2365   2.3240   2.3619   2.3796   2.4821
     2.4953   2.5710   2.7142   2.7629   2.7798   2.8186   2.8487   2.9733
     3.0322   3.0702   3.0818   3.1140   3.1998   3.2341   3.2902   3.3433
     3.4282   3.4666   3.5344   3.6216   3.6452   3.8199   3.9755   4.0080
     5.0670   5.2953   6.2819   6.8896   6.9354   8.9123   9.6092  10.8725
    11.1011  11.2577  11.6190  11.6358  12.1745  12.3468  12.5304  12.5460
    12.7883  12.8111  12.9039  12.9348  13.0324  13.2271  13.2577  13.3373
    13.3913  13.4216  13.6150  13.6288  13.6554

     occupation numbers 
     1.0000   1.0000   1.0000   1.0000   1.0000   1.0000   1.0000   1.0000
     1.0000   1.0000   1.0000   1.0000   1.0000   1.0000   1.0000   1.0000
     1.0000   1.0000   1.0000   1.0000   1.0000   1.0000   1.0000   1.0000
     1.0000   1.0000   1.0000   1.0000   1.0000   1.0000   1.0000   1.0000
     1.0000   1.0000   1.0000   1.0000   1.0000   1.0000   1.0000   1.0000
     1.0000   1.0000   1.0000   1.0000   1.0000   1.0000   1.0000   1.0000
     1.0000   1.0000   1.0000   1.0000   1.0000   1.0000   1.0000   1.0000
     1.0000   1.0000   1.0000   1.0000   1.0000   1.0000   1.0000   1.0000
     1.0000   1.0000   1.0000   1.0000   1.0000   1.0000   1.0000   1.0000
     1.0000   1.0000   1.0000   1.0000   1.0000   1.0000   1.0000   1.0000
     1.0000   1.0000   1.0000   1.0000   1.0000   1.0000   1.0000   1.0000
     1.0000   1.0000   1.0000   1.0000   1.0000   1.0000   1.0000   1.0000
     1.0000   1.0000   1.0000   1.0000   1.0000   1.0000   1.0000   1.0000
     1.0000   1.0000   1.0000   1.0000   1.0000   1.0000   1.0000   1.0000
     1.0000   1.0000   1.0000   1.0000   1.0000   1.0000   1.0000   1.0000
     1.0000   1.0000   1.0000   1.0000   1.0000   1.0000   1.0000   1.0000
     1.0000   1.0000   1.0000   1.0000   1.0000   0.0000   0.0000   0.0000
     0.0000   0.0000   0.0000   0.0000   0.0000   0.0000   0.0000   0.0000
     0.0000   0.0000   0.0000   0.0000   0.0000   0.0000   0.0000   0.0000
     0.0000   0.0000   0.0000   0.0000   0.0000

          k = 0.0000 0.1920 0.0000 ( 49535 PWs)   bands (ev):

   -81.3070 -67.9866 -67.9680 -67.8329 -67.6286 -67.4984 -48.3428 -47.0319
   -46.7505 -34.7709 -34.7468 -34.7457 -34.7353 -34.7308 -34.7204 -34.6052
   -34.6051 -34.5803 -34.3978 -34.3935 -34.3873 -34.2796 -34.2564 -34.2517
   -23.5787 -23.5498 -15.3041 -15.2629 -14.4315 -14.3937 -13.8711 -13.8594
   -13.6151 -13.5227 -13.4743 -13.4142 -13.2408 -13.2003 -13.1782 -13.1505
   -13.0552 -12.9368 -12.7745 -12.7125 -12.5792 -12.5680 -12.5288 -12.4190
   -11.8201 -11.5449  -7.1115  -7.0847  -7.0563  -7.0546  -7.0230  -7.0133
    -4.5179  -4.4800  -2.8677  -2.7872  -2.0325  -1.7257  -1.3625  -1.3487
    -1.2837  -1.2360  -1.0221  -0.9296  -0.8678  -0.6255  -0.6059  -0.4425
    -0.3719  -0.1550  -0.0985   0.1284   0.2274   0.2471   0.4176   0.5487
     0.6567   0.7008   0.8040   0.9101   1.0632   1.2351   1.2477   1.3692
     1.4225   1.5569   1.6423   1.7517   1.7532   1.8439   1.9222   1.9930
     2.0607   2.1517   2.1936   2.2095   2.3386   2.3548   2.4400   2.4776
     2.5519   2.5979   2.6754   2.7024   2.7405   2.7960   2.9031   2.9571
     3.0405   3.0719   3.1189   3.1397   3.1932   3.2057   3.2643   3.3598
     3.4137   3.4910   3.5247   3.6054   3.6297   3.7723   3.7943   3.9974
     5.0683   5.2908   6.2903   6.8630   6.9442   9.0105   9.9416  10.3219
    10.9376  11.3507  11.7097  12.0484  12.1336  12.2536  12.4305  12.5741
    12.5995  12.8136  12.9625  12.9691  13.0447  13.2058  13.2090  13.2886
    13.3367  13.3941  13.6270  13.8182  13.8236

     occupation numbers 
     1.0000   1.0000   1.0000   1.0000   1.0000   1.0000   1.0000   1.0000
     1.0000   1.0000   1.0000   1.0000   1.0000   1.0000   1.0000   1.0000
     1.0000   1.0000   1.0000   1.0000   1.0000   1.0000   1.0000   1.0000
     1.0000   1.0000   1.0000   1.0000   1.0000   1.0000   1.0000   1.0000
     1.0000   1.0000   1.0000   1.0000   1.0000   1.0000   1.0000   1.0000
     1.0000   1.0000   1.0000   1.0000   1.0000   1.0000   1.0000   1.0000
     1.0000   1.0000   1.0000   1.0000   1.0000   1.0000   1.0000   1.0000
     1.0000   1.0000   1.0000   1.0000   1.0000   1.0000   1.0000   1.0000
     1.0000   1.0000   1.0000   1.0000   1.0000   1.0000   1.0000   1.0000
     1.0000   1.0000   1.0000   1.0000   1.0000   1.0000   1.0000   1.0000
     1.0000   1.0000   1.0000   1.0000   1.0000   1.0000   1.0000   1.0000
     1.0000   1.0000   1.0000   1.0000   1.0000   1.0000   1.0000   1.0000
     1.0000   1.0000   1.0000   1.0000   1.0000   1.0000   1.0000   1.0000
     1.0000   1.0000   1.0000   1.0000   1.0000   1.0000   1.0000   1.0000
     1.0000   1.0000   1.0000   1.0000   1.0000   1.0000   1.0000   1.0000
     1.0000   1.0000   1.0000   1.0000   1.0000   1.0000   1.0000   1.0000
     1.0000   1.0000   1.0000   1.0000   1.0000   0.0000   0.0000   0.0000
     0.0000   0.0000   0.0000   0.0000   0.0000   0.0000   0.0000   0.0000
     0.0000   0.0000   0.0000   0.0000   0.0000   0.0000   0.0000   0.0000
     0.0000   0.0000   0.0000   0.0000   0.0000

          k = 0.0000 0.1920 0.1722 ( 49591 PWs)   bands (ev):

   -81.3070 -67.9866 -67.9680 -67.8329 -67.6286 -67.4984 -48.3428 -47.0319
   -46.7505 -34.7709 -34.7468 -34.7457 -34.7353 -34.7308 -34.7204 -34.6052
   -34.6051 -34.5803 -34.3978 -34.3935 -34.3873 -34.2796 -34.2565 -34.2517
   -23.5787 -23.5498 -15.2957 -15.2718 -14.4239 -14.4018 -13.8716 -13.8589
   -13.6115 -13.5194 -13.4857 -13.4073 -13.2468 -13.1926 -13.1804 -13.1517
   -13.0533 -12.9394 -12.7707 -12.7162 -12.5847 -12.5594 -12.5273 -12.4231
   -11.8200 -11.5453  -7.1115  -7.0847  -7.0563  -7.0545  -7.0229  -7.0133
    -4.5115  -4.4867  -2.8483  -2.8082  -2.0145  -1.7195  -1.3575  -1.3486
    -1.2747  -1.2506  -1.0035  -0.9497  -0.8741  -0.6542  -0.5760  -0.5059
    -0.3376  -0.1545  -0.1473   0.1015   0.2213   0.2492   0.4413   0.5446
     0.6843   0.7174   0.7539   0.9513   1.1225   1.2128   1.2887   1.3532
     1.5056   1.5407   1.6838   1.7295   1.7877   1.8193   1.9078   2.0086
     2.0700   2.1074   2.2001   2.2099   2.3148   2.3257   2.4132   2.4677
     2.5485   2.5934   2.6677   2.7023   2.7377   2.8139   2.8599   2.9584
     3.0125   3.0929   3.1168   3.1482   3.1906   3.2338   3.2806   3.3456
     3.4203   3.4555   3.5184   3.6057   3.6209   3.7818   3.8321   3.9966
     5.0689   5.2871   6.2906   6.8588   6.9457   9.2685   9.9002  10.1236
    10.6271  11.3665  11.7209  12.0783  12.2151  12.4613  12.5809  12.5998
    12.7432  12.8470  12.9099  12.9893  13.0584  13.1134  13.1585  13.2915
    13.3266  13.4459  13.6219  13.6809  13.8259

     occupation numbers 
     1.0000   1.0000   1.0000   1.0000   1.0000   1.0000   1.0000   1.0000
     1.0000   1.0000   1.0000   1.0000   1.0000   1.0000   1.0000   1.0000
     1.0000   1.0000   1.0000   1.0000   1.0000   1.0000   1.0000   1.0000
     1.0000   1.0000   1.0000   1.0000   1.0000   1.0000   1.0000   1.0000
     1.0000   1.0000   1.0000   1.0000   1.0000   1.0000   1.0000   1.0000
     1.0000   1.0000   1.0000   1.0000   1.0000   1.0000   1.0000   1.0000
     1.0000   1.0000   1.0000   1.0000   1.0000   1.0000   1.0000   1.0000
     1.0000   1.0000   1.0000   1.0000   1.0000   1.0000   1.0000   1.0000
     1.0000   1.0000   1.0000   1.0000   1.0000   1.0000   1.0000   1.0000
     1.0000   1.0000   1.0000   1.0000   1.0000   1.0000   1.0000   1.0000
     1.0000   1.0000   1.0000   1.0000   1.0000   1.0000   1.0000   1.0000
     1.0000   1.0000   1.0000   1.0000   1.0000   1.0000   1.0000   1.0000
     1.0000   1.0000   1.0000   1.0000   1.0000   1.0000   1.0000   1.0000
     1.0000   1.0000   1.0000   1.0000   1.0000   1.0000   1.0000   1.0000
     1.0000   1.0000   1.0000   1.0000   1.0000   1.0000   1.0000   1.0000
     1.0000   1.0000   1.0000   1.0000   1.0000   1.0000   1.0000   1.0000
     1.0000   1.0000   1.0000   1.0000   1.0000   0.0000   0.0000   0.0000
     0.0000   0.0000   0.0000   0.0000   0.0000   0.0000   0.0000   0.0000
     0.0000   0.0000   0.0000   0.0000   0.0000   0.0000   0.0000   0.0000
     0.0000   0.0000   0.0000   0.0000   0.0000

          k = 0.1667 0.0000 0.0306 ( 49577 PWs)   bands (ev):

   -81.3070 -67.9866 -67.9680 -67.8329 -67.6286 -67.4984 -48.3428 -47.0319
   -46.7505 -34.7704 -34.7489 -34.7438 -34.7360 -34.7302 -34.7204 -34.6054
   -34.6050 -34.5803 -34.3978 -34.3935 -34.3873 -34.2796 -34.2565 -34.2516
   -23.5786 -23.5497 -15.2523 -15.2119 -14.4123 -14.3828 -13.9890 -13.9691
   -13.6332 -13.5103 -13.4827 -13.3882 -13.2159 -13.1712 -13.1281 -13.1170
   -13.0350 -12.9495 -12.8005 -12.7320 -12.6453 -12.6074 -12.5167 -12.4087
   -11.8074 -11.5591  -7.1127  -7.0859  -7.0569  -7.0536  -7.0228  -7.0117
    -4.4040  -4.3622  -2.6804  -2.5987  -2.0969  -1.7370  -1.6974  -1.6174
    -1.1811  -1.1108  -0.9843  -0.9271  -0.8272  -0.6463  -0.6114  -0.4673
    -0.2575  -0.2044  -0.1036   0.0989   0.2384   0.3255   0.3669   0.5031
     0.6835   0.7894   0.8093   0.9078   1.0298   1.1341   1.2338   1.2937
     1.3432   1.5616   1.6488   1.6815   1.7352   1.8245   1.9237   1.9617
     2.0489   2.1508   2.2353   2.2429   2.3144   2.3584   2.3997   2.5130
     2.5499   2.6003   2.6709   2.7486   2.7941   2.8199   2.8836   2.9458
     2.9850   3.0352   3.0824   3.1071   3.1438   3.2537   3.2932   3.3481
     3.4172   3.4914   3.5032   3.5606   3.5925   3.7519   3.8142   3.9613
     5.1153   5.2659   6.2859   6.8898   6.9241   8.9401  10.2594  10.8552
    11.1947  11.4660  11.5877  11.8983  12.0667  12.2065  12.4674  12.5708
    12.6488  12.7750  12.8534  13.0829  13.1001  13.1538  13.1666  13.2486
    13.3293  13.5635  13.5880  13.6875  13.7574

     occupation numbers 
     1.0000   1.0000   1.0000   1.0000   1.0000   1.0000   1.0000   1.0000
     1.0000   1.0000   1.0000   1.0000   1.0000   1.0000   1.0000   1.0000
     1.0000   1.0000   1.0000   1.0000   1.0000   1.0000   1.0000   1.0000
     1.0000   1.0000   1.0000   1.0000   1.0000   1.0000   1.0000   1.0000
     1.0000   1.0000   1.0000   1.0000   1.0000   1.0000   1.0000   1.0000
     1.0000   1.0000   1.0000   1.0000   1.0000   1.0000   1.0000   1.0000
     1.0000   1.0000   1.0000   1.0000   1.0000   1.0000   1.0000   1.0000
     1.0000   1.0000   1.0000   1.0000   1.0000   1.0000   1.0000   1.0000
     1.0000   1.0000   1.0000   1.0000   1.0000   1.0000   1.0000   1.0000
     1.0000   1.0000   1.0000   1.0000   1.0000   1.0000   1.0000   1.0000
     1.0000   1.0000   1.0000   1.0000   1.0000   1.0000   1.0000   1.0000
     1.0000   1.0000   1.0000   1.0000   1.0000   1.0000   1.0000   1.0000
     1.0000   1.0000   1.0000   1.0000   1.0000   1.0000   1.0000   1.0000
     1.0000   1.0000   1.0000   1.0000   1.0000   1.0000   1.0000   1.0000
     1.0000   1.0000   1.0000   1.0000   1.0000   1.0000   1.0000   1.0000
     1.0000   1.0000   1.0000   1.0000   1.0000   1.0000   1.0000   1.0000
     1.0000   1.0000   1.0000   1.0000   1.0000   0.0000   0.0000   0.0000
     0.0000   0.0000   0.0000   0.0000   0.0000   0.0000   0.0000   0.0000
     0.0000   0.0000   0.0000   0.0000   0.0000   0.0000   0.0000   0.0000
     0.0000   0.0000   0.0000   0.0000   0.0000

          k = 0.1667 0.0000 0.2027 ( 49607 PWs)   bands (ev):

   -81.3070 -67.9866 -67.9680 -67.8329 -67.6286 -67.4984 -48.3428 -47.0319
   -46.7505 -34.7704 -34.7489 -34.7438 -34.7360 -34.7302 -34.7204 -34.6054
   -34.6050 -34.5803 -34.3978 -34.3935 -34.3873 -34.2796 -34.2565 -34.2516
   -23.5786 -23.5497 -15.2421 -15.2226 -14.4048 -14.3906 -13.9852 -13.9730
   -13.6281 -13.5193 -13.4810 -13.3843 -13.2156 -13.1712 -13.1281 -13.1201
   -13.0311 -12.9519 -12.7967 -12.7365 -12.6410 -12.6111 -12.5106 -12.4142
   -11.8070 -11.5597  -7.1127  -7.0859  -7.0569  -7.0536  -7.0227  -7.0117
    -4.4046  -4.3617  -2.6659  -2.6161  -2.0744  -1.7615  -1.6812  -1.6069
    -1.1764  -1.1158  -0.9786  -0.9386  -0.8147  -0.6453  -0.5981  -0.5562
    -0.2317  -0.1770  -0.1417   0.0535   0.2296   0.3281   0.3468   0.5433
     0.6974   0.7851   0.8199   0.9151   1.0238   1.1930   1.2079   1.3160
     1.3625   1.6042   1.6691   1.6963   1.7385   1.8889   1.9107   1.9907
     2.0094   2.1319   2.1554   2.2452   2.2799   2.3733   2.3842   2.4640
     2.5246   2.6401   2.6603   2.7248   2.8018   2.8519   2.8757   2.9448
     2.9680   3.0297   3.0650   3.1217   3.1616   3.2821   3.3069   3.3310
     3.4189   3.4353   3.5145   3.5599   3.5782   3.7803   3.8341   3.9593
     5.1152   5.2628   6.2858   6.8889   6.9238   9.2948   9.7183  10.9454
    11.2285  11.3233  11.6542  11.8074  12.0294  12.4182  12.5414  12.6237
    12.7248  12.8784  12.9336  12.9620  13.1138  13.1259  13.2079  13.2817
    13.3190  13.4165  13.4983  13.5714  13.8557

     occupation numbers 
     1.0000   1.0000   1.0000   1.0000   1.0000   1.0000   1.0000   1.0000
     1.0000   1.0000   1.0000   1.0000   1.0000   1.0000   1.0000   1.0000
     1.0000   1.0000   1.0000   1.0000   1.0000   1.0000   1.0000   1.0000
     1.0000   1.0000   1.0000   1.0000   1.0000   1.0000   1.0000   1.0000
     1.0000   1.0000   1.0000   1.0000   1.0000   1.0000   1.0000   1.0000
     1.0000   1.0000   1.0000   1.0000   1.0000   1.0000   1.0000   1.0000
     1.0000   1.0000   1.0000   1.0000   1.0000   1.0000   1.0000   1.0000
     1.0000   1.0000   1.0000   1.0000   1.0000   1.0000   1.0000   1.0000
     1.0000   1.0000   1.0000   1.0000   1.0000   1.0000   1.0000   1.0000
     1.0000   1.0000   1.0000   1.0000   1.0000   1.0000   1.0000   1.0000
     1.0000   1.0000   1.0000   1.0000   1.0000   1.0000   1.0000   1.0000
     1.0000   1.0000   1.0000   1.0000   1.0000   1.0000   1.0000   1.0000
     1.0000   1.0000   1.0000   1.0000   1.0000   1.0000   1.0000   1.0000
     1.0000   1.0000   1.0000   1.0000   1.0000   1.0000   1.0000   1.0000
     1.0000   1.0000   1.0000   1.0000   1.0000   1.0000   1.0000   1.0000
     1.0000   1.0000   1.0000   1.0000   1.0000   1.0000   1.0000   1.0000
     1.0000   1.0000   1.0000   1.0000   1.0000   0.0000   0.0000   0.0000
     0.0000   0.0000   0.0000   0.0000   0.0000   0.0000   0.0000   0.0000
     0.0000   0.0000   0.0000   0.0000   0.0000   0.0000   0.0000   0.0000
     0.0000   0.0000   0.0000   0.0000   0.0000

          k = 0.1667 0.0000-0.1416 ( 49612 PWs)   bands (ev):

   -81.3070 -67.9866 -67.9680 -67.8329 -67.6286 -67.4984 -48.3428 -47.0319
   -46.7505 -34.7704 -34.7489 -34.7438 -34.7360 -34.7302 -34.7204 -34.6054
   -34.6050 -34.5803 -34.3978 -34.3935 -34.3873 -34.2796 -34.2565 -34.2516
   -23.5786 -23.5497 -15.2461 -15.2184 -14.4053 -14.3901 -13.9842 -13.9739
   -13.6299 -13.5119 -13.4870 -13.3847 -13.2159 -13.1708 -13.1289 -13.1173
   -13.0333 -12.9519 -12.7945 -12.7385 -12.6310 -12.6220 -12.5101 -12.4134
   -11.8070 -11.5596  -7.1128  -7.0859  -7.0569  -7.0536  -7.0227  -7.0117
    -4.3876  -4.3789  -2.6639  -2.6171  -2.0833  -1.7605  -1.6779  -1.6109
    -1.1707  -1.1231  -0.9718  -0.9224  -0.8308  -0.6399  -0.6223  -0.5247
    -0.2505  -0.1848  -0.1292   0.0594   0.2478   0.3246   0.3858   0.5259
     0.6695   0.8004   0.8030   0.9157   1.0445   1.1625   1.2389   1.2714
     1.3941   1.6091   1.6281   1.6968   1.7327   1.8203   1.9099   1.9740
     1.9989   2.1603   2.2178   2.2275   2.2823   2.3763   2.4092   2.4785
     2.5409   2.6129   2.6850   2.7471   2.8406   2.8589   2.8831   2.9051
     2.9762   3.0421   3.0491   3.1394   3.1586   3.2048   3.3001   3.3622
     3.3721   3.4652   3.4937   3.5705   3.6036   3.7716   3.8265   3.9637
     5.1133   5.2660   6.2862   6.8884   6.9262   9.1055   9.9652  10.9762
    11.2679  11.3198  11.6811  11.7845  12.0250  12.4221  12.4885  12.5655
    12.7258  12.8110  12.8382  12.9642  13.0841  13.1119  13.2030  13.2389
    13.3506  13.4803  13.5350  13.7029  13.7846

     occupation numbers 
     1.0000   1.0000   1.0000   1.0000   1.0000   1.0000   1.0000   1.0000
     1.0000   1.0000   1.0000   1.0000   1.0000   1.0000   1.0000   1.0000
     1.0000   1.0000   1.0000   1.0000   1.0000   1.0000   1.0000   1.0000
     1.0000   1.0000   1.0000   1.0000   1.0000   1.0000   1.0000   1.0000
     1.0000   1.0000   1.0000   1.0000   1.0000   1.0000   1.0000   1.0000
     1.0000   1.0000   1.0000   1.0000   1.0000   1.0000   1.0000   1.0000
     1.0000   1.0000   1.0000   1.0000   1.0000   1.0000   1.0000   1.0000
     1.0000   1.0000   1.0000   1.0000   1.0000   1.0000   1.0000   1.0000
     1.0000   1.0000   1.0000   1.0000   1.0000   1.0000   1.0000   1.0000
     1.0000   1.0000   1.0000   1.0000   1.0000   1.0000   1.0000   1.0000
     1.0000   1.0000   1.0000   1.0000   1.0000   1.0000   1.0000   1.0000
     1.0000   1.0000   1.0000   1.0000   1.0000   1.0000   1.0000   1.0000
     1.0000   1.0000   1.0000   1.0000   1.0000   1.0000   1.0000   1.0000
     1.0000   1.0000   1.0000   1.0000   1.0000   1.0000   1.0000   1.0000
     1.0000   1.0000   1.0000   1.0000   1.0000   1.0000   1.0000   1.0000
     1.0000   1.0000   1.0000   1.0000   1.0000   1.0000   1.0000   1.0000
     1.0000   1.0000   1.0000   1.0000   1.0000   0.0000   0.0000   0.0000
     0.0000   0.0000   0.0000   0.0000   0.0000   0.0000   0.0000   0.0000
     0.0000   0.0000   0.0000   0.0000   0.0000   0.0000   0.0000   0.0000
     0.0000   0.0000   0.0000   0.0000   0.0000

          k = 0.1667 0.1920 0.0306 ( 49547 PWs)   bands (ev):

   -81.3070 -67.9866 -67.9680 -67.8329 -67.6286 -67.4984 -48.3428 -47.0319
   -46.7505 -34.7704 -34.7489 -34.7438 -34.7360 -34.7302 -34.7204 -34.6054
   -34.6050 -34.5803 -34.3978 -34.3934 -34.3873 -34.2796 -34.2565 -34.2517
   -23.5786 -23.5497 -15.2472 -15.2071 -14.4434 -14.4093 -13.9752 -13.9584
   -13.5786 -13.4998 -13.4207 -13.3739 -13.2315 -13.2057 -13.1746 -13.1548
   -13.0527 -12.9431 -12.7934 -12.7208 -12.6404 -12.6099 -12.5144 -12.4070
   -11.8061 -11.5587  -7.1117  -7.0871  -7.0568  -7.0533  -7.0227  -7.0119
    -4.3660  -4.3231  -2.8432  -2.7625  -2.0129  -1.7043  -1.5825  -1.5483
    -1.1704  -1.1200  -1.0426  -0.9268  -0.8031  -0.6112  -0.5697  -0.4248
    -0.3075  -0.1876  -0.1192   0.0915   0.1862   0.2931   0.3833   0.4513
     0.6594   0.7396   0.8215   0.9190   0.9975   1.1612   1.2604   1.3169
     1.3884   1.5687   1.6037   1.6853   1.7787   1.8268   1.9695   2.0247
     2.0769   2.1766   2.1959   2.2414   2.3080   2.4147   2.4438   2.4976
     2.5507   2.5996   2.6618   2.7258   2.7695   2.8196   2.8756   2.9347
     3.0206   3.0512   3.0951   3.1150   3.1565   3.1926   3.2575   3.3630
     3.3977   3.4494   3.5060   3.5341   3.5830   3.6901   3.8221   3.9009
     5.1173   5.2574   6.2938   6.8634   6.9367   9.2850  10.1301  10.4802
    11.0441  11.4093  11.7106  12.1119  12.1602  12.3064  12.4680  12.5580
    12.6612  12.7803  12.8417  12.9669  13.0196  13.1630  13.2116  13.2905
    13.3847  13.4587  13.6549  13.7984  13.9459

     occupation numbers 
     1.0000   1.0000   1.0000   1.0000   1.0000   1.0000   1.0000   1.0000
     1.0000   1.0000   1.0000   1.0000   1.0000   1.0000   1.0000   1.0000
     1.0000   1.0000   1.0000   1.0000   1.0000   1.0000   1.0000   1.0000
     1.0000   1.0000   1.0000   1.0000   1.0000   1.0000   1.0000   1.0000
     1.0000   1.0000   1.0000   1.0000   1.0000   1.0000   1.0000   1.0000
     1.0000   1.0000   1.0000   1.0000   1.0000   1.0000   1.0000   1.0000
     1.0000   1.0000   1.0000   1.0000   1.0000   1.0000   1.0000   1.0000
     1.0000   1.0000   1.0000   1.0000   1.0000   1.0000   1.0000   1.0000
     1.0000   1.0000   1.0000   1.0000   1.0000   1.0000   1.0000   1.0000
     1.0000   1.0000   1.0000   1.0000   1.0000   1.0000   1.0000   1.0000
     1.0000   1.0000   1.0000   1.0000   1.0000   1.0000   1.0000   1.0000
     1.0000   1.0000   1.0000   1.0000   1.0000   1.0000   1.0000   1.0000
     1.0000   1.0000   1.0000   1.0000   1.0000   1.0000   1.0000   1.0000
     1.0000   1.0000   1.0000   1.0000   1.0000   1.0000   1.0000   1.0000
     1.0000   1.0000   1.0000   1.0000   1.0000   1.0000   1.0000   1.0000
     1.0000   1.0000   1.0000   1.0000   1.0000   1.0000   1.0000   1.0000
     1.0000   1.0000   1.0000   1.0000   1.0000   0.0000   0.0000   0.0000
     0.0000   0.0000   0.0000   0.0000   0.0000   0.0000   0.0000   0.0000
     0.0000   0.0000   0.0000   0.0000   0.0000   0.0000   0.0000   0.0000
     0.0000   0.0000   0.0000   0.0000   0.0000

          k = 0.1667 0.1920 0.2027 ( 49568 PWs)   bands (ev):

   -81.3070 -67.9866 -67.9680 -67.8329 -67.6286 -67.4984 -48.3428 -47.0319
   -46.7505 -34.7704 -34.7489 -34.7438 -34.7360 -34.7302 -34.7204 -34.6054
   -34.6050 -34.5803 -34.3978 -34.3934 -34.3873 -34.2796 -34.2565 -34.2517
   -23.5786 -23.5497 -15.2367 -15.2181 -14.4346 -14.4186 -13.9736 -13.9600
   -13.5753 -13.4971 -13.4330 -13.3646 -13.2341 -13.2082 -13.1731 -13.1526
   -13.0510 -12.9459 -12.7902 -12.7248 -12.6383 -12.6112 -12.5084 -12.4125
   -11.8057 -11.5593  -7.1118  -7.0872  -7.0568  -7.0533  -7.0227  -7.0119
    -4.3643  -4.3250  -2.8238  -2.7837  -1.9953  -1.6977  -1.5980  -1.5341
    -1.1738  -1.1144  -1.0392  -0.9326  -0.7954  -0.6484  -0.5505  -0.4745
    -0.2793  -0.1877  -0.1495   0.0567   0.1835   0.2938   0.3687   0.4743
     0.6687   0.7185   0.8476   0.9408   1.0135   1.2028   1.2578   1.3456
     1.4292   1.5402   1.6011   1.7073   1.8068   1.8508   1.9701   2.0376
     2.0549   2.1576   2.1854   2.2207   2.2879   2.3813   2.4181   2.5010
     2.5476   2.5796   2.6461   2.7400   2.7766   2.8118   2.8398   2.9687
     3.0090   3.0273   3.0972   3.1192   3.1758   3.2128   3.2796   3.3557
     3.3898   3.4122   3.5128   3.5323   3.5624   3.7318   3.8362   3.9045
     5.1172   5.2539   6.2939   6.8609   6.9366   9.5874  10.0062  10.3290
    10.7177  11.4129  11.7135  12.1316  12.2249  12.3713  12.5868  12.7069
    12.8003  12.8656  12.8989  13.0000  13.0530  13.0947  13.2044  13.2607
    13.2791  13.4502  13.5194  13.7423  13.8390

     occupation numbers 
     1.0000   1.0000   1.0000   1.0000   1.0000   1.0000   1.0000   1.0000
     1.0000   1.0000   1.0000   1.0000   1.0000   1.0000   1.0000   1.0000
     1.0000   1.0000   1.0000   1.0000   1.0000   1.0000   1.0000   1.0000
     1.0000   1.0000   1.0000   1.0000   1.0000   1.0000   1.0000   1.0000
     1.0000   1.0000   1.0000   1.0000   1.0000   1.0000   1.0000   1.0000
     1.0000   1.0000   1.0000   1.0000   1.0000   1.0000   1.0000   1.0000
     1.0000   1.0000   1.0000   1.0000   1.0000   1.0000   1.0000   1.0000
     1.0000   1.0000   1.0000   1.0000   1.0000   1.0000   1.0000   1.0000
     1.0000   1.0000   1.0000   1.0000   1.0000   1.0000   1.0000   1.0000
     1.0000   1.0000   1.0000   1.0000   1.0000   1.0000   1.0000   1.0000
     1.0000   1.0000   1.0000   1.0000   1.0000   1.0000   1.0000   1.0000
     1.0000   1.0000   1.0000   1.0000   1.0000   1.0000   1.0000   1.0000
     1.0000   1.0000   1.0000   1.0000   1.0000   1.0000   1.0000   1.0000
     1.0000   1.0000   1.0000   1.0000   1.0000   1.0000   1.0000   1.0000
     1.0000   1.0000   1.0000   1.0000   1.0000   1.0000   1.0000   1.0000
     1.0000   1.0000   1.0000   1.0000   1.0000   1.0000   1.0000   1.0000
     1.0000   1.0000   1.0000   1.0000   1.0000   0.0000   0.0000   0.0000
     0.0000   0.0000   0.0000   0.0000   0.0000   0.0000   0.0000   0.0000
     0.0000   0.0000   0.0000   0.0000   0.0000   0.0000   0.0000   0.0000
     0.0000   0.0000   0.0000   0.0000   0.0000

          k = 0.1667 0.1920-0.1416 ( 49571 PWs)   bands (ev):

   -81.3070 -67.9866 -67.9680 -67.8329 -67.6286 -67.4984 -48.3428 -47.0319
   -46.7505 -34.7704 -34.7489 -34.7438 -34.7360 -34.7302 -34.7204 -34.6054
   -34.6050 -34.5803 -34.3978 -34.3934 -34.3873 -34.2796 -34.2565 -34.2517
   -23.5786 -23.5497 -15.2409 -15.2138 -14.4362 -14.4169 -13.9708 -13.9629
   -13.5764 -13.4974 -13.4286 -13.3688 -13.2348 -13.2027 -13.1769 -13.1535
   -13.0510 -12.9456 -12.7877 -12.7267 -12.6275 -12.6233 -12.5080 -12.4118
   -11.8056 -11.5592  -7.1118  -7.0872  -7.0568  -7.0533  -7.0227  -7.0119
    -4.3483  -4.3412  -2.8245  -2.7826  -2.0021  -1.6996  -1.5993  -1.5319
    -1.1594  -1.1317  -1.0200  -0.9316  -0.8182  -0.6266  -0.5626  -0.4580
    -0.2996  -0.1924  -0.1442   0.0713   0.1975   0.2857   0.4069   0.4701
     0.6385   0.7275   0.8251   0.9427   1.0309   1.1591   1.2815   1.3469
     1.4185   1.5580   1.5795   1.7256   1.7721   1.8357   1.9453   2.0095
     2.0386   2.1624   2.2060   2.2452   2.3060   2.3903   2.4460   2.4933
     2.5758   2.5874   2.6740   2.6983   2.7911   2.8151   2.8411   2.9587
     3.0241   3.0552   3.0945   3.1262   3.1741   3.1869   3.2754   3.3407
     3.3750   3.4285   3.4814   3.5332   3.5856   3.7272   3.8270   3.9038
     5.1155   5.2576   6.2942   6.8597   6.9370   9.4450  10.2034  10.2677
    10.8256  11.4649  11.7454  12.0936  12.1602  12.4012  12.5257  12.6134
    12.7662  12.8041  12.8726  12.9527  13.0847  13.1324  13.2043  13.2788
    13.3299  13.3950  13.5119  13.7692  13.8625

     occupation numbers 
     1.0000   1.0000   1.0000   1.0000   1.0000   1.0000   1.0000   1.0000
     1.0000   1.0000   1.0000   1.0000   1.0000   1.0000   1.0000   1.0000
     1.0000   1.0000   1.0000   1.0000   1.0000   1.0000   1.0000   1.0000
     1.0000   1.0000   1.0000   1.0000   1.0000   1.0000   1.0000   1.0000
     1.0000   1.0000   1.0000   1.0000   1.0000   1.0000   1.0000   1.0000
     1.0000   1.0000   1.0000   1.0000   1.0000   1.0000   1.0000   1.0000
     1.0000   1.0000   1.0000   1.0000   1.0000   1.0000   1.0000   1.0000
     1.0000   1.0000   1.0000   1.0000   1.0000   1.0000   1.0000   1.0000
     1.0000   1.0000   1.0000   1.0000   1.0000   1.0000   1.0000   1.0000
     1.0000   1.0000   1.0000   1.0000   1.0000   1.0000   1.0000   1.0000
     1.0000   1.0000   1.0000   1.0000   1.0000   1.0000   1.0000   1.0000
     1.0000   1.0000   1.0000   1.0000   1.0000   1.0000   1.0000   1.0000
     1.0000   1.0000   1.0000   1.0000   1.0000   1.0000   1.0000   1.0000
     1.0000   1.0000   1.0000   1.0000   1.0000   1.0000   1.0000   1.0000
     1.0000   1.0000   1.0000   1.0000   1.0000   1.0000   1.0000   1.0000
     1.0000   1.0000   1.0000   1.0000   1.0000   1.0000   1.0000   1.0000
     1.0000   1.0000   1.0000   1.0000   1.0000   0.0000   0.0000   0.0000
     0.0000   0.0000   0.0000   0.0000   0.0000   0.0000   0.0000   0.0000
     0.0000   0.0000   0.0000   0.0000   0.0000   0.0000   0.0000   0.0000
     0.0000   0.0000   0.0000   0.0000   0.0000

          k = 0.3333 0.0000 0.0611 ( 49555 PWs)   bands (ev):

   -81.3070 -67.9866 -67.9680 -67.8329 -67.6286 -67.4984 -48.3428 -47.0319
   -46.7505 -34.7695 -34.7513 -34.7418 -34.7372 -34.7293 -34.7206 -34.6054
   -34.6049 -34.5804 -34.3979 -34.3934 -34.3874 -34.2797 -34.2566 -34.2516
   -23.5784 -23.5495 -15.0953 -15.0588 -14.5269 -14.5025 -14.1108 -14.0873
   -13.5362 -13.4247 -13.3595 -13.3491 -13.2515 -13.2084 -13.1392 -13.1281
   -13.0385 -12.9561 -12.8520 -12.7939 -12.7210 -12.6557 -12.4990 -12.4005
   -11.7761 -11.5916  -7.1127  -7.0913  -7.0567  -7.0521  -7.0224  -7.0089
    -3.9982  -3.9421  -2.8077  -2.7105  -2.1005  -1.9595  -1.7100  -1.5594
    -1.1364  -1.0831  -1.0174  -0.9745  -0.7068  -0.5861  -0.5408  -0.4304
    -0.3529  -0.1737  -0.0621   0.0767   0.2046   0.3103   0.3730   0.4563
     0.5519   0.7000   0.8186   0.8630   1.0543   1.1216   1.2138   1.2549
     1.3106   1.3934   1.5120   1.6340   1.7483   1.8771   1.9954   2.0857
     2.1114   2.1353   2.2296   2.3030   2.3720   2.4062   2.4351   2.5118
     2.5733   2.6359   2.6431   2.7330   2.7716   2.8399   2.8603   2.8633
     2.9277   2.9707   3.0644   3.1190   3.1569   3.2201   3.2778   3.3318
[...]
     7.7808   8.5071   8.5557   9.3873   9.8927  10.0451  10.7483  11.0362
    11.4628  11.5510  11.7087  11.8131  12.2718  12.3044  12.3337  12.5372
    12.7000  12.7933  12.8950  13.0724  13.1036  13.1676  13.1759  13.2286
    13.4878  13.6578  13.7184  13.8986  13.9621

     occupation numbers 
     1.0000   1.0000   1.0000   1.0000   1.0000   1.0000   1.0000   1.0000
     1.0000   1.0000   1.0000   1.0000   1.0000   1.0000   1.0000   1.0000
     1.0000   1.0000   1.0000   1.0000   1.0000   1.0000   1.0000   1.0000
     1.0000   1.0000   1.0000   1.0000   1.0000   1.0000   1.0000   1.0000
     1.0000   1.0000   1.0000   1.0000   1.0000   1.0000   1.0000   1.0000
     1.0000   1.0000   1.0000   1.0000   1.0000   1.0000   1.0000   1.0000
     1.0000   1.0000   1.0000   1.0000   1.0000   1.0000   1.0000   1.0000
     1.0000   1.0000   1.0000   1.0000   1.0000   1.0000   1.0000   1.0000
     1.0000   1.0000   1.0000   1.0000   1.0000   1.0000   1.0000   1.0000
     1.0000   1.0000   1.0000   1.0000   1.0000   1.0000   1.0000   1.0000
     1.0000   1.0000   1.0000   1.0000   1.0000   1.0000   1.0000   1.0000
     1.0000   1.0000   1.0000   1.0000   1.0000   1.0000   1.0000   1.0000
     1.0000   1.0000   1.0000   1.0000   1.0000   1.0000   1.0000   1.0000
     1.0000   1.0000   1.0000   1.0000   1.0000   1.0000   1.0000   1.0000
     1.0000   1.0000   1.0000   1.0000   1.0000   1.0000   1.0000   1.0000
     1.0000   1.0000   1.0000   1.0000   1.0000   1.0000   1.0000   1.0000
     1.0000   0.0000   0.0000   0.0000   0.0000   0.0000   0.0000   0.0000
     0.0000   0.0000   0.0000   0.0000   0.0000   0.0000   0.0000   0.0000
     0.0000   0.0000   0.0000   0.0000   0.0000   0.0000   0.0000   0.0000
     0.0000   0.0000   0.0000   0.0000   0.0000

          k = 0.3333 0.0000 0.2333 ( 49570 PWs)   bands (ev):

   -77.4915 -67.9837 -67.9496 -67.7737 -67.6275 -67.4737 -43.9133 -43.5665
   -43.4791 -34.7643 -34.7465 -34.7371 -34.7227 -34.7179 -34.6969 -34.5518
   -34.5414 -34.5216 -34.4001 -34.3913 -34.3843 -34.2510 -34.2351 -34.2287
   -23.5851 -23.5657 -15.0556 -15.0453 -14.5051 -14.4838 -14.0846 -14.0724
   -13.4933 -13.4019 -13.3572 -13.2987 -13.2052 -13.1874 -13.1350 -13.0923
   -12.9852 -12.9080 -12.8367 -12.8084 -12.7210 -12.6658 -12.4461 -12.3759
   -11.7134 -11.5234  -7.1280  -7.1030  -7.0557  -7.0453  -7.0419  -7.0376
    -3.9717  -3.9138  -2.7615  -2.7004  -2.0653  -1.9797  -1.6394  -1.5038
    -1.1270  -1.0748  -1.0063  -0.9795  -0.6245  -0.5439  -0.4861  -0.4658
    -0.2698  -0.1747  -0.0130   0.0828   0.2250   0.3114   0.3807   0.5166
     0.7167   0.7893   0.8510   0.9129   1.0542   1.2045   1.2961   1.3104
     1.3761   1.4493   1.4916   1.7252   1.8093   1.9609   2.0659   2.1114
     2.1339   2.2134   2.3055   2.3874   2.4322   2.4608   2.5174   2.5697
     2.6165   2.6845   2.7453   2.7917   2.8242   2.9015   2.9471   3.0126
     3.0528   3.1385   3.1682   3.1909   3.2356   3.2756   3.3281   3.3571
     3.3864   3.4332   3.4868   3.5366   3.6310   3.7199   3.7763   3.9748
     7.7798   8.5063   8.5553   9.4315  10.0288  10.1517  10.3181  11.0927
    11.4847  11.5160  11.6841  11.8562  12.1940  12.2528  12.3709  12.4768
    12.8693  12.9185  13.0281  13.0446  13.0746  13.1555  13.1917  13.3231
    13.4101  13.4641  13.5547  13.9412  13.9497

     occupation numbers 
     1.0000   1.0000   1.0000   1.0000   1.0000   1.0000   1.0000   1.0000
     1.0000   1.0000   1.0000   1.0000   1.0000   1.0000   1.0000   1.0000
     1.0000   1.0000   1.0000   1.0000   1.0000   1.0000   1.0000   1.0000
     1.0000   1.0000   1.0000   1.0000   1.0000   1.0000   1.0000   1.0000
     1.0000   1.0000   1.0000   1.0000   1.0000   1.0000   1.0000   1.0000
     1.0000   1.0000   1.0000   1.0000   1.0000   1.0000   1.0000   1.0000
     1.0000   1.0000   1.0000   1.0000   1.0000   1.0000   1.0000   1.0000
     1.0000   1.0000   1.0000   1.0000   1.0000   1.0000   1.0000   1.0000
     1.0000   1.0000   1.0000   1.0000   1.0000   1.0000   1.0000   1.0000
     1.0000   1.0000   1.0000   1.0000   1.0000   1.0000   1.0000   1.0000
     1.0000   1.0000   1.0000   1.0000   1.0000   1.0000   1.0000   1.0000
     1.0000   1.0000   1.0000   1.0000   1.0000   1.0000   1.0000   1.0000
     1.0000   1.0000   1.0000   1.0000   1.0000   1.0000   1.0000   1.0000
     1.0000   1.0000   1.0000   1.0000   1.0000   1.0000   1.0000   1.0000
     1.0000   1.0000   1.0000   1.0000   1.0000   1.0000   1.0000   1.0000
     1.0000   1.0000   1.0000   1.0000   1.0000   1.0000   1.0000   1.0000
     1.0000   0.0000   0.0000   0.0000   0.0000   0.0000   0.0000   0.0000
     0.0000   0.0000   0.0000   0.0000   0.0000   0.0000   0.0000   0.0000
     0.0000   0.0000   0.0000   0.0000   0.0000   0.0000   0.0000   0.0000
     0.0000   0.0000   0.0000   0.0000   0.0000

          k = 0.3333 0.0000-0.1111 ( 49584 PWs)   bands (ev):

   -77.4915 -67.9837 -67.9496 -67.7737 -67.6275 -67.4737 -43.9133 -43.5665
   -43.4791 -34.7643 -34.7465 -34.7371 -34.7227 -34.7179 -34.6969 -34.5518
   -34.5414 -34.5216 -34.4001 -34.3913 -34.3843 -34.2510 -34.2351 -34.2287
   -23.5851 -23.5657 -15.0645 -15.0360 -14.4995 -14.4896 -14.0861 -14.0708
   -13.4970 -13.3927 -13.3617 -13.3013 -13.2045 -13.1870 -13.1360 -13.0912
   -12.9852 -12.9067 -12.8360 -12.8121 -12.7168 -12.6683 -12.4473 -12.3745
   -11.7136 -11.5232  -7.1280  -7.1031  -7.0557  -7.0453  -7.0418  -7.0376
    -3.9488  -3.9373  -2.7710  -2.6899  -2.0763  -1.9647  -1.6543  -1.5069
    -1.1183  -1.0679  -1.0027  -0.9799  -0.6519  -0.5191  -0.5058  -0.4290
    -0.2982  -0.1710  -0.0003   0.0847   0.2378   0.2989   0.4285   0.4862
     0.6931   0.7773   0.8510   0.9655   1.0755   1.1706   1.2642   1.3381
     1.3694   1.3791   1.5479   1.6832   1.7636   1.9954   2.0415   2.0753
     2.1452   2.2675   2.3156   2.3789   2.4213   2.4629   2.5242   2.6113
     2.6325   2.7007   2.7592   2.7863   2.8787   2.8821   2.9550   3.0164
     3.0656   3.1041   3.1381   3.1921   3.2352   3.2739   3.3095   3.3440
     3.3925   3.3934   3.5056   3.5688   3.6076   3.7142   3.7831   3.9755
     7.7803   8.5077   8.5559   9.4694   9.7975  10.0450  10.7118  11.1565
    11.3937  11.5747  11.7486  11.8866  12.1744  12.2534  12.3672  12.4891
    12.7014  12.8207  12.9348  12.9676  13.0812  13.1467  13.1771  13.2201
    13.5069  13.5809  13.7711  13.7942  13.9641

     occupation numbers 
     1.0000   1.0000   1.0000   1.0000   1.0000   1.0000   1.0000   1.0000
     1.0000   1.0000   1.0000   1.0000   1.0000   1.0000   1.0000   1.0000
     1.0000   1.0000   1.0000   1.0000   1.0000   1.0000   1.0000   1.0000
     1.0000   1.0000   1.0000   1.0000   1.0000   1.0000   1.0000   1.0000
     1.0000   1.0000   1.0000   1.0000   1.0000   1.0000   1.0000   1.0000
     1.0000   1.0000   1.0000   1.0000   1.0000   1.0000   1.0000   1.0000
     1.0000   1.0000   1.0000   1.0000   1.0000   1.0000   1.0000   1.0000
     1.0000   1.0000   1.0000   1.0000   1.0000   1.0000   1.0000   1.0000
     1.0000   1.0000   1.0000   1.0000   1.0000   1.0000   1.0000   1.0000
     1.0000   1.0000   1.0000   1.0000   1.0000   1.0000   1.0000   1.0000
     1.0000   1.0000   1.0000   1.0000   1.0000   1.0000   1.0000   1.0000
     1.0000   1.0000   1.0000   1.0000   1.0000   1.0000   1.0000   1.0000
     1.0000   1.0000   1.0000   1.0000   1.0000   1.0000   1.0000   1.0000
     1.0000   1.0000   1.0000   1.0000   1.0000   1.0000   1.0000   1.0000
     1.0000   1.0000   1.0000   1.0000   1.0000   1.0000   1.0000   1.0000
     1.0000   1.0000   1.0000   1.0000   1.0000   1.0000   1.0000   1.0000
     1.0000   0.0000   0.0000   0.0000   0.0000   0.0000   0.0000   0.0000
     0.0000   0.0000   0.0000   0.0000   0.0000   0.0000   0.0000   0.0000
     0.0000   0.0000   0.0000   0.0000   0.0000   0.0000   0.0000   0.0000
     0.0000   0.0000   0.0000   0.0000   0.0000

          k = 0.3333 0.1920 0.0611 ( 49594 PWs)   bands (ev):

   -77.4915 -67.9837 -67.9496 -67.7737 -67.6275 -67.4737 -43.9133 -43.5665
   -43.4791 -34.7643 -34.7465 -34.7371 -34.7227 -34.7179 -34.6969 -34.5518
   -34.5414 -34.5216 -34.4001 -34.3913 -34.3843 -34.2510 -34.2351 -34.2287
   -23.5851 -23.5657 -15.0643 -15.0281 -14.5197 -14.4932 -14.0856 -14.0639
   -13.4701 -13.4034 -13.3270 -13.2742 -13.2203 -13.2001 -13.1696 -13.1115
   -12.9932 -12.9000 -12.8373 -12.7901 -12.7289 -12.6644 -12.4506 -12.3698
   -11.7137 -11.5227  -7.1282  -7.1035  -7.0552  -7.0451  -7.0421  -7.0378
    -3.9454  -3.8906  -2.8884  -2.8067  -2.0007  -1.8326  -1.6011  -1.5346
    -1.1318  -1.0987  -1.0110  -0.9424  -0.6460  -0.5011  -0.4694  -0.3618
    -0.2907  -0.1834  -0.0472   0.1085   0.2175   0.2927   0.3735   0.4126
     0.6470   0.7136   0.9063   1.0191   1.0878   1.1990   1.2550   1.2927
     1.3511   1.4086   1.5188   1.5931   1.8182   1.9847   2.0740   2.1051
     2.1678   2.2475   2.3271   2.3610   2.4187   2.5044   2.5587   2.6301
     2.6472   2.7230   2.7774   2.8131   2.8645   2.9086   2.9855   3.0066
     3.0480   3.0946   3.1391   3.1690   3.1998   3.2621   3.2846   3.3330
     3.3694   3.4804   3.4941   3.5389   3.5954   3.7259   3.7659   3.9072
     7.7874   8.5056   8.5559   9.4721   9.9774  10.0974  10.6326  10.9401
    11.3485  11.4497  11.6166  12.0068  12.0989  12.2187  12.4034  12.6809
    12.8044  12.8384  12.8891  12.9601  13.0613  13.1920  13.2423  13.3744
    13.5248  13.6966  13.7698  13.8357  13.9619

     occupation numbers 
     1.0000   1.0000   1.0000   1.0000   1.0000   1.0000   1.0000   1.0000
     1.0000   1.0000   1.0000   1.0000   1.0000   1.0000   1.0000   1.0000
     1.0000   1.0000   1.0000   1.0000   1.0000   1.0000   1.0000   1.0000
     1.0000   1.0000   1.0000   1.0000   1.0000   1.0000   1.0000   1.0000
     1.0000   1.0000   1.0000   1.0000   1.0000   1.0000   1.0000   1.0000
     1.0000   1.0000   1.0000   1.0000   1.0000   1.0000   1.0000   1.0000
     1.0000   1.0000   1.0000   1.0000   1.0000   1.0000   1.0000   1.0000
     1.0000   1.0000   1.0000   1.0000   1.0000   1.0000   1.0000   1.0000
     1.0000   1.0000   1.0000   1.0000   1.0000   1.0000   1.0000   1.0000
     1.0000   1.0000   1.0000   1.0000   1.0000   1.0000   1.0000   1.0000
     1.0000   1.0000   1.0000   1.0000   1.0000   1.0000   1.0000   1.0000
     1.0000   1.0000   1.0000   1.0000   1.0000   1.0000   1.0000   1.0000
     1.0000   1.0000   1.0000   1.0000   1.0000   1.0000   1.0000   1.0000
     1.0000   1.0000   1.0000   1.0000   1.0000   1.0000   1.0000   1.0000
     1.0000   1.0000   1.0000   1.0000   1.0000   1.0000   1.0000   1.0000
     1.0000   1.0000   1.0000   1.0000   1.0000   1.0000   1.0000   1.0000
     1.0000   0.0000   0.0000   0.0000   0.0000   0.0000   0.0000   0.0000
     0.0000   0.0000   0.0000   0.0000   0.0000   0.0000   0.0000   0.0000
     0.0000   0.0000   0.0000   0.0000   0.0000   0.0000   0.0000   0.0000
     0.0000   0.0000   0.0000   0.0000   0.0000

          k = 0.3333 0.1920 0.2333 ( 49594 PWs)   bands (ev):

   -77.4915 -67.9837 -67.9496 -67.7737 -67.6275 -67.4737 -43.9133 -43.5665
   -43.4791 -34.7643 -34.7465 -34.7371 -34.7227 -34.7179 -34.6969 -34.5518
   -34.5414 -34.5216 -34.4001 -34.3913 -34.3843 -34.2511 -34.2351 -34.2287
   -23.5851 -23.5657 -15.0513 -15.0416 -14.5160 -14.4969 -14.0809 -14.0689
   -13.4674 -13.3990 -13.3388 -13.2678 -13.2195 -13.1988 -13.1761 -13.1067
   -12.9922 -12.9019 -12.8323 -12.7987 -12.7212 -12.6691 -12.4448 -12.3753
   -11.7130 -11.5234  -7.1282  -7.1035  -7.0552  -7.0450  -7.0420  -7.0378
    -3.9446  -3.8914  -2.8648  -2.8328  -1.9877  -1.8505  -1.5867  -1.5256
    -1.1291  -1.1119  -0.9773  -0.9632  -0.6200  -0.5396  -0.4678  -0.3890
    -0.2783  -0.2090  -0.0226   0.0693   0.2132   0.2872   0.3593   0.4378
     0.6364   0.7406   0.9483   1.0148   1.0583   1.1724   1.2698   1.3320
     1.3820   1.4382   1.4943   1.6157   1.8730   1.9243   2.0799   2.1092
     2.1524   2.2320   2.3051   2.3634   2.4394   2.4743   2.5395   2.6090
     2.6343   2.7038   2.7775   2.8201   2.8430   2.9090   2.9944   3.0180
     3.0597   3.1193   3.1475   3.1783   3.2183   3.2636   3.2838   3.3292
     3.3725   3.4187   3.5084   3.5474   3.5899   3.7283   3.7845   3.9160
     7.7865   8.5043   8.5557   9.4843   9.9742  10.3394  10.5449  10.8112
    11.1082  11.4225  11.6263  12.0537  12.1472  12.2646  12.3525  12.6539
    12.7603  12.9611  13.0125  13.0626  13.1438  13.1815  13.2570  13.4352
    13.4686  13.5499  13.6125  13.7679  13.9121

     occupation numbers 
     1.0000   1.0000   1.0000   1.0000   1.0000   1.0000   1.0000   1.0000
     1.0000   1.0000   1.0000   1.0000   1.0000   1.0000   1.0000   1.0000
     1.0000   1.0000   1.0000   1.0000   1.0000   1.0000   1.0000   1.0000
     1.0000   1.0000   1.0000   1.0000   1.0000   1.0000   1.0000   1.0000
     1.0000   1.0000   1.0000   1.0000   1.0000   1.0000   1.0000   1.0000
     1.0000   1.0000   1.0000   1.0000   1.0000   1.0000   1.0000   1.0000
     1.0000   1.0000   1.0000   1.0000   1.0000   1.0000   1.0000   1.0000
     1.0000   1.0000   1.0000   1.0000   1.0000   1.0000   1.0000   1.0000
     1.0000   1.0000   1.0000   1.0000   1.0000   1.0000   1.0000   1.0000
     1.0000   1.0000   1.0000   1.0000   1.0000   1.0000   1.0000   1.0000
     1.0000   1.0000   1.0000   1.0000   1.0000   1.0000   1.0000   1.0000
     1.0000   1.0000   1.0000   1.0000   1.0000   1.0000   1.0000   1.0000
     1.0000   1.0000   1.0000   1.0000   1.0000   1.0000   1.0000   1.0000
     1.0000   1.0000   1.0000   1.0000   1.0000   1.0000   1.0000   1.0000
     1.0000   1.0000   1.0000   1.0000   1.0000   1.0000   1.0000   1.0000
     1.0000   1.0000   1.0000   1.0000   1.0000   1.0000   1.0000   1.0000
     1.0000   0.0000   0.0000   0.0000   0.0000   0.0000   0.0000   0.0000
     0.0000   0.0000   0.0000   0.0000   0.0000   0.0000   0.0000   0.0000
     0.0000   0.0000   0.0000   0.0000   0.0000   0.0000   0.0000   0.0000
     0.0000   0.0000   0.0000   0.0000   0.0000

          k = 0.3333 0.1920-0.1111 ( 49577 PWs)   bands (ev):

   -77.4915 -67.9837 -67.9496 -67.7737 -67.6275 -67.4737 -43.9133 -43.5665
   -43.4791 -34.7643 -34.7465 -34.7371 -34.7227 -34.7179 -34.6969 -34.5518
   -34.5414 -34.5216 -34.4001 -34.3913 -34.3843 -34.2510 -34.2351 -34.2287
   -23.5851 -23.5657 -15.0604 -15.0322 -14.5126 -14.5005 -14.0809 -14.0688
   -13.4701 -13.3996 -13.3314 -13.2738 -13.2142 -13.1987 -13.1813 -13.1071
   -12.9920 -12.9006 -12.8304 -12.8013 -12.7162 -12.6733 -12.4460 -12.3740
   -11.7131 -11.5232  -7.1282  -7.1036  -7.0552  -7.0451  -7.0420  -7.0378
    -3.9231  -3.9137  -2.8790  -2.8173  -1.9961  -1.8376  -1.5982  -1.5328
    -1.1191  -1.1000  -1.0010  -0.9430  -0.6442  -0.5054  -0.4812  -0.3708
    -0.3030  -0.2059  -0.0451   0.1060   0.2294   0.2739   0.3963   0.4171
     0.6424   0.7159   0.9221   1.0597   1.0892   1.1403   1.2911   1.3260
     1.3537   1.3681   1.5261   1.6276   1.7994   1.9704   2.0589   2.0811
     2.1565   2.2607   2.3128   2.3405   2.4403   2.4831   2.5544   2.6418
     2.6842   2.7165   2.7862   2.8263   2.8570   2.9179   2.9878   3.0213
     3.0397   3.0856   3.1558   3.1653   3.2184   3.2643   3.2866   3.3279
     3.3728   3.4243   3.4613   3.5469   3.6000   3.7263   3.7881   3.9135
     7.7870   8.5061   8.5563   9.5113   9.9121  10.1456  10.7208  10.8616
    11.2271  11.4998  11.6434  12.0254  12.1065  12.2647  12.3472  12.6494
    12.7609  12.8307  12.9509  13.0031  13.0729  13.1907  13.2722  13.3862
    13.5488  13.6015  13.6780  13.8355  13.9165

     occupation numbers 
     1.0000   1.0000   1.0000   1.0000   1.0000   1.0000   1.0000   1.0000
     1.0000   1.0000   1.0000   1.0000   1.0000   1.0000   1.0000   1.0000
     1.0000   1.0000   1.0000   1.0000   1.0000   1.0000   1.0000   1.0000
     1.0000   1.0000   1.0000   1.0000   1.0000   1.0000   1.0000   1.0000
     1.0000   1.0000   1.0000   1.0000   1.0000   1.0000   1.0000   1.0000
     1.0000   1.0000   1.0000   1.0000   1.0000   1.0000   1.0000   1.0000
     1.0000   1.0000   1.0000   1.0000   1.0000   1.0000   1.0000   1.0000
     1.0000   1.0000   1.0000   1.0000   1.0000   1.0000   1.0000   1.0000
     1.0000   1.0000   1.0000   1.0000   1.0000   1.0000   1.0000   1.0000
     1.0000   1.0000   1.0000   1.0000   1.0000   1.0000   1.0000   1.0000
     1.0000   1.0000   1.0000   1.0000   1.0000   1.0000   1.0000   1.0000
     1.0000   1.0000   1.0000   1.0000   1.0000   1.0000   1.0000   1.0000
     1.0000   1.0000   1.0000   1.0000   1.0000   1.0000   1.0000   1.0000
     1.0000   1.0000   1.0000   1.0000   1.0000   1.0000   1.0000   1.0000
     1.0000   1.0000   1.0000   1.0000   1.0000   1.0000   1.0000   1.0000
     1.0000   1.0000   1.0000   1.0000   1.0000   1.0000   1.0000   1.0000
     1.0000   0.0000   0.0000   0.0000   0.0000   0.0000   0.0000   0.0000
     0.0000   0.0000   0.0000   0.0000   0.0000   0.0000   0.0000   0.0000
     0.0000   0.0000   0.0000   0.0000   0.0000   0.0000   0.0000   0.0000
     0.0000   0.0000   0.0000   0.0000   0.0000

          k =-0.5000 0.0000-0.0917 ( 49606 PWs)   bands (ev):

   -77.4915 -67.9837 -67.9496 -67.7737 -67.6275 -67.4737 -43.9133 -43.5665
   -43.4791 -34.7640 -34.7471 -34.7366 -34.7230 -34.7177 -34.6970 -34.5518
   -34.5414 -34.5216 -34.4001 -34.3913 -34.3843 -34.2511 -34.2351 -34.2286
   -23.5850 -23.5656 -14.9171 -14.8878 -14.6594 -14.6330 -14.1136 -14.0907
   -13.4220 -13.3407 -13.2871 -13.2809 -13.2195 -13.2099 -13.1735 -13.1373
   -13.0051 -12.9233 -12.8587 -12.8450 -12.7466 -12.6662 -12.4438 -12.3702
   -11.6940 -11.5446  -7.1295  -7.1046  -7.0550  -7.0436  -7.0416  -7.0373
    -3.5854  -3.5310  -3.0827  -3.0250  -2.0010  -1.9289  -1.5306  -1.5143
    -1.1884  -1.1531  -1.0304  -0.9714  -0.5813  -0.4910  -0.4565  -0.3793
    -0.2618  -0.2582   0.1162   0.1281   0.1901   0.2563   0.4116   0.4251
     0.6715   0.7535   0.7950   0.8093   1.1522   1.1986   1.2027   1.2415
     1.3912   1.4237   1.5303   1.5392   1.8125   1.9052   2.1041   2.1145
     2.1316   2.3012   2.3385   2.3741   2.4710   2.5016   2.5473   2.5621
     2.6588   2.7248   2.7753   2.7783   2.8439   2.8492   2.9836   3.0271
     3.0801   3.0980   3.1549   3.1608   3.1966   3.2012   3.2463   3.3179
     3.3868   3.4298   3.5093   3.5321   3.5807   3.6131   3.8164   3.9078
     7.7850   8.4891   8.5539   9.4433  10.0465  10.6735  10.7068  11.1930
    11.2988  11.4802  11.5079  12.0095  12.1084  12.2706  12.3937  12.6933
    12.7239  12.7398  12.8207  13.0555  13.0861  13.3131  13.3236  13.4032
    13.4539  13.5649  13.6271  13.7532  13.8677

     occupation numbers 
     1.0000   1.0000   1.0000   1.0000   1.0000   1.0000   1.0000   1.0000
     1.0000   1.0000   1.0000   1.0000   1.0000   1.0000   1.0000   1.0000
     1.0000   1.0000   1.0000   1.0000   1.0000   1.0000   1.0000   1.0000
     1.0000   1.0000   1.0000   1.0000   1.0000   1.0000   1.0000   1.0000
     1.0000   1.0000   1.0000   1.0000   1.0000   1.0000   1.0000   1.0000
     1.0000   1.0000   1.0000   1.0000   1.0000   1.0000   1.0000   1.0000
     1.0000   1.0000   1.0000   1.0000   1.0000   1.0000   1.0000   1.0000
     1.0000   1.0000   1.0000   1.0000   1.0000   1.0000   1.0000   1.0000
     1.0000   1.0000   1.0000   1.0000   1.0000   1.0000   1.0000   1.0000
     1.0000   1.0000   1.0000   1.0000   1.0000   1.0000   1.0000   1.0000
     1.0000   1.0000   1.0000   1.0000   1.0000   1.0000   1.0000   1.0000
     1.0000   1.0000   1.0000   1.0000   1.0000   1.0000   1.0000   1.0000
     1.0000   1.0000   1.0000   1.0000   1.0000   1.0000   1.0000   1.0000
     1.0000   1.0000   1.0000   1.0000   1.0000   1.0000   1.0000   1.0000
     1.0000   1.0000   1.0000   1.0000   1.0000   1.0000   1.0000   1.0000
     1.0000   1.0000   1.0000   1.0000   1.0000   1.0000   1.0000   1.0000
     1.0000   0.0000   0.0000   0.0000   0.0000   0.0000   0.0000   0.0000
     0.0000   0.0000   0.0000   0.0000   0.0000   0.0000   0.0000   0.0000
     0.0000   0.0000   0.0000   0.0000   0.0000   0.0000   0.0000   0.0000
     0.0000   0.0000   0.0000   0.0000   0.0000
