
     Program PWSCF v.7.3.1 starts on 24Dec2025 at 18:16:31 

     This program is part of the open-source Quantum ESPRESSO suite
     for quantum simulation of materials; please cite
         "P. Giannozzi et al., J. Phys.:Condens. Matter 21 395502 (2009);
         "P. Giannozzi et al., J. Phys.:Condens. Matter 29 465901 (2017);
         "P. Giannozzi et al., J. Chem. Phys. 152 154105 (2020);
          URL http://www.quantum-espresso.org", 
     in publications or presentations arising from this work. More details at
     http://www.quantum-espresso.org/quote

     Parallel version (MPI), running on    14 processors

     MPI processes distributed on     1 nodes
     29126 MiB available memory on the printing compute node when the environment starts

     Reading input from relax.in

     Current dimensions of program PWSCF are:
     Max number of different atomic species (ntypx) = 10
     Max number of k-points (npk) = 120000
     Max angular momentum in pseudopotentials (lmaxx) =  4
     file Al.pbe-n-kjpaw_psl.1.0.0.UPF: wavefunction(s)  3S 3P renormalized
     file Fe.pbe-spn-kjpaw_psl.1.0.0.UPF: wavefunction(s)  3P 3D renormalized
     file H.pbe-kjpaw_psl.1.0.0.UPF: wavefunction(s)  1S renormalized
     file K.pbe-spn-kjpaw_psl.1.0.0.UPF: wavefunction(s)  3S renormalized
     file Mg.pbe-spnl-kjpaw_psl.1.0.0.UPF: wavefunction(s)  2P renormalized
     file O.pbe-n-kjpaw_psl.1.0.0.UPF: wavefunction(s)  2S 2P renormalized
     file Si.pbe-n-kjpaw_psl.1.0.0.UPF: wavefunction(s)  3S 3P renormalized

     K-points division:     npool     =       2
     R & G space division:  proc/nbgrp/npool/nimage =       7
     Subspace diagonalization in iterative solution of the eigenvalue problem:
     one sub-group per band group will be used
     custom distributed-memory algorithm (size of sub-group:  2*  2 procs)


     Parallelization info
     --------------------
     sticks:   dense  smooth     PW     G-vecs:    dense   smooth      PW
     Min        1442     720    193               160246    56657    7865
     Max        1443     721    194               160249    56663    7871
     Sum       10099    5041   1353              1121731   396609   55075

     Using Slab Decomposition



     bravais-lattice index     =          -12
     lattice parameter (alat)  =      10.0767  a.u.
     unit-cell volume          =    3438.7175 (a.u.)^3
     number of atoms/cell      =           44
     number of atomic types    =            7
     number of electrons       =       262.00
     number of Kohn-Sham states=          157
     kinetic-energy cutoff     =      90.0000  Ry
     charge density cutoff     =     720.0000  Ry
     scf convergence threshold =      1.0E-08
     mixing beta               =       0.7000
     number of iterations used =            8  plain     mixing
     energy convergence thresh.=      1.0E-05
     force convergence thresh. =      1.0E-04
     Exchange-correlation= SLA  PW   PBX  PBC
                           (   1   4   3   4   0   0   0)
     nstep                     =          100


     celldm(1)=  10.076666  celldm(2)=   1.735909  celldm(3)=   1.968321
     celldm(4)=   0.000000  celldm(5)=  -0.180309  celldm(6)=   0.000000

     crystal axes: (cart. coord. in units of alat)
               a(1) = (   1.000000   0.000000   0.000000 )  
               a(2) = (   0.000000   1.735909   0.000000 )  
               a(3) = (  -0.354905   0.000000   1.936060 )  

     reciprocal axes: (cart. coord. in units 2 pi/alat)
               b(1) = (  1.000000 -0.000000  0.183313 )  
               b(2) = (  0.000000  0.576067 -0.000000 )  
               b(3) = (  0.000000  0.000000  0.516513 )  


     PseudoPot. # 1 for Al read from file:
     ./../../../pseudos/Al.pbe-n-kjpaw_psl.1.0.0.UPF
     MD5 check sum: 502b6b27b9c6270cab5dd1084b96fa6d
     Pseudo is Projector augmented-wave + core cor, Zval =  3.0
     Generated using &quot;atomic&quot; code by A. Dal Corso  v.6.3
     Shape of augmentation charge: PSQ
     Using radial grid of 1135 points,  6 beta functions with: 
                l(1) =   0
                l(2) =   0
                l(3) =   1
                l(4) =   1
                l(5) =   2
                l(6) =   2
     Q(r) pseudized with 0 coefficients 


     PseudoPot. # 2 for Fe read from file:
     ./../../../pseudos/Fe.pbe-spn-kjpaw_psl.1.0.0.UPF
     MD5 check sum: fc81f059e5c5069939230b1155715ae8
     Pseudo is Projector augmented-wave + core cor, Zval = 16.0
     Generated using &quot;atomic&quot; code by A. Dal Corso  v.6.3
     Shape of augmentation charge: PSQ
     Using radial grid of 1191 points,  6 beta functions with: 
                l(1) =   0
                l(2) =   0
                l(3) =   1
                l(4) =   1
                l(5) =   2
                l(6) =   2
     Q(r) pseudized with 0 coefficients 


     PseudoPot. # 3 for H  read from file:
     ./../../../pseudos/H.pbe-kjpaw_psl.1.0.0.UPF
     MD5 check sum: d81a744832360e4a8af0b0b5b123bc2a
     Pseudo is Projector augmented-wave, Zval =  1.0
     Generated using &quot;atomic&quot; code by A. Dal Corso  v.6.3MaX
     Shape of augmentation charge: PSQ
     Using radial grid of  929 points,  2 beta functions with: 
                l(1) =   0
                l(2) =   0
     Q(r) pseudized with 0 coefficients 


     PseudoPot. # 4 for K  read from file:
     ./../../../pseudos/K.pbe-spn-kjpaw_psl.1.0.0.UPF
     MD5 check sum: 34cc42130a09071ebe376fd42eb21491
     Pseudo is Projector augmented-wave + core cor, Zval =  9.0
     Generated using &quot;atomic&quot; code by A. Dal Corso  v.6.2.2
     Shape of augmentation charge: PSQ
     Using radial grid of 1165 points,  6 beta functions with: 
                l(1) =   0
                l(2) =   0
                l(3) =   1
                l(4) =   1
                l(5) =   2
                l(6) =   2
     Q(r) pseudized with 0 coefficients 


     PseudoPot. # 5 for Mg read from file:
     ./../../../pseudos/Mg.pbe-spnl-kjpaw_psl.1.0.0.UPF
     MD5 check sum: fda14e0d92a6a9a5ebed782e5a4b3067
     Pseudo is Projector augmented-wave + core cor, Zval = 10.0
     Generated using &quot;atomic&quot; code by A. Dal Corso  v.6.3
     Shape of augmentation charge: PSQ
     Using radial grid of 1129 points,  4 beta functions with: 
                l(1) =   0
                l(2) =   0
                l(3) =   1
                l(4) =   1
     Q(r) pseudized with 0 coefficients 


     PseudoPot. # 6 for O  read from file:
     ./../../../pseudos/O.pbe-n-kjpaw_psl.1.0.0.UPF
     MD5 check sum: e99d9cef9b487d1ca56f5b95ecd0fd7a
     Pseudo is Projector augmented-wave + core cor, Zval =  6.0
     Generated using &quot;atomic&quot; code by A. Dal Corso  v.6.3
     Shape of augmentation charge: PSQ
     Using radial grid of 1095 points,  4 beta functions with: 
                l(1) =   0
                l(2) =   0
                l(3) =   1
                l(4) =   1
     Q(r) pseudized with 0 coefficients 


     PseudoPot. # 7 for Si read from file:
     ./../../../pseudos/Si.pbe-n-kjpaw_psl.1.0.0.UPF
     MD5 check sum: c39c59da582df4a0d9f10159256ea34e
     Pseudo is Projector augmented-wave + core cor, Zval =  4.0
     Generated using &quot;atomic&quot; code by A. Dal Corso  v.6.3
     Shape of augmentation charge: PSQ
     Using radial grid of 1141 points,  6 beta functions with: 
                l(1) =   0
                l(2) =   0
                l(3) =   1
                l(4) =   1
                l(5) =   2
                l(6) =   2
     Q(r) pseudized with 0 coefficients 


     atomic species   valence    mass     pseudopotential
     Al                3.00    26.98154     Al( 1.00)
     Fe               16.00    55.84500     Fe( 1.00)
     H                 1.00     1.00794     H ( 1.00)
     K                 9.00    39.09830     K ( 1.00)
     Mg               10.00    24.30500     Mg( 1.00)
     O                 6.00    15.99940     O ( 1.00)
     Si                4.00    28.08550     Si( 1.00)

     Starting magnetic structure 
     atomic species   magnetization
     Al              0.000
     Fe              0.300
     H               0.000
     K               0.000
     Mg              0.000
     O               0.000
     Si              0.000

      2 Sym. Ops. (no inversion) found


                                    s                        frac. trans.

      isym =  1     identity                                     

 cryst.   s( 1) = (     1          0          0      )
                  (     0          1          0      )
                  (     0          0          1      )

 cart.    s( 1) = (  1.0000000  0.0000000  0.0000000 )
                  (  0.0000000  1.0000000  0.0000000 )
                  (  0.0000000  0.0000000  1.0000000 )


      isym =  2     180 deg rotation - cart. axis [0,1,0]        

 cryst.   s( 2) = (    -1          0          0      )
                  (     0          1          0      )
                  (     0          0         -1      )

 cart.    s( 2) = ( -1.0000000  0.0000000  0.0000000 )
                  (  0.0000000  1.0000000  0.0000000 )
                  (  0.0000000  0.0000000 -1.0000000 )


     point group C_2  (2)   
     there are  2 classes
     the character table:

       E     C2   
A      1.00  1.00
B      1.00 -1.00

     the symmetry operations in each class and the name of the first element:

     E        1
          identity                                               
     C2       2
          180 deg rotation - cart. axis [0,1,0]                  

   Cartesian axes

     site n.     atom                  positions (alat units)
         1        K      tau(   1) = (   0.0000000   0.8398172   0.0000000  )
         2        K      tau(   2) = (   0.5000000   0.0224522   0.0000000  )
         3        Mg     tau(   3) = (  -0.1774526   0.0075634   0.9680302  )
         4        Mg     tau(   4) = (  -0.1774526   1.1551937   0.9680302  )
         5        Mg     tau(   5) = (   0.3225474   0.8555758   0.9680302  )
         6        Mg     tau(   6) = (   0.3225474   1.4484807   0.9680302  )
         7        Mg     tau(   7) = (   0.3225474   0.2995519   0.9680302  )
         8        Si     tau(   8) = (   0.0001003   0.2859858   0.4420239  )
         9        Si     tau(   9) = (   0.6449946   0.2859858   1.4940365  )
        10        Si     tau(  10) = (   0.6639834   1.4476753   1.4818509  )
        11        Si     tau(  11) = (  -0.0188895   1.4476753   0.4542094  )
        12        Si     tau(  12) = (   0.4804968   1.1575355   0.4500508  )
        13        Si     tau(  13) = (   0.1645980   1.1575355   1.4860096  )
        14        Al     tau(  14) = (   0.1441311   0.5750425   1.4900405  )
        15        Al     tau(  15) = (   0.5009627   0.5750425   0.4460199  )
        16        O      tau(  16) = (  -0.0107242   0.2843922   0.7486223  )
        17        O      tau(  17) = (   0.6558181   0.2843922   1.1874382  )
        18        O      tau(  18) = (   0.6595762   1.4460123   1.1776185  )
        19        O      tau(  19) = (  -0.0144823   1.4460123   0.7584420  )
        20        O      tau(  20) = (   0.4858085   1.1617572   0.7556173  )
        21        O      tau(  21) = (   0.1592864   1.1617572   1.1804431  )
        22        O      tau(  22) = (   0.1482197   0.5775630   1.1647630  )
        23        O      tau(  23) = (   0.4968741   0.5775630   0.7712974  )
        24        O      tau(  24) = (   0.2757690   0.3584409   0.3314709  )
        25        O      tau(  25) = (   0.3693258   0.3584409   1.6045895  )
        26        O      tau(  26) = (   0.9374077   1.7302865   0.3385318  )
        27        O      tau(  27) = (  -0.2923138   1.7302865   1.5975286  )
        28        O      tau(  28) = (   0.3945946   1.3413387   1.5945587  )
        29        O      tau(  29) = (   0.2505003   1.3413387   0.3415017  )
        30        O      tau(  30) = (   0.7496427   1.2748187   0.3399451  )
        31        O      tau(  31) = (  -0.1045478   1.2748187   1.5961153  )
        32        O      tau(  32) = (   0.4399873   0.8821334   0.3278041  )
        33        O      tau(  33) = (   0.2051066   0.8821334   1.6082564  )
        34        O      tau(  34) = (  -0.1464197   0.4734588   1.6154371  )
        35        O      tau(  35) = (   0.7915146   0.4734588   0.3206232  )
        36        O      tau(  36) = (  -0.0105441   0.8750335   0.7696130  )
        37        O      tau(  37) = (   0.6556390   0.8750335   1.1664473  )
        38        O      tau(  38) = (   0.4902382   1.7353120   0.7762286  )
        39        O      tau(  39) = (   0.1548563   1.7353120   1.1598338  )
        40        H      tau(  40) = (  -0.0084879   0.8628926   0.5889264  )
        41        H      tau(  41) = (   0.6535818   0.8628926   1.3471340  )
        42        H      tau(  42) = (   0.4873991   0.0216954   0.5963453  )
        43        H      tau(  43) = (   0.1576947   0.0216954   1.3397151  )
        44        Fe     tau(  44) = (  -0.1774526   0.5785924   0.9680302  )

     --------------------------------------------
     DFT-D3 Dispersion Correction (3-body terms):
     --------------------------------------------
       Reference C6 values for interpolation: 

         atom   Coordination number   C6
         H          0.912             6.05
         H          0.000            15.18
         O          0.000            31.01
         O          0.993            25.63
         O          1.989            20.74
         Mg         0.000          1366.75
         Mg         0.963           902.54
         Mg         1.950           351.12
         Al         0.000          1081.08
         Al         0.965           875.51
         Al         1.931           513.50
         Al         2.915           307.19
         Si         0.000           635.71
         Si         0.951           540.53
         Si         1.944           466.25
         Si         2.941           443.01
         Si         3.868           299.55
         K          0.000          9967.00
         K          0.977           676.04
         Fe         0.000           982.67
         Fe         1.648           409.99
         Fe         9.138           219.01

       Values used:

         atom   Coordination number  R0_AB[au]  C6      C8
         K         11.442            4.007    676.04 129074.98
         K         11.721            4.007    676.04 129074.98
         Mg        11.326            3.292    351.12  31436.69
         Mg        11.253            3.292    351.12  31436.69
         Mg        11.239            3.292    351.12  31436.69
         Mg        11.522            3.292    351.12  31436.69
         Mg        11.395            3.292    351.12  31436.69
         Si         6.569            3.583    299.55  21425.58
         Si         6.569            3.583    299.55  21425.58
         Si         6.125            3.583    299.55  21425.58
         Si         6.125            3.583    299.55  21425.58
         Si         6.157            3.583    299.55  21425.58
         Si         6.157            3.583    299.55  21425.58
         Al         7.329            3.789    307.19  29441.29
         Al         7.329            3.789    307.19  29441.29
         O          3.610            2.345     20.74    418.58
         O          3.610            2.345     20.74    418.58
         O          3.907            2.345     20.74    418.58
         O          3.907            2.345     20.74    418.58
         O          3.883            2.345     20.74    418.58
         O          3.883            2.345     20.74    418.58
         O          3.826            2.345     20.74    418.58
         O          3.826            2.345     20.74    418.58
         O          3.180            2.345     20.74    418.58
         O          3.180            2.345     20.74    418.58
         O          3.014            2.345     20.74    418.58
         O          3.014            2.345     20.74    418.58
         O          2.760            2.345     20.74    418.58
         O          2.760            2.345     20.74    418.58
         O          2.736            2.345     20.74    418.58
         O          2.736            2.345     20.74    418.58
         O          3.049            2.345     20.74    418.58
         O          3.049            2.345     20.74    418.58
         O          3.247            2.345     20.74    418.58
         O          3.247            2.345     20.74    418.58
         O          3.746            2.345     20.74    418.58
         O          3.746            2.345     20.74    418.58
         O          3.975            2.345     20.74    418.58
         O          3.975            2.345     20.74    418.58
         H          1.200            2.062      6.08     73.54
         H          1.200            2.062      6.08     73.54
         H          1.214            2.062      6.08     73.50
         H          1.214            2.062      6.08     73.50
         Fe         7.855            3.252    219.01  20487.87

         Molecular C6 ( Ry / a.u.^6 ) =    165311.27


   Crystallographic axes

     site n.     atom                  positions (cryst. coord.)
         1        K      tau(   1) = (  0.0000000  0.4837910  0.0000000  )
         2        K      tau(   2) = (  0.5000000  0.0129340  0.0000000  )
         3        Mg     tau(   3) = ( -0.0000000  0.0043570  0.5000000  )
         4        Mg     tau(   4) = ( -0.0000000  0.6654690  0.5000000  )
         5        Mg     tau(   5) = (  0.5000000  0.4928690  0.5000000  )
         6        Mg     tau(   6) = (  0.5000000  0.8344220  0.5000000  )
         7        Mg     tau(   7) = (  0.5000000  0.1725620  0.5000000  )
         8        Si     tau(   8) = (  0.0811290  0.1647470  0.2283110  )
         9        Si     tau(   9) = (  0.9188710  0.1647470  0.7716890  )
        10        Si     tau(  10) = (  0.9356260  0.8339580  0.7653950  )
        11        Si     tau(  11) = (  0.0643730  0.8339580  0.2346050  )
        12        Si     tau(  12) = (  0.5629970  0.6668180  0.2324570  )
        13        Si     tau(  13) = (  0.4370030  0.6668180  0.7675430  )
        14        Al     tau(  14) = (  0.4172750  0.3312630  0.7696250  )
        15        Al     tau(  15) = (  0.5827240  0.3312630  0.2303750  )
        16        O      tau(  16) = (  0.1265080  0.1638290  0.3866730  )
        17        O      tau(  17) = (  0.8734910  0.1638290  0.6133270  )
        18        O      tau(  18) = (  0.8754490  0.8330000  0.6082550  )
        19        O      tau(  19) = (  0.1245500  0.8330000  0.3917450  )
        20        O      tau(  20) = (  0.6243230  0.6692500  0.3902860  )
        21        O      tau(  21) = (  0.3756770  0.6692500  0.6097140  )
        22        O      tau(  22) = (  0.3617360  0.3327150  0.6016150  )
        23        O      tau(  23) = (  0.6382630  0.3327150  0.3983850  )
        24        O      tau(  24) = (  0.3365320  0.2064860  0.1712090  )
        25        O      tau(  25) = (  0.6634680  0.2064860  0.8287910  )
        26        O      tau(  26) = (  0.9994650  0.9967610  0.1748560  )
        27        O      tau(  27) = (  0.0005340  0.9967610  0.8251440  )
        28        O      tau(  28) = (  0.6868980  0.7727010  0.8236100  )
        29        O      tau(  29) = (  0.3131020  0.7727010  0.1763900  )
        30        O      tau(  30) = (  0.8119590  0.7343810  0.1755860  )
        31        O      tau(  31) = (  0.1880410  0.7343810  0.8244140  )
        32        O      tau(  32) = (  0.5000780  0.5081680  0.1693150  )
        33        O      tau(  33) = (  0.4999210  0.5081680  0.8306850  )
        34        O      tau(  34) = (  0.1497110  0.2727440  0.8343940  )
        35        O      tau(  35) = (  0.8502890  0.2727440  0.1656060  )
        36        O      tau(  36) = (  0.1305360  0.5040780  0.3975150  )
        37        O      tau(  37) = (  0.8694640  0.5040780  0.6024850  )
        38        O      tau(  38) = (  0.6325310  0.9996560  0.4009320  )
        39        O      tau(  39) = (  0.3674690  0.9996560  0.5990690  )
        40        H      tau(  40) = (  0.0994700  0.4970840  0.3041880  )
        41        H      tau(  41) = (  0.9005290  0.4970840  0.6958120  )
        42        H      tau(  42) = (  0.5967170  0.0124980  0.3080200  )
        43        H      tau(  43) = (  0.4032820  0.0124980  0.6919800  )
        44        Fe     tau(  44) = ( -0.0000000  0.3333080  0.5000000  )

     number of k points=    20  Gaussian smearing, width (Ry)=  0.0005
                       cart. coord. in units 2pi/alat
        k(    1) = (   0.0000000   0.0000000   0.0000000), wk =   0.0185185
        k(    2) = (   0.0000000   0.0000000   0.1721709), wk =   0.0370370
        k(    3) = (   0.0000000   0.1920223   0.0000000), wk =   0.0370370
        k(    4) = (   0.0000000   0.1920223   0.1721709), wk =   0.0740741
        k(    5) = (   0.1666667   0.0000000   0.0305522), wk =   0.0370370
        k(    6) = (   0.1666667   0.0000000   0.2027231), wk =   0.0370370
        k(    7) = (   0.1666667   0.0000000  -0.1416188), wk =   0.0370370
        k(    8) = (   0.1666667   0.1920223   0.0305522), wk =   0.0740741
        k(    9) = (   0.1666667   0.1920223   0.2027231), wk =   0.0740741
        k(   10) = (   0.1666667   0.1920223  -0.1416188), wk =   0.0740741
        k(   11) = (   0.3333333   0.0000000   0.0611044), wk =   0.0370370
        k(   12) = (   0.3333333   0.0000000   0.2332753), wk =   0.0370370
        k(   13) = (   0.3333333   0.0000000  -0.1110666), wk =   0.0370370
        k(   14) = (   0.3333333   0.1920223   0.0611044), wk =   0.0740741
        k(   15) = (   0.3333333   0.1920223   0.2332753), wk =   0.0740741
        k(   16) = (   0.3333333   0.1920223  -0.1110666), wk =   0.0740741
        k(   17) = (  -0.5000000   0.0000000  -0.0916565), wk =   0.0185185
        k(   18) = (  -0.5000000   0.0000000   0.0805144), wk =   0.0370370
        k(   19) = (  -0.5000000   0.1920223  -0.0916565), wk =   0.0370370
        k(   20) = (  -0.5000000   0.1920223   0.0805144), wk =   0.0740741

                       cryst. coord.
        k(    1) = (   0.0000000   0.0000000   0.0000000), wk =   0.0185185
        k(    2) = (   0.0000000   0.0000000   0.3333333), wk =   0.0370370
        k(    3) = (   0.0000000   0.3333333   0.0000000), wk =   0.0370370
        k(    4) = (   0.0000000   0.3333333   0.3333333), wk =   0.0740741
        k(    5) = (   0.1666667   0.0000000  -0.0000000), wk =   0.0370370
        k(    6) = (   0.1666667   0.0000000   0.3333333), wk =   0.0370370
        k(    7) = (   0.1666667   0.0000000  -0.3333333), wk =   0.0370370
        k(    8) = (   0.1666667   0.3333333  -0.0000000), wk =   0.0740741
        k(    9) = (   0.1666667   0.3333333   0.3333333), wk =   0.0740741
        k(   10) = (   0.1666667   0.3333333  -0.3333333), wk =   0.0740741
        k(   11) = (   0.3333333   0.0000000  -0.0000000), wk =   0.0370370
        k(   12) = (   0.3333333   0.0000000   0.3333333), wk =   0.0370370
        k(   13) = (   0.3333333   0.0000000  -0.3333333), wk =   0.0370370
        k(   14) = (   0.3333333   0.3333333  -0.0000000), wk =   0.0740741
        k(   15) = (   0.3333333   0.3333333   0.3333333), wk =   0.0740741
        k(   16) = (   0.3333333   0.3333333  -0.3333333), wk =   0.0740741
        k(   17) = (  -0.5000000   0.0000000   0.0000000), wk =   0.0185185
        k(   18) = (  -0.5000000   0.0000000   0.3333333), wk =   0.0370370
        k(   19) = (  -0.5000000   0.3333333   0.0000000), wk =   0.0370370
        k(   20) = (  -0.5000000   0.3333333   0.3333333), wk =   0.0740741

     Dense  grid:  1121731 G-vectors     FFT dimensions: (  90, 150, 180)

     Smooth grid:   396609 G-vectors     FFT dimensions: (  64, 108, 120)

     Dynamical RAM for                 wfc:      16.97 MB

     Dynamical RAM for     wfc (w. buffer):     356.28 MB

     Dynamical RAM for           str. fact:      17.12 MB

     Dynamical RAM for           local pot:       0.00 MB

     Dynamical RAM for          nlocal pot:      47.33 MB

     Dynamical RAM for                qrad:      15.07 MB

     Dynamical RAM for          rho,v,vnew:      30.74 MB

     Dynamical RAM for               rhoin:      10.25 MB

     Dynamical RAM for            rho*nmix:      78.25 MB

     Dynamical RAM for           G-vectors:       9.60 MB

     Dynamical RAM for          h,s,v(r/c):       1.13 MB

     Dynamical RAM for          <psi|beta>:       1.05 MB

     Dynamical RAM for                 psi:      33.93 MB

     Dynamical RAM for                hpsi:      33.93 MB

     Dynamical RAM for                spsi:      33.93 MB

     Dynamical RAM for      wfcinit/wfcrot:      34.50 MB

     Dynamical RAM for           addusdens:     260.41 MB

     Dynamical RAM for          addusforce:     315.62 MB

     Estimated static dynamical RAM per process >     522.01 MB

     Estimated max dynamical RAM per process >     915.88 MB

     Estimated total dynamical RAM >      11.99 GB

     Atomic positions and unit cell read from directory:
     ./temp/phl-fe1-fe2.save/
     Atomic positions from file used, from input discarded


     Check: negative core charge=   -0.000001
     Generating pointlists ...
     new r_m :   0.1353 (alat units)  1.3632 (a.u.) for type    1
     new r_m :   0.1562 (alat units)  1.5741 (a.u.) for type    2
     new r_m :   0.0748 (alat units)  0.7533 (a.u.) for type    3
     new r_m :   0.2157 (alat units)  2.1740 (a.u.) for type    4
     new r_m :   0.1572 (alat units)  1.5840 (a.u.) for type    5
     new r_m :   0.0748 (alat units)  0.7533 (a.u.) for type    6
     new r_m :   0.1254 (alat units)  1.2639 (a.u.) for type    7

     The initial density is read from file :
     ./temp/phl-fe1-fe2.save/charge-density


     negative rho (up, down):  0.000E+00 2.975E-04
     Cannot read wfcs: file not found
     Starting wfcs are  183 randomized atomic wfcs
     Checking if some PAW data can be deallocated... 
       PAW data deallocated on   12 nodes for type:  1
       PAW data deallocated on   13 nodes for type:  2
       PAW data deallocated on   12 nodes for type:  3
       PAW data deallocated on   13 nodes for type:  4
       PAW data deallocated on   12 nodes for type:  5
       PAW data deallocated on    5 nodes for type:  6
       PAW data deallocated on   11 nodes for type:  7

     total cpu time spent up to now is      222.6 secs

     Self-consistent Calculation

     iteration #  1     ecut=    90.00 Ry     beta= 0.70
     Davidson diagonalization with overlap

---- Real-time Memory Report at c_bands before calling an iterative solver
           585 MiB given to the printing process from OS
             0 MiB allocation reported by mallinfo(arena+hblkhd)
         21163 MiB available memory on the node where the printing process lives
------------------
     c_bands:  2 eigenvalues not converged
     c_bands:  2 eigenvalues not converged
     c_bands:  1 eigenvalues not converged
     c_bands:  1 eigenvalues not converged
     c_bands:  1 eigenvalues not converged
     c_bands:  3 eigenvalues not converged
     c_bands:  1 eigenvalues not converged
     c_bands:  4 eigenvalues not converged
     c_bands:  1 eigenvalues not converged
     c_bands:  1 eigenvalues not converged
     c_bands:  3 eigenvalues not converged
     c_bands:  1 eigenvalues not converged
     c_bands:  1 eigenvalues not converged
     c_bands:  4 eigenvalues not converged
     c_bands:  2 eigenvalues not converged
     c_bands:  2 eigenvalues not converged
     c_bands:  1 eigenvalues not converged
     ethr =  1.00E-05,  avg # of iterations = 39.9

     Threshold (ethr) on eigenvalues was too large:
     Diagonalizing with lowered threshold

     Davidson diagonalization with overlap

---- Real-time Memory Report at c_bands before calling an iterative solver
           831 MiB given to the printing process from OS
             0 MiB allocation reported by mallinfo(arena+hblkhd)
         18595 MiB available memory on the node where the printing process lives
------------------
     c_bands:  1 eigenvalues not converged
     c_bands:  1 eigenvalues not converged
     c_bands:  1 eigenvalues not converged
     c_bands:  1 eigenvalues not converged
     c_bands:  1 eigenvalues not converged
     c_bands:  1 eigenvalues not converged
     ethr =  9.07E-07,  avg # of iterations =  7.3

     negative rho (up, down):  0.000E+00 2.973E-04

     total cpu time spent up to now is     6448.4 secs

     total energy              =   -2631.31745539 Ry
     estimated scf accuracy    <       0.00237385 Ry

     total magnetization       =     4.00 Bohr mag/cell
     absolute magnetization    =     4.04 Bohr mag/cell

     iteration #  2     ecut=    90.00 Ry     beta= 0.70
     Davidson diagonalization with overlap

---- Real-time Memory Report at c_bands before calling an iterative solver
           868 MiB given to the printing process from OS
             0 MiB allocation reported by mallinfo(arena+hblkhd)
         18328 MiB available memory on the node where the printing process lives
------------------
     c_bands:  1 eigenvalues not converged
     c_bands:  1 eigenvalues not converged
     c_bands:  1 eigenvalues not converged
     ethr =  9.06E-07,  avg # of iterations =  6.2

     negative rho (up, down):  0.000E+00 2.969E-04

     total cpu time spent up to now is     7189.7 secs

     total energy              =   -2631.31797831 Ry
     estimated scf accuracy    <       0.00035251 Ry

     total magnetization       =     4.00 Bohr mag/cell
     absolute magnetization    =     4.04 Bohr mag/cell

     iteration #  3     ecut=    90.00 Ry     beta= 0.70
     Davidson diagonalization with overlap

---- Real-time Memory Report at c_bands before calling an iterative solver
           872 MiB given to the printing process from OS
             0 MiB allocation reported by mallinfo(arena+hblkhd)
         18122 MiB available memory on the node where the printing process lives
------------------
     ethr =  1.35E-07,  avg # of iterations =  6.9

     negative rho (up, down):  0.000E+00 2.967E-04

     total cpu time spent up to now is     8058.3 secs

     total energy              =   -2631.31816785 Ry
     estimated scf accuracy    <       0.00003420 Ry

     total magnetization       =     4.00 Bohr mag/cell
     absolute magnetization    =     4.04 Bohr mag/cell

     iteration #  4     ecut=    90.00 Ry     beta= 0.70
     Davidson diagonalization with overlap

---- Real-time Memory Report at c_bands before calling an iterative solver
           876 MiB given to the printing process from OS
             0 MiB allocation reported by mallinfo(arena+hblkhd)
         17920 MiB available memory on the node where the printing process lives
------------------
     ethr =  1.31E-08,  avg # of iterations =  7.6

     negative rho (up, down):  0.000E+00 2.967E-04

     total cpu time spent up to now is     9360.5 secs

     total energy              =   -2631.31820197 Ry
     estimated scf accuracy    <       0.00000670 Ry

     total magnetization       =     4.00 Bohr mag/cell
     absolute magnetization    =     4.04 Bohr mag/cell

     iteration #  5     ecut=    90.00 Ry     beta= 0.70
     Davidson diagonalization with overlap

---- Real-time Memory Report at c_bands before calling an iterative solver
           880 MiB given to the printing process from OS
             0 MiB allocation reported by mallinfo(arena+hblkhd)
         17925 MiB available memory on the node where the printing process lives
------------------
     ethr =  2.56E-09,  avg # of iterations =  5.9

     negative rho (up, down):  0.000E+00 2.965E-04

     total cpu time spent up to now is    10407.2 secs

     total energy              =   -2631.31820585 Ry
     estimated scf accuracy    <       0.00000028 Ry

     total magnetization       =     4.00 Bohr mag/cell
     absolute magnetization    =     4.04 Bohr mag/cell

     iteration #  6     ecut=    90.00 Ry     beta= 0.70
     Davidson diagonalization with overlap

---- Real-time Memory Report at c_bands before calling an iterative solver
           883 MiB given to the printing process from OS
             0 MiB allocation reported by mallinfo(arena+hblkhd)
         17803 MiB available memory on the node where the printing process lives
------------------
     c_bands:  1 eigenvalues not converged
     ethr =  1.06E-10,  avg # of iterations = 13.2

     negative rho (up, down):  0.000E+00 2.966E-04

     total cpu time spent up to now is    12832.0 secs

     total energy              =   -2631.31820668 Ry
     estimated scf accuracy    <       0.00000039 Ry

     total magnetization       =     4.00 Bohr mag/cell
     absolute magnetization    =     4.04 Bohr mag/cell

     iteration #  7     ecut=    90.00 Ry     beta= 0.70
     Davidson diagonalization with overlap

---- Real-time Memory Report at c_bands before calling an iterative solver
           887 MiB given to the printing process from OS
             0 MiB allocation reported by mallinfo(arena+hblkhd)
         17914 MiB available memory on the node where the printing process lives
------------------
     ethr =  1.06E-10,  avg # of iterations =  5.7

     negative rho (up, down):  0.000E+00 2.965E-04

     total cpu time spent up to now is    13469.6 secs

     total energy              =   -2631.31820675 Ry
     estimated scf accuracy    <       0.00000004 Ry

     total magnetization       =     4.00 Bohr mag/cell
     absolute magnetization    =     4.04 Bohr mag/cell

     iteration #  8     ecut=    90.00 Ry     beta= 0.70
     Davidson diagonalization with overlap

---- Real-time Memory Report at c_bands before calling an iterative solver
           891 MiB given to the printing process from OS
             0 MiB allocation reported by mallinfo(arena+hblkhd)
         17906 MiB available memory on the node where the printing process lives
------------------
     ethr =  1.61E-11,  avg # of iterations =  8.6

     negative rho (up, down):  0.000E+00 2.965E-04

     total cpu time spent up to now is    14788.7 secs

     total energy              =   -2631.31820679 Ry
     estimated scf accuracy    <       0.00000003 Ry

     total magnetization       =     4.00 Bohr mag/cell
     absolute magnetization    =     4.04 Bohr mag/cell

     iteration #  9     ecut=    90.00 Ry     beta= 0.70
     Davidson diagonalization with overlap

---- Real-time Memory Report at c_bands before calling an iterative solver
           894 MiB given to the printing process from OS
             0 MiB allocation reported by mallinfo(arena+hblkhd)
         17994 MiB available memory on the node where the printing process lives
------------------
     ethr =  1.11E-11,  avg # of iterations =  2.0

     negative rho (up, down):  0.000E+00 2.965E-04

     Magnetic moment per site  (integrated on atomic sphere of radius R)
     atom   1 (R=0.216)  charge=  7.5513  magn=  0.0000
     atom   2 (R=0.216)  charge=  7.5548  magn=  0.0001
     atom   3 (R=0.157)  charge=  8.1111  magn= -0.0002
     atom   4 (R=0.157)  charge=  8.1081  magn= -0.0000
     atom   5 (R=0.157)  charge=  8.1109  magn=  0.0007
     atom   6 (R=0.157)  charge=  8.1067  magn= -0.0000
     atom   7 (R=0.157)  charge=  8.1137  magn=  0.0006
     atom   8 (R=0.125)  charge=  0.5523  magn=  0.0008
     atom   9 (R=0.125)  charge=  0.5523  magn=  0.0008
     atom  10 (R=0.125)  charge=  0.5441  magn= -0.0000
     atom  11 (R=0.125)  charge=  0.5441  magn= -0.0000
     atom  12 (R=0.125)  charge=  0.5439  magn=  0.0000
     atom  13 (R=0.125)  charge=  0.5439  magn=  0.0000
     atom  14 (R=0.135)  charge=  0.3431  magn=  0.0014
     atom  15 (R=0.135)  charge=  0.3431  magn=  0.0014
     atom  16 (R=0.075)  charge=  1.9396  magn=  0.0156
     atom  17 (R=0.075)  charge=  1.9396  magn=  0.0156
     atom  18 (R=0.075)  charge=  1.9440  magn=  0.0004
     atom  19 (R=0.075)  charge=  1.9440  magn=  0.0004
     atom  20 (R=0.075)  charge=  1.9419  magn=  0.0004
     atom  21 (R=0.075)  charge=  1.9419  magn=  0.0004
     atom  22 (R=0.075)  charge=  1.9361  magn=  0.0275
     atom  23 (R=0.075)  charge=  1.9361  magn=  0.0275
     atom  24 (R=0.075)  charge=  1.9439  magn=  0.0009
     atom  25 (R=0.075)  charge=  1.9439  magn=  0.0009
     atom  26 (R=0.075)  charge=  1.9495  magn=  0.0008
     atom  27 (R=0.075)  charge=  1.9495  magn=  0.0008
     atom  28 (R=0.075)  charge=  1.9480  magn=  0.0001
     atom  29 (R=0.075)  charge=  1.9480  magn=  0.0001
     atom  30 (R=0.075)  charge=  1.9481  magn=  0.0002
     atom  31 (R=0.075)  charge=  1.9481  magn=  0.0002
     atom  32 (R=0.075)  charge=  1.9442  magn=  0.0005
     atom  33 (R=0.075)  charge=  1.9442  magn=  0.0005
     atom  34 (R=0.075)  charge=  1.9447  magn= -0.0000
     atom  35 (R=0.075)  charge=  1.9447  magn= -0.0000
     atom  36 (R=0.075)  charge=  1.9398  magn=  0.0210
     atom  37 (R=0.075)  charge=  1.9398  magn=  0.0210
     atom  38 (R=0.075)  charge=  1.9430  magn=  0.0003
     atom  39 (R=0.075)  charge=  1.9430  magn=  0.0003
     atom  40 (R=0.075)  charge=  0.4010  magn=  0.0001
     atom  41 (R=0.075)  charge=  0.4010  magn=  0.0001
     atom  42 (R=0.075)  charge=  0.4003  magn=  0.0000
     atom  43 (R=0.075)  charge=  0.4003  magn=  0.0000
     atom  44 (R=0.156)  charge= 13.2706  magn=  3.2813

     total cpu time spent up to now is    15379.8 secs

     End of self-consistent calculation

 ------ SPIN UP ------------


          k = 0.0000 0.0000 0.0000 ( 49603 PWs)   bands (ev):

   -81.6022 -67.9835 -67.9530 -67.7759 -67.6273 -67.4686 -48.6101 -47.2884
   -47.0961 -34.7648 -34.7445 -34.7391 -34.7239 -34.7227 -34.7003 -34.5541
   -34.5438 -34.5235 -34.3993 -34.3922 -34.3835 -34.2447 -34.2302 -34.2243
   -23.5875 -23.5741 -15.2940 -15.2526 -14.3854 -14.3506 -13.8517 -13.8393
   -13.6903 -13.5817 -13.5148 -13.3876 -13.1930 -13.1489 -13.1154 -13.1083
   -13.0035 -12.8997 -12.7730 -12.7151 -12.6059 -12.5881 -12.5236 -12.4258
   -11.8678 -11.5824  -7.1267  -7.1045  -7.0591  -7.0556  -7.0483  -7.0464
    -4.5527  -4.5169  -2.6946  -2.6178  -2.0884  -1.6245  -1.4621  -1.4295
    -1.3401  -1.2851  -0.9283  -0.9107  -0.8489  -0.6620  -0.6190  -0.4517
    -0.2610  -0.1871  -0.0837   0.1291   0.2590   0.2702   0.4215   0.6252
     0.6268   0.7833   0.8157   0.9231   1.1312   1.1696   1.1802   1.3513
     1.3957   1.5393   1.5611   1.7652   1.8145   1.8230   1.8417   1.9425
     1.9474   2.1757   2.2057   2.3074   2.3196   2.3489   2.4014   2.4947
     2.5350   2.5512   2.7066   2.7644   2.8028   2.8550   2.8843   2.9815
     3.0361   3.0838   3.1104   3.1365   3.2207   3.2328   3.2579   3.3522
     3.4398   3.5178   3.5261   3.5960   3.6310   3.7602   3.9584   4.0043
     4.8009   5.0947   5.9422   6.3978   6.6401   8.6259  10.1051  10.7775
    11.0557  11.4392  11.5479  11.7170  12.0048  12.1271  12.4986  12.5323
    12.6336  12.8860  12.9285  13.0580  13.1278  13.1537  13.3075  13.3340
    13.4405  13.4603  13.5157  13.6103  13.9056

     occupation numbers 
     1.0000   1.0000   1.0000   1.0000   1.0000   1.0000   1.0000   1.0000
     1.0000   1.0000   1.0000   1.0000   1.0000   1.0000   1.0000   1.0000
     1.0000   1.0000   1.0000   1.0000   1.0000   1.0000   1.0000   1.0000
     1.0000   1.0000   1.0000   1.0000   1.0000   1.0000   1.0000   1.0000
     1.0000   1.0000   1.0000   1.0000   1.0000   1.0000   1.0000   1.0000
     1.0000   1.0000   1.0000   1.0000   1.0000   1.0000   1.0000   1.0000
     1.0000   1.0000   1.0000   1.0000   1.0000   1.0000   1.0000   1.0000
     1.0000   1.0000   1.0000   1.0000   1.0000   1.0000   1.0000   1.0000
     1.0000   1.0000   1.0000   1.0000   1.0000   1.0000   1.0000   1.0000
     1.0000   1.0000   1.0000   1.0000   1.0000   1.0000   1.0000   1.0000
     1.0000   1.0000   1.0000   1.0000   1.0000   1.0000   1.0000   1.0000
     1.0000   1.0000   1.0000   1.0000   1.0000   1.0000   1.0000   1.0000
     1.0000   1.0000   1.0000   1.0000   1.0000   1.0000   1.0000   1.0000
     1.0000   1.0000   1.0000   1.0000   1.0000   1.0000   1.0000   1.0000
     1.0000   1.0000   1.0000   1.0000   1.0000   1.0000   1.0000   1.0000
     1.0000   1.0000   1.0000   1.0000   1.0000   1.0000   1.0000   1.0000
     1.0000   1.0000   1.0000   1.0000   1.0000   0.0000   0.0000   0.0000
     0.0000   0.0000   0.0000   0.0000   0.0000   0.0000   0.0000   0.0000
     0.0000   0.0000   0.0000   0.0000   0.0000   0.0000   0.0000   0.0000
     0.0000   0.0000   0.0000   0.0000   0.0000

          k = 0.0000 0.0000 0.1722 ( 49593 PWs)   bands (ev):

   -81.6022 -67.9835 -67.9530 -67.7759 -67.6273 -67.4686 -48.6101 -47.2884
   -47.0962 -34.7648 -34.7445 -34.7391 -34.7239 -34.7227 -34.7003 -34.5541
   -34.5438 -34.5235 -34.3993 -34.3922 -34.3835 -34.2447 -34.2302 -34.2243
   -23.5875 -23.5741 -15.2855 -15.2616 -14.3770 -14.3594 -13.8521 -13.8389
   -13.6836 -13.5933 -13.5105 -13.3849 -13.1935 -13.1498 -13.1186 -13.1060
   -12.9999 -12.9019 -12.7692 -12.7189 -12.6076 -12.5862 -12.5197 -12.4299
   -11.8676 -11.5829  -7.1267  -7.1044  -7.0591  -7.0556  -7.0483  -7.0463
    -4.5495  -4.5204  -2.6770  -2.6380  -2.0672  -1.6164  -1.4565  -1.4344
    -1.3375  -1.2963  -0.9350  -0.8919  -0.8625  -0.6714  -0.6002  -0.5288
    -0.2327  -0.1741  -0.1225   0.0869   0.2565   0.2622   0.4429   0.6357
     0.6596   0.7854   0.8494   0.8858   1.1115   1.1987   1.2188   1.2935
     1.4783   1.5538   1.6393   1.8051   1.8162   1.8304   1.8518   1.9104
     1.9886   2.1048   2.2034   2.2313   2.3100   2.3446   2.3790   2.4665
     2.4998   2.5725   2.7225   2.7634   2.8079   2.8479   2.8791   2.9961
     3.0323   3.0760   3.0960   3.1356   3.2003   3.2476   3.3053   3.3586
     3.4396   3.4766   3.5111   3.5992   3.6222   3.7971   3.9592   4.0010
     4.8019   5.0911   5.9419   6.3964   6.6418   8.9228   9.6245  10.8758
    11.1043  11.2736  11.5954  11.6293  12.1895  12.3417  12.5335  12.5718
    12.7568  12.8074  12.8975  12.9343  13.0216  13.1950  13.3003  13.3652
    13.4129  13.4415  13.6361  13.6477  13.6806

     occupation numbers 
     1.0000   1.0000   1.0000   1.0000   1.0000   1.0000   1.0000   1.0000
     1.0000   1.0000   1.0000   1.0000   1.0000   1.0000   1.0000   1.0000
     1.0000   1.0000   1.0000   1.0000   1.0000   1.0000   1.0000   1.0000
     1.0000   1.0000   1.0000   1.0000   1.0000   1.0000   1.0000   1.0000
     1.0000   1.0000   1.0000   1.0000   1.0000   1.0000   1.0000   1.0000
     1.0000   1.0000   1.0000   1.0000   1.0000   1.0000   1.0000   1.0000
     1.0000   1.0000   1.0000   1.0000   1.0000   1.0000   1.0000   1.0000
     1.0000   1.0000   1.0000   1.0000   1.0000   1.0000   1.0000   1.0000
     1.0000   1.0000   1.0000   1.0000   1.0000   1.0000   1.0000   1.0000
     1.0000   1.0000   1.0000   1.0000   1.0000   1.0000   1.0000   1.0000
     1.0000   1.0000   1.0000   1.0000   1.0000   1.0000   1.0000   1.0000
     1.0000   1.0000   1.0000   1.0000   1.0000   1.0000   1.0000   1.0000
     1.0000   1.0000   1.0000   1.0000   1.0000   1.0000   1.0000   1.0000
     1.0000   1.0000   1.0000   1.0000   1.0000   1.0000   1.0000   1.0000
     1.0000   1.0000   1.0000   1.0000   1.0000   1.0000   1.0000   1.0000
     1.0000   1.0000   1.0000   1.0000   1.0000   1.0000   1.0000   1.0000
     1.0000   1.0000   1.0000   1.0000   1.0000   0.0000   0.0000   0.0000
     0.0000   0.0000   0.0000   0.0000   0.0000   0.0000   0.0000   0.0000
     0.0000   0.0000   0.0000   0.0000   0.0000   0.0000   0.0000   0.0000
     0.0000   0.0000   0.0000   0.0000   0.0000

          k = 0.0000 0.1920 0.0000 ( 49535 PWs)   bands (ev):

   -81.6022 -67.9835 -67.9530 -67.7759 -67.6273 -67.4686 -48.6101 -47.2884
   -47.0961 -34.7648 -34.7445 -34.7391 -34.7239 -34.7227 -34.7003 -34.5541
   -34.5438 -34.5235 -34.3993 -34.3922 -34.3835 -34.2447 -34.2302 -34.2244
   -23.5875 -23.5741 -15.2885 -15.2474 -14.4219 -14.3825 -13.8518 -13.8394
   -13.6004 -13.5036 -13.4760 -13.4000 -13.2341 -13.1833 -13.1692 -13.1397
   -13.0126 -12.8960 -12.7624 -12.7107 -12.6056 -12.5879 -12.5177 -12.4217
   -11.8658 -11.5818  -7.1248  -7.1065  -7.0581  -7.0544  -7.0496  -7.0472
    -4.5113  -4.4739  -2.8493  -2.7704  -2.0312  -1.6955  -1.3335  -1.3302
    -1.2618  -1.2229  -0.9795  -0.9412  -0.8992  -0.6142  -0.5766  -0.4267
    -0.3579  -0.1286  -0.0810   0.1297   0.2071   0.2150   0.4354   0.5757
     0.6598   0.7156   0.7987   0.8932   1.0526   1.2437   1.2665   1.3792
     1.4167   1.5618   1.6592   1.7695   1.7717   1.8480   1.9188   2.0219
     2.0353   2.1431   2.1568   2.2291   2.3225   2.3381   2.4522   2.4822
     2.5333   2.6038   2.6883   2.7168   2.7580   2.8193   2.9148   2.9566
     3.0366   3.0822   3.1318   3.1673   3.2150   3.2504   3.2933   3.3475
     3.4228   3.4940   3.5105   3.5807   3.6036   3.7828   3.7908   3.9395
     4.8023   5.0858   5.9506   6.3680   6.6531   9.0212   9.9421  10.3523
    10.9368  11.3555  11.7163  12.0443  12.1240  12.2001  12.4228  12.5766
    12.6059  12.8081  12.9504  12.9715  13.0731  13.2011  13.2674  13.3170
    13.3928  13.4274  13.6296  13.8017  13.8241

     occupation numbers 
     1.0000   1.0000   1.0000   1.0000   1.0000   1.0000   1.0000   1.0000
     1.0000   1.0000   1.0000   1.0000   1.0000   1.0000   1.0000   1.0000
     1.0000   1.0000   1.0000   1.0000   1.0000   1.0000   1.0000   1.0000
     1.0000   1.0000   1.0000   1.0000   1.0000   1.0000   1.0000   1.0000
     1.0000   1.0000   1.0000   1.0000   1.0000   1.0000   1.0000   1.0000
     1.0000   1.0000   1.0000   1.0000   1.0000   1.0000   1.0000   1.0000
     1.0000   1.0000   1.0000   1.0000   1.0000   1.0000   1.0000   1.0000
     1.0000   1.0000   1.0000   1.0000   1.0000   1.0000   1.0000   1.0000
     1.0000   1.0000   1.0000   1.0000   1.0000   1.0000   1.0000   1.0000
     1.0000   1.0000   1.0000   1.0000   1.0000   1.0000   1.0000   1.0000
     1.0000   1.0000   1.0000   1.0000   1.0000   1.0000   1.0000   1.0000
     1.0000   1.0000   1.0000   1.0000   1.0000   1.0000   1.0000   1.0000
     1.0000   1.0000   1.0000   1.0000   1.0000   1.0000   1.0000   1.0000
     1.0000   1.0000   1.0000   1.0000   1.0000   1.0000   1.0000   1.0000
     1.0000   1.0000   1.0000   1.0000   1.0000   1.0000   1.0000   1.0000
     1.0000   1.0000   1.0000   1.0000   1.0000   1.0000   1.0000   1.0000
     1.0000   1.0000   1.0000   1.0000   1.0000   0.0000   0.0000   0.0000
     0.0000   0.0000   0.0000   0.0000   0.0000   0.0000   0.0000   0.0000
     0.0000   0.0000   0.0000   0.0000   0.0000   0.0000   0.0000   0.0000
     0.0000   0.0000   0.0000   0.0000   0.0000

          k = 0.0000 0.1920 0.1722 ( 49591 PWs)   bands (ev):

   -81.6022 -67.9835 -67.9530 -67.7759 -67.6273 -67.4686 -48.6101 -47.2884
   -47.0962 -34.7648 -34.7445 -34.7391 -34.7239 -34.7227 -34.7003 -34.5541
   -34.5438 -34.5235 -34.3993 -34.3922 -34.3835 -34.2447 -34.2302 -34.2244
   -23.5875 -23.5741 -15.2798 -15.2566 -14.4134 -14.3916 -13.8522 -13.8390
   -13.5960 -13.5003 -13.4871 -13.3934 -13.2404 -13.1764 -13.1704 -13.1408
   -13.0110 -12.8984 -12.7586 -12.7144 -12.6074 -12.5860 -12.5135 -12.4257
   -11.8656 -11.5822  -7.1249  -7.1065  -7.0580  -7.0544  -7.0496  -7.0471
    -4.5056  -4.4798  -2.8304  -2.7908  -2.0127  -1.6884  -1.3329  -1.3286
    -1.2552  -1.2330  -0.9744  -0.9465  -0.9044  -0.6442  -0.5488  -0.4923
    -0.3217  -0.1381  -0.1231   0.1040   0.2002   0.2176   0.4635   0.5711
     0.6915   0.7236   0.7575   0.9342   1.1009   1.2256   1.3019   1.3694
     1.5044   1.5442   1.6976   1.7434   1.8082   1.8283   1.9305   2.0065
     2.0556   2.1088   2.1675   2.2167   2.2782   2.3261   2.4276   2.4710
     2.5323   2.5953   2.6690   2.7270   2.7442   2.8268   2.8707   2.9655
     3.0136   3.1027   3.1374   3.1788   3.2310   3.2445   3.2892   3.3609
     3.4071   3.4759   3.5129   3.5845   3.5941   3.7968   3.8195   3.9411
     4.8035   5.0814   5.9505   6.3644   6.6544   9.2813   9.9183  10.1244
    10.6245  11.3570  11.7212  12.0818  12.2348  12.4580  12.5381  12.6166
    12.7491  12.8331  12.9146  12.9928  13.0639  13.1132  13.2065  13.3279
    13.3528  13.4764  13.6085  13.6926  13.8071

     occupation numbers 
     1.0000   1.0000   1.0000   1.0000   1.0000   1.0000   1.0000   1.0000
     1.0000   1.0000   1.0000   1.0000   1.0000   1.0000   1.0000   1.0000
     1.0000   1.0000   1.0000   1.0000   1.0000   1.0000   1.0000   1.0000
     1.0000   1.0000   1.0000   1.0000   1.0000   1.0000   1.0000   1.0000
     1.0000   1.0000   1.0000   1.0000   1.0000   1.0000   1.0000   1.0000
     1.0000   1.0000   1.0000   1.0000   1.0000   1.0000   1.0000   1.0000
     1.0000   1.0000   1.0000   1.0000   1.0000   1.0000   1.0000   1.0000
     1.0000   1.0000   1.0000   1.0000   1.0000   1.0000   1.0000   1.0000
     1.0000   1.0000   1.0000   1.0000   1.0000   1.0000   1.0000   1.0000
     1.0000   1.0000   1.0000   1.0000   1.0000   1.0000   1.0000   1.0000
     1.0000   1.0000   1.0000   1.0000   1.0000   1.0000   1.0000   1.0000
     1.0000   1.0000   1.0000   1.0000   1.0000   1.0000   1.0000   1.0000
     1.0000   1.0000   1.0000   1.0000   1.0000   1.0000   1.0000   1.0000
     1.0000   1.0000   1.0000   1.0000   1.0000   1.0000   1.0000   1.0000
     1.0000   1.0000   1.0000   1.0000   1.0000   1.0000   1.0000   1.0000
     1.0000   1.0000   1.0000   1.0000   1.0000   1.0000   1.0000   1.0000
     1.0000   1.0000   1.0000   1.0000   1.0000   0.0000   0.0000   0.0000
     0.0000   0.0000   0.0000   0.0000   0.0000   0.0000   0.0000   0.0000
     0.0000   0.0000   0.0000   0.0000   0.0000   0.0000   0.0000   0.0000
     0.0000   0.0000   0.0000   0.0000   0.0000

          k = 0.1667 0.0000 0.0306 ( 49577 PWs)   bands (ev):

   -81.6022 -67.9835 -67.9530 -67.7759 -67.6273 -67.4686 -48.6101 -47.2884
   -47.0961 -34.7645 -34.7454 -34.7384 -34.7247 -34.7220 -34.7004 -34.5541
   -34.5438 -34.5235 -34.3993 -34.3922 -34.3835 -34.2448 -34.2302 -34.2243
   -23.5874 -23.5740 -15.2364 -15.1962 -14.4006 -14.3695 -13.9732 -13.9527
   -13.6187 -13.5058 -13.4683 -13.3707 -13.2071 -13.1590 -13.1131 -13.1090
   -12.9968 -12.9064 -12.7908 -12.7345 -12.6646 -12.6272 -12.5047 -12.4137
   -11.8514 -11.5976  -7.1277  -7.1063  -7.0586  -7.0542  -7.0481  -7.0456
    -4.3957  -4.3545  -2.6545  -2.5753  -2.0934  -1.7314  -1.6749  -1.5962
    -1.1577  -1.0989  -0.9972  -0.9388  -0.8085  -0.6181  -0.5953  -0.4432
    -0.2306  -0.1810  -0.0910   0.0975   0.2224   0.3024   0.3809   0.5033
     0.6765   0.8039   0.8142   0.9110   1.0447   1.1426   1.2405   1.2911
     1.3558   1.5668   1.6501   1.6712   1.7512   1.8260   1.9218   1.9670
     2.0666   2.1289   2.2122   2.2781   2.3085   2.3590   2.4080   2.5061
     2.5472   2.6023   2.6690   2.7424   2.8077   2.8569   2.9187   2.9533
     2.9987   3.0505   3.0918   3.1176   3.1480   3.2415   3.3083   3.3754
     3.4212   3.4815   3.4965   3.5407   3.5742   3.7060   3.7795   3.9770
     4.8619   5.0628   5.9453   6.3977   6.6295   8.9486  10.2816  10.8631
    11.2058  11.4767  11.5915  11.8882  12.0763  12.1693  12.4751  12.5621
    12.6629  12.7513  12.8737  13.0529  13.0797  13.1871  13.1925  13.2501
    13.3764  13.5768  13.6053  13.7199  13.7727

     occupation numbers 
     1.0000   1.0000   1.0000   1.0000   1.0000   1.0000   1.0000   1.0000
     1.0000   1.0000   1.0000   1.0000   1.0000   1.0000   1.0000   1.0000
     1.0000   1.0000   1.0000   1.0000   1.0000   1.0000   1.0000   1.0000
     1.0000   1.0000   1.0000   1.0000   1.0000   1.0000   1.0000   1.0000
     1.0000   1.0000   1.0000   1.0000   1.0000   1.0000   1.0000   1.0000
     1.0000   1.0000   1.0000   1.0000   1.0000   1.0000   1.0000   1.0000
     1.0000   1.0000   1.0000   1.0000   1.0000   1.0000   1.0000   1.0000
     1.0000   1.0000   1.0000   1.0000   1.0000   1.0000   1.0000   1.0000
     1.0000   1.0000   1.0000   1.0000   1.0000   1.0000   1.0000   1.0000
     1.0000   1.0000   1.0000   1.0000   1.0000   1.0000   1.0000   1.0000
     1.0000   1.0000   1.0000   1.0000   1.0000   1.0000   1.0000   1.0000
     1.0000   1.0000   1.0000   1.0000   1.0000   1.0000   1.0000   1.0000
     1.0000   1.0000   1.0000   1.0000   1.0000   1.0000   1.0000   1.0000
     1.0000   1.0000   1.0000   1.0000   1.0000   1.0000   1.0000   1.0000
     1.0000   1.0000   1.0000   1.0000   1.0000   1.0000   1.0000   1.0000
     1.0000   1.0000   1.0000   1.0000   1.0000   1.0000   1.0000   1.0000
     1.0000   1.0000   1.0000   1.0000   1.0000   0.0000   0.0000   0.0000
     0.0000   0.0000   0.0000   0.0000   0.0000   0.0000   0.0000   0.0000
     0.0000   0.0000   0.0000   0.0000   0.0000   0.0000   0.0000   0.0000
     0.0000   0.0000   0.0000   0.0000   0.0000

          k = 0.1667 0.0000 0.2027 ( 49607 PWs)   bands (ev):

   -81.6022 -67.9835 -67.9530 -67.7759 -67.6273 -67.4686 -48.6101 -47.2884
   -47.0962 -34.7645 -34.7454 -34.7384 -34.7247 -34.7220 -34.7004 -34.5541
   -34.5438 -34.5235 -34.3993 -34.3922 -34.3835 -34.2448 -34.2302 -34.2243
   -23.5874 -23.5740 -15.2258 -15.2074 -14.3922 -14.3782 -13.9693 -13.9568
   -13.6126 -13.5177 -13.4640 -13.3670 -13.2068 -13.1592 -13.1232 -13.1012
   -12.9934 -12.9089 -12.7871 -12.7395 -12.6588 -12.6320 -12.4989 -12.4191
   -11.8510 -11.5983  -7.1277  -7.1063  -7.0586  -7.0542  -7.0481  -7.0455
    -4.3972  -4.3531  -2.6391  -2.5938  -2.0704  -1.7576  -1.6543  -1.5867
    -1.1533  -1.1054  -0.9976  -0.9507  -0.7897  -0.6241  -0.5795  -0.5310
    -0.2035  -0.1512  -0.1306   0.0492   0.2163   0.3059   0.3623   0.5487
     0.6934   0.7905   0.8390   0.9091   1.0337   1.1865   1.2085   1.3335
     1.3740   1.6125   1.6664   1.7039   1.7569   1.8895   1.9255   1.9753
     2.0095   2.1247   2.1694   2.2284   2.2740   2.3712   2.3971   2.4661
     2.5163   2.6371   2.6743   2.7139   2.8121   2.8802   2.8984   2.9674
     2.9772   3.0389   3.0747   3.1201   3.1813   3.2678   3.3344   3.3493
     3.4170   3.4509   3.4935   3.5452   3.5564   3.7263   3.8107   3.9749
     4.8623   5.0592   5.9447   6.3969   6.6294   9.3083   9.7293  10.9503
    11.2369  11.3376  11.6473  11.7865  12.0390  12.4134  12.5787  12.6008
    12.7504  12.8837  12.9226  12.9908  13.0554  13.1098  13.2334  13.2952
    13.3359  13.4300  13.5332  13.5811  13.8656

     occupation numbers 
     1.0000   1.0000   1.0000   1.0000   1.0000   1.0000   1.0000   1.0000
     1.0000   1.0000   1.0000   1.0000   1.0000   1.0000   1.0000   1.0000
     1.0000   1.0000   1.0000   1.0000   1.0000   1.0000   1.0000   1.0000
     1.0000   1.0000   1.0000   1.0000   1.0000   1.0000   1.0000   1.0000
     1.0000   1.0000   1.0000   1.0000   1.0000   1.0000   1.0000   1.0000
     1.0000   1.0000   1.0000   1.0000   1.0000   1.0000   1.0000   1.0000
     1.0000   1.0000   1.0000   1.0000   1.0000   1.0000   1.0000   1.0000
     1.0000   1.0000   1.0000   1.0000   1.0000   1.0000   1.0000   1.0000
     1.0000   1.0000   1.0000   1.0000   1.0000   1.0000   1.0000   1.0000
     1.0000   1.0000   1.0000   1.0000   1.0000   1.0000   1.0000   1.0000
     1.0000   1.0000   1.0000   1.0000   1.0000   1.0000   1.0000   1.0000
     1.0000   1.0000   1.0000   1.0000   1.0000   1.0000   1.0000   1.0000
     1.0000   1.0000   1.0000   1.0000   1.0000   1.0000   1.0000   1.0000
     1.0000   1.0000   1.0000   1.0000   1.0000   1.0000   1.0000   1.0000
     1.0000   1.0000   1.0000   1.0000   1.0000   1.0000   1.0000   1.0000
     1.0000   1.0000   1.0000   1.0000   1.0000   1.0000   1.0000   1.0000
     1.0000   1.0000   1.0000   1.0000   1.0000   0.0000   0.0000   0.0000
     0.0000   0.0000   0.0000   0.0000   0.0000   0.0000   0.0000   0.0000
     0.0000   0.0000   0.0000   0.0000   0.0000   0.0000   0.0000   0.0000
     0.0000   0.0000   0.0000   0.0000   0.0000

          k = 0.1667 0.0000-0.1416 ( 49612 PWs)   bands (ev):

   -81.6022 -67.9835 -67.9530 -67.7759 -67.6273 -67.4686 -48.6101 -47.2884
   -47.0962 -34.7645 -34.7454 -34.7384 -34.7247 -34.7220 -34.7004 -34.5541
   -34.5438 -34.5235 -34.3993 -34.3922 -34.3835 -34.2448 -34.2302 -34.2243
   -23.5874 -23.5740 -15.2302 -15.2028 -14.3939 -14.3765 -13.9685 -13.9575
   -13.6149 -13.5110 -13.4689 -13.3675 -13.2072 -13.1587 -13.1203 -13.1031
   -12.9949 -12.9086 -12.7850 -12.7416 -12.6511 -12.6395 -12.4997 -12.4179
   -11.8510 -11.5981  -7.1277  -7.1063  -7.0586  -7.0542  -7.0481  -7.0455
    -4.3807  -4.3698  -2.6378  -2.5939  -2.0795  -1.7535  -1.6554  -1.5906
    -1.1489  -1.1112  -0.9911  -0.9312  -0.8101  -0.6167  -0.5939  -0.5086
    -0.2236  -0.1597  -0.1181   0.0576   0.2315   0.2972   0.4105   0.5278
     0.6684   0.8031   0.8234   0.9123   1.0532   1.1667   1.2355   1.2729
     1.4135   1.6206   1.6310   1.6930   1.7451   1.8147   1.9216   1.9719
     2.0096   2.1482   2.1956   2.2526   2.2785   2.3654   2.4135   2.4714
     2.5396   2.6147   2.7002   2.7435   2.8458   2.8838   2.9101   2.9364
     2.9850   3.0415   3.0697   3.1467   3.1625   3.2071   3.3088   3.3786
     3.3968   3.4482   3.4827   3.5593   3.5746   3.7172   3.8046   3.9802
     4.8596   5.0628   5.9451   6.3968   6.6314   9.1145   9.9836  10.9792
    11.2803  11.3322  11.6733  11.7810  12.0340  12.3861  12.5242  12.5732
    12.7247  12.7557  12.8644  12.9648  13.0919  13.1000  13.1863  13.2735
    13.3926  13.5009  13.5542  13.6872  13.8136

     occupation numbers 
     1.0000   1.0000   1.0000   1.0000   1.0000   1.0000   1.0000   1.0000
     1.0000   1.0000   1.0000   1.0000   1.0000   1.0000   1.0000   1.0000
     1.0000   1.0000   1.0000   1.0000   1.0000   1.0000   1.0000   1.0000
     1.0000   1.0000   1.0000   1.0000   1.0000   1.0000   1.0000   1.0000
     1.0000   1.0000   1.0000   1.0000   1.0000   1.0000   1.0000   1.0000
     1.0000   1.0000   1.0000   1.0000   1.0000   1.0000   1.0000   1.0000
     1.0000   1.0000   1.0000   1.0000   1.0000   1.0000   1.0000   1.0000
     1.0000   1.0000   1.0000   1.0000   1.0000   1.0000   1.0000   1.0000
     1.0000   1.0000   1.0000   1.0000   1.0000   1.0000   1.0000   1.0000
     1.0000   1.0000   1.0000   1.0000   1.0000   1.0000   1.0000   1.0000
     1.0000   1.0000   1.0000   1.0000   1.0000   1.0000   1.0000   1.0000
     1.0000   1.0000   1.0000   1.0000   1.0000   1.0000   1.0000   1.0000
     1.0000   1.0000   1.0000   1.0000   1.0000   1.0000   1.0000   1.0000
     1.0000   1.0000   1.0000   1.0000   1.0000   1.0000   1.0000   1.0000
     1.0000   1.0000   1.0000   1.0000   1.0000   1.0000   1.0000   1.0000
     1.0000   1.0000   1.0000   1.0000   1.0000   1.0000   1.0000   1.0000
     1.0000   1.0000   1.0000   1.0000   1.0000   0.0000   0.0000   0.0000
     0.0000   0.0000   0.0000   0.0000   0.0000   0.0000   0.0000   0.0000
     0.0000   0.0000   0.0000   0.0000   0.0000   0.0000   0.0000   0.0000
     0.0000   0.0000   0.0000   0.0000   0.0000

          k = 0.1667 0.1920 0.0306 ( 49547 PWs)   bands (ev):

   -81.6022 -67.9835 -67.9530 -67.7759 -67.6273 -67.4686 -48.6101 -47.2884
   -47.0961 -34.7645 -34.7454 -34.7384 -34.7247 -34.7220 -34.7004 -34.5541
   -34.5438 -34.5235 -34.3993 -34.3921 -34.3835 -34.2448 -34.2302 -34.2243
   -23.5874 -23.5740 -15.2312 -15.1912 -14.4327 -14.3974 -13.9580 -13.9410
   -13.5609 -13.4807 -13.4212 -13.3619 -13.2218 -13.1945 -13.1643 -13.1425
   -13.0115 -12.9024 -12.7845 -12.7212 -12.6594 -12.6306 -12.5015 -12.4115
   -11.8501 -11.5972  -7.1266  -7.1077  -7.0577  -7.0534  -7.0490  -7.0461
    -4.3572  -4.3148  -2.8230  -2.7441  -2.0132  -1.6706  -1.5716  -1.5266
    -1.1494  -1.1095  -1.0320  -0.9433  -0.7958  -0.5874  -0.5464  -0.4058
    -0.2952  -0.1558  -0.1043   0.0929   0.1717   0.2643   0.4031   0.4646
     0.6572   0.7325   0.8228   0.9067   1.0098   1.1741   1.2738   1.3322
     1.3809   1.5655   1.6311   1.6866   1.7765   1.8351   1.9649   2.0248
     2.0992   2.1674   2.1920   2.2320   2.2950   2.3982   2.4533   2.4977
     2.5570   2.6095   2.6766   2.7311   2.7979   2.8495   2.8955   2.9283
     3.0250   3.0568   3.1077   3.1281   3.1790   3.2074   3.2713   3.3602
     3.3907   3.4459   3.5105   3.5185   3.5624   3.6542   3.7944   3.8942
     4.8636   5.0527   5.9532   6.3692   6.6448   9.2964  10.1330  10.5062
    11.0442  11.4178  11.7212  12.1141  12.1571  12.2859  12.4141  12.5945
    12.6378  12.7957  12.8490  12.9805  13.0298  13.1774  13.2222  13.3256
    13.4208  13.4591  13.6628  13.8179  13.9394

     occupation numbers 
     1.0000   1.0000   1.0000   1.0000   1.0000   1.0000   1.0000   1.0000
     1.0000   1.0000   1.0000   1.0000   1.0000   1.0000   1.0000   1.0000
     1.0000   1.0000   1.0000   1.0000   1.0000   1.0000   1.0000   1.0000
     1.0000   1.0000   1.0000   1.0000   1.0000   1.0000   1.0000   1.0000
     1.0000   1.0000   1.0000   1.0000   1.0000   1.0000   1.0000   1.0000
     1.0000   1.0000   1.0000   1.0000   1.0000   1.0000   1.0000   1.0000
     1.0000   1.0000   1.0000   1.0000   1.0000   1.0000   1.0000   1.0000
     1.0000   1.0000   1.0000   1.0000   1.0000   1.0000   1.0000   1.0000
     1.0000   1.0000   1.0000   1.0000   1.0000   1.0000   1.0000   1.0000
     1.0000   1.0000   1.0000   1.0000   1.0000   1.0000   1.0000   1.0000
     1.0000   1.0000   1.0000   1.0000   1.0000   1.0000   1.0000   1.0000
     1.0000   1.0000   1.0000   1.0000   1.0000   1.0000   1.0000   1.0000
     1.0000   1.0000   1.0000   1.0000   1.0000   1.0000   1.0000   1.0000
     1.0000   1.0000   1.0000   1.0000   1.0000   1.0000   1.0000   1.0000
     1.0000   1.0000   1.0000   1.0000   1.0000   1.0000   1.0000   1.0000
     1.0000   1.0000   1.0000   1.0000   1.0000   1.0000   1.0000   1.0000
     1.0000   1.0000   1.0000   1.0000   1.0000   0.0000   0.0000   0.0000
     0.0000   0.0000   0.0000   0.0000   0.0000   0.0000   0.0000   0.0000
     0.0000   0.0000   0.0000   0.0000   0.0000   0.0000   0.0000   0.0000
     0.0000   0.0000   0.0000   0.0000   0.0000

          k = 0.1667 0.1920 0.2027 ( 49568 PWs)   bands (ev):

   -81.6022 -67.9835 -67.9530 -67.7759 -67.6273 -67.4686 -48.6101 -47.2884
   -47.0962 -34.7645 -34.7454 -34.7384 -34.7247 -34.7220 -34.7004 -34.5541
   -34.5438 -34.5235 -34.3993 -34.3921 -34.3835 -34.2448 -34.2302 -34.2243
   -23.5874 -23.5740 -15.2203 -15.2027 -14.4228 -14.4077 -13.9564 -13.9427
   -13.5567 -13.4779 -13.4333 -13.3530 -13.2252 -13.1977 -13.1623 -13.1393
   -13.0100 -12.9050 -12.7815 -12.7257 -12.6558 -12.6332 -12.4958 -12.4168
   -11.8496 -11.5978  -7.1266  -7.1077  -7.0577  -7.0534  -7.0490  -7.0461
    -4.3561  -4.3160  -2.8035  -2.7655  -1.9952  -1.6630  -1.5887  -1.5105
    -1.1542  -1.1042  -1.0335  -0.9504  -0.7793  -0.6312  -0.5224  -0.4579
    -0.2648  -0.1728  -0.1203   0.0570   0.1704   0.2648   0.3897   0.4906
     0.6540   0.7289   0.8542   0.9203   1.0225   1.2118   1.2675   1.3507
     1.4481   1.5426   1.6095   1.7135   1.8116   1.8593   1.9782   2.0351
     2.0724   2.1487   2.1760   2.2131   2.2630   2.3740   2.4284   2.5065
     2.5343   2.5995   2.6536   2.7548   2.7862   2.8261   2.8627   2.9744
     3.0178   3.0355   3.1160   3.1314   3.1941   3.2303   3.2776   3.3563
     3.3821   3.4282   3.5004   3.5106   3.5573   3.6948   3.8129   3.8988
     4.8639   5.0485   5.9528   6.3670   6.6448   9.6047  10.0179  10.3335
    10.7149  11.4054  11.7165  12.1420  12.2343  12.3675  12.6007  12.7176
    12.7871  12.8804  12.9284  12.9722  13.0494  13.1086  13.1975  13.2639
    13.2862  13.4815  13.5532  13.7569  13.8165

     occupation numbers 
     1.0000   1.0000   1.0000   1.0000   1.0000   1.0000   1.0000   1.0000
     1.0000   1.0000   1.0000   1.0000   1.0000   1.0000   1.0000   1.0000
     1.0000   1.0000   1.0000   1.0000   1.0000   1.0000   1.0000   1.0000
     1.0000   1.0000   1.0000   1.0000   1.0000   1.0000   1.0000   1.0000
     1.0000   1.0000   1.0000   1.0000   1.0000   1.0000   1.0000   1.0000
     1.0000   1.0000   1.0000   1.0000   1.0000   1.0000   1.0000   1.0000
     1.0000   1.0000   1.0000   1.0000   1.0000   1.0000   1.0000   1.0000
     1.0000   1.0000   1.0000   1.0000   1.0000   1.0000   1.0000   1.0000
     1.0000   1.0000   1.0000   1.0000   1.0000   1.0000   1.0000   1.0000
     1.0000   1.0000   1.0000   1.0000   1.0000   1.0000   1.0000   1.0000
     1.0000   1.0000   1.0000   1.0000   1.0000   1.0000   1.0000   1.0000
     1.0000   1.0000   1.0000   1.0000   1.0000   1.0000   1.0000   1.0000
     1.0000   1.0000   1.0000   1.0000   1.0000   1.0000   1.0000   1.0000
     1.0000   1.0000   1.0000   1.0000   1.0000   1.0000   1.0000   1.0000
     1.0000   1.0000   1.0000   1.0000   1.0000   1.0000   1.0000   1.0000
     1.0000   1.0000   1.0000   1.0000   1.0000   1.0000   1.0000   1.0000
     1.0000   1.0000   1.0000   1.0000   1.0000   0.0000   0.0000   0.0000
     0.0000   0.0000   0.0000   0.0000   0.0000   0.0000   0.0000   0.0000
     0.0000   0.0000   0.0000   0.0000   0.0000   0.0000   0.0000   0.0000
     0.0000   0.0000   0.0000   0.0000   0.0000

          k = 0.1667 0.1920-0.1416 ( 49571 PWs)   bands (ev):

   -81.6022 -67.9835 -67.9530 -67.7759 -67.6273 -67.4686 -48.6101 -47.2884
   -47.0962 -34.7645 -34.7454 -34.7384 -34.7247 -34.7220 -34.7004 -34.5541
   -34.5438 -34.5235 -34.3993 -34.3921 -34.3835 -34.2448 -34.2302 -34.2243
   -23.5874 -23.5740 -15.2249 -15.1979 -14.4256 -14.4049 -13.9540 -13.9451
   -13.5583 -13.4781 -13.4287 -13.3571 -13.2262 -13.1916 -13.1663 -13.1406
   -13.0100 -12.9046 -12.7788 -12.7276 -12.6482 -12.6413 -12.4966 -12.4157
   -11.8496 -11.5977  -7.1266  -7.1077  -7.0577  -7.0534  -7.0490  -7.0461
    -4.3404  -4.3319  -2.8048  -2.7637  -2.0022  -1.6655  -1.5885  -1.5101
    -1.1396  -1.1214  -1.0120  -0.9462  -0.8079  -0.6072  -0.5350  -0.4418
    -0.2865  -0.1684  -0.1236   0.0744   0.1799   0.2561   0.4317   0.4876
     0.6297   0.7304   0.8325   0.9313   1.0271   1.1685   1.2967   1.3550
     1.4245   1.5562   1.6002   1.7319   1.7757   1.8402   1.9410   2.0163
     2.0541   2.1502   2.1987   2.2399   2.2890   2.3818   2.4469   2.5050
     2.5729   2.5992   2.6778   2.7151   2.8081   2.8393   2.8439   2.9747
     3.0335   3.0647   3.1024   3.1490   3.1814   3.2077   3.2806   3.3388
     3.3942   3.4203   3.4736   3.5255   3.5543   3.6872   3.8083   3.8986
     4.8613   5.0529   5.9532   6.3661   6.6453   9.4547  10.2247  10.2694
    10.8283  11.4641  11.7508  12.1048  12.1616  12.3940  12.5314  12.5943
    12.7516  12.8046  12.8855  12.9610  13.0765  13.1475  13.2064  13.3077
    13.3643  13.4214  13.5223  13.7820  13.8789

     occupation numbers 
     1.0000   1.0000   1.0000   1.0000   1.0000   1.0000   1.0000   1.0000
     1.0000   1.0000   1.0000   1.0000   1.0000   1.0000   1.0000   1.0000
     1.0000   1.0000   1.0000   1.0000   1.0000   1.0000   1.0000   1.0000
     1.0000   1.0000   1.0000   1.0000   1.0000   1.0000   1.0000   1.0000
     1.0000   1.0000   1.0000   1.0000   1.0000   1.0000   1.0000   1.0000
     1.0000   1.0000   1.0000   1.0000   1.0000   1.0000   1.0000   1.0000
     1.0000   1.0000   1.0000   1.0000   1.0000   1.0000   1.0000   1.0000
     1.0000   1.0000   1.0000   1.0000   1.0000   1.0000   1.0000   1.0000
     1.0000   1.0000   1.0000   1.0000   1.0000   1.0000   1.0000   1.0000
     1.0000   1.0000   1.0000   1.0000   1.0000   1.0000   1.0000   1.0000
     1.0000   1.0000   1.0000   1.0000   1.0000   1.0000   1.0000   1.0000
     1.0000   1.0000   1.0000   1.0000   1.0000   1.0000   1.0000   1.0000
     1.0000   1.0000   1.0000   1.0000   1.0000   1.0000   1.0000   1.0000
     1.0000   1.0000   1.0000   1.0000   1.0000   1.0000   1.0000   1.0000
     1.0000   1.0000   1.0000   1.0000   1.0000   1.0000   1.0000   1.0000
     1.0000   1.0000   1.0000   1.0000   1.0000   1.0000   1.0000   1.0000
     1.0000   1.0000   1.0000   1.0000   1.0000   0.0000   0.0000   0.0000
     0.0000   0.0000   0.0000   0.0000   0.0000   0.0000   0.0000   0.0000
     0.0000   0.0000   0.0000   0.0000   0.0000   0.0000   0.0000   0.0000
     0.0000   0.0000   0.0000   0.0000   0.0000

          k = 0.3333 0.0000 0.0611 ( 49555 PWs)   bands (ev):

   -81.6022 -67.9835 -67.9530 -67.7759 -67.6273 -67.4686 -48.6101 -47.2884
   -47.0961 -34.7639 -34.7468 -34.7373 -34.7255 -34.7213 -34.7005 -34.5541
   -34.5437 -34.5235 -34.3994 -34.3921 -34.3836 -34.2449 -34.2303 -34.2242
   -23.5872 -23.5738 -15.0781 -15.0416 -14.5140 -14.4890 -14.0962 -14.0729
   -13.5178 -13.4076 -13.3550 -13.3314 -13.2471 -13.1949 -13.1279 -13.1244
   -13.0005 -12.9222 -12.8460 -12.8052 -12.7313 -12.6624 -12.4850 -12.4059
   -11.8148 -11.6350  -7.1303  -7.1098  -7.0574  -7.0517  -7.0474  -7.0440
    -3.9827  -3.9271  -2.7862  -2.6886  -2.0928  -1.9588  -1.6836  -1.5309
    -1.1382  -1.1041  -1.0298  -0.9796  -0.6740  -0.5557  -0.5093  -0.4012
    -0.3172  -0.1643  -0.0534   0.0821   0.1986   0.2974   0.3867   0.4649
     0.5365   0.7066   0.8137   0.8673   1.0535   1.1375   1.2106   1.2646
     1.3106   1.4044   1.5229   1.6392   1.7341   1.9059   2.0001   2.0619
     2.1175   2.1537   2.2476   2.3078   2.3781   2.3966   2.4240   2.5330
     2.5851   2.6278   2.6417   2.7394   2.7922   2.8335   2.8499   2.8903
     2.9455   2.9831   3.0434   3.1227   3.1898   3.2284   3.2704   3.3202
     3.3585   3.3764   3.4271   3.4630   3.5162   3.5659   3.6735   3.9012
     4.9540   4.9962   5.9515   6.3986   6.6179   9.7253  10.7058  11.0161
    11.4614  11.5316  11.6869  11.7867  12.2431  12.2836  12.2978  12.4837
    12.6544  12.7599  12.7971  13.0584  13.0924  13.1506  13.1756  13.2211
    13.4735  13.5786  13.6699  13.8865  13.9216

     occupation numbers 
     1.0000   1.0000   1.0000   1.0000   1.0000   1.0000   1.0000   1.0000
     1.0000   1.0000   1.0000   1.0000   1.0000   1.0000   1.0000   1.0000
     1.0000   1.0000   1.0000   1.0000   1.0000   1.0000   1.0000   1.0000
     1.0000   1.0000   1.0000   1.0000   1.0000   1.0000   1.0000   1.0000
     1.0000   1.0000   1.0000   1.0000   1.0000   1.0000   1.0000   1.0000
     1.0000   1.0000   1.0000   1.0000   1.0000   1.0000   1.0000   1.0000
     1.0000   1.0000   1.0000   1.0000   1.0000   1.0000   1.0000   1.0000
     1.0000   1.0000   1.0000   1.0000   1.0000   1.0000   1.0000   1.0000
     1.0000   1.0000   1.0000   1.0000   1.0000   1.0000   1.0000   1.0000
     1.0000   1.0000   1.0000   1.0000   1.0000   1.0000   1.0000   1.0000
     1.0000   1.0000   1.0000   1.0000   1.0000   1.0000   1.0000   1.0000
     1.0000   1.0000   1.0000   1.0000   1.0000   1.0000   1.0000   1.0000
     1.0000   1.0000   1.0000   1.0000   1.0000   1.0000   1.0000   1.0000
     1.0000   1.0000   1.0000   1.0000   1.0000   1.0000   1.0000   1.0000
     1.0000   1.0000   1.0000   1.0000   1.0000   1.0000   1.0000   1.0000
     1.0000   1.0000   1.0000   1.0000   1.0000   1.0000   1.0000   1.0000
     1.0000   1.0000   1.0000   1.0000   1.0000   0.0000   0.0000   0.0000
     0.0000   0.0000   0.0000   0.0000   0.0000   0.0000   0.0000   0.0000
     0.0000   0.0000   0.0000   0.0000   0.0000   0.0000   0.0000   0.0000
     0.0000   0.0000   0.0000   0.0000   0.0000

          k = 0.3333 0.0000 0.2333 ( 49570 PWs)   bands (ev):

   -81.6022 -67.9835 -67.9530 -67.7759 -67.6273 -67.4686 -48.6101 -47.2884
   -47.0961 -34.7639 -34.7468 -34.7373 -34.7255 -34.7213 -34.7005 -34.5541
   -34.5437 -34.5235 -34.3994 -34.3921 -34.3836 -34.2449 -34.2303 -34.2242
   -23.5872 -23.5738 -15.0653 -15.0549 -14.5121 -14.4908 -14.0904 -14.0790
   -13.5134 -13.4111 -13.3627 -13.3243 -13.2460 -13.1929 -13.1387 -13.1166
   -12.9995 -12.9238 -12.8415 -12.8110 -12.7231 -12.6688 -12.4790 -12.4117
   -11.8139 -11.6359  -7.1303  -7.1098  -7.0573  -7.0517  -7.0474  -7.0440
    -3.9840  -3.9259  -2.7693  -2.7077  -2.0732  -1.9840  -1.6656  -1.5245
    -1.1419  -1.1090  -1.0113  -0.9882  -0.6466  -0.5585  -0.5123  -0.4813
    -0.2822  -0.1925  -0.0466   0.0506   0.2074   0.2947   0.3663   0.4966
     0.5402   0.7379   0.8258   0.8691   1.0084   1.1588   1.2044   1.2710
     1.3540   1.4381   1.4820   1.6988   1.7729   1.9206   1.9404   2.0690
     2.1047   2.1210   2.2044   2.2988   2.3704   2.4153   2.4623   2.4750
     2.5601   2.6037   2.6985   2.7309   2.7361   2.8421   2.8544   2.9071
     2.9650   3.0193   3.0634   3.1352   3.1988   3.2147   3.2478   3.3182
     3.3461   3.3586   3.3971   3.4436   3.5250   3.6142   3.6861   3.9065
     4.9516   4.9959   5.9507   6.3985   6.6181  10.0368  10.2465  11.0699
    11.4597  11.5154  11.6684  11.8211  12.1668  12.2262  12.3352  12.4315
    12.8549  12.9047  12.9482  13.0155  13.0642  13.1365  13.1626  13.2722
    13.3598  13.4210  13.5394  13.9282  13.9432

     occupation numbers 
     1.0000   1.0000   1.0000   1.0000   1.0000   1.0000   1.0000   1.0000
     1.0000   1.0000   1.0000   1.0000   1.0000   1.0000   1.0000   1.0000
     1.0000   1.0000   1.0000   1.0000   1.0000   1.0000   1.0000   1.0000
     1.0000   1.0000   1.0000   1.0000   1.0000   1.0000   1.0000   1.0000
     1.0000   1.0000   1.0000   1.0000   1.0000   1.0000   1.0000   1.0000
     1.0000   1.0000   1.0000   1.0000   1.0000   1.0000   1.0000   1.0000
     1.0000   1.0000   1.0000   1.0000   1.0000   1.0000   1.0000   1.0000
     1.0000   1.0000   1.0000   1.0000   1.0000   1.0000   1.0000   1.0000
     1.0000   1.0000   1.0000   1.0000   1.0000   1.0000   1.0000   1.0000
     1.0000   1.0000   1.0000   1.0000   1.0000   1.0000   1.0000   1.0000
     1.0000   1.0000   1.0000   1.0000   1.0000   1.0000   1.0000   1.0000
     1.0000   1.0000   1.0000   1.0000   1.0000   1.0000   1.0000   1.0000
     1.0000   1.0000   1.0000   1.0000   1.0000   1.0000   1.0000   1.0000
     1.0000   1.0000   1.0000   1.0000   1.0000   1.0000   1.0000   1.0000
     1.0000   1.0000   1.0000   1.0000   1.0000   1.0000   1.0000   1.0000
     1.0000   1.0000   1.0000   1.0000   1.0000   1.0000   1.0000   1.0000
     1.0000   1.0000   1.0000   1.0000   1.0000   0.0000   0.0000   0.0000
     0.0000   0.0000   0.0000   0.0000   0.0000   0.0000   0.0000   0.0000
     0.0000   0.0000   0.0000   0.0000   0.0000   0.0000   0.0000   0.0000
     0.0000   0.0000   0.0000   0.0000   0.0000

          k = 0.3333 0.0000-0.1111 ( 49584 PWs)   bands (ev):

   -81.6022 -67.9835 -67.9530 -67.7759 -67.6273 -67.4686 -48.6101 -47.2884
   -47.0962 -34.7639 -34.7468 -34.7373 -34.7255 -34.7213 -34.7005 -34.5541
   -34.5438 -34.5235 -34.3994 -34.3921 -34.3836 -34.2449 -34.2303 -34.2242
   -23.5872 -23.5738 -15.0743 -15.0455 -14.5066 -14.4966 -14.0925 -14.0767
   -13.5167 -13.4042 -13.3646 -13.3267 -13.2464 -13.1932 -13.1395 -13.1144
   -12.9997 -12.9229 -12.8403 -12.8145 -12.7193 -12.6712 -12.4802 -12.4101
   -11.8142 -11.6355  -7.1303  -7.1098  -7.0573  -7.0517  -7.0473  -7.0440
    -3.9610  -3.9494  -2.7787  -2.6973  -2.0833  -1.9702  -1.6786  -1.5289
    -1.1333  -1.1038  -1.0108  -0.9839  -0.6736  -0.5412  -0.5243  -0.4424
    -0.3130  -0.1872  -0.0321   0.0458   0.2181   0.2884   0.4132   0.4715
     0.5140   0.7377   0.8133   0.9134   1.0349   1.1396   1.1818   1.2793
     1.3456   1.3701   1.5357   1.6517   1.7306   1.9078   1.9725   2.0452
     2.0773   2.1491   2.2490   2.2873   2.3817   2.4145   2.4705   2.5102
     2.5732   2.6363   2.6656   2.7353   2.7930   2.8346   2.8433   2.9238
     2.9810   3.0205   3.0277   3.1279   3.1879   3.2152   3.2540   3.2746
     3.3494   3.3578   3.3835   3.4214   3.5451   3.6319   3.6773   3.9077
     4.9491   4.9995   5.9511   6.3985   6.6208   9.7580  10.6134  11.1299
    11.3786  11.5783  11.7215  11.8586  12.1559  12.2249  12.3323  12.4566
    12.6772  12.6908  12.9256  12.9454  13.0676  13.1441  13.1583  13.1958
    13.4878  13.5432  13.6858  13.7629  13.9345

     occupation numbers 
     1.0000   1.0000   1.0000   1.0000   1.0000   1.0000   1.0000   1.0000
     1.0000   1.0000   1.0000   1.0000   1.0000   1.0000   1.0000   1.0000
     1.0000   1.0000   1.0000   1.0000   1.0000   1.0000   1.0000   1.0000
     1.0000   1.0000   1.0000   1.0000   1.0000   1.0000   1.0000   1.0000
     1.0000   1.0000   1.0000   1.0000   1.0000   1.0000   1.0000   1.0000
     1.0000   1.0000   1.0000   1.0000   1.0000   1.0000   1.0000   1.0000
     1.0000   1.0000   1.0000   1.0000   1.0000   1.0000   1.0000   1.0000
     1.0000   1.0000   1.0000   1.0000   1.0000   1.0000   1.0000   1.0000
     1.0000   1.0000   1.0000   1.0000   1.0000   1.0000   1.0000   1.0000
     1.0000   1.0000   1.0000   1.0000   1.0000   1.0000   1.0000   1.0000
     1.0000   1.0000   1.0000   1.0000   1.0000   1.0000   1.0000   1.0000
     1.0000   1.0000   1.0000   1.0000   1.0000   1.0000   1.0000   1.0000
     1.0000   1.0000   1.0000   1.0000   1.0000   1.0000   1.0000   1.0000
     1.0000   1.0000   1.0000   1.0000   1.0000   1.0000   1.0000   1.0000
     1.0000   1.0000   1.0000   1.0000   1.0000   1.0000   1.0000   1.0000
     1.0000   1.0000   1.0000   1.0000   1.0000   1.0000   1.0000   1.0000
     1.0000   1.0000   1.0000   1.0000   1.0000   0.0000   0.0000   0.0000
     0.0000   0.0000   0.0000   0.0000   0.0000   0.0000   0.0000   0.0000
     0.0000   0.0000   0.0000   0.0000   0.0000   0.0000   0.0000   0.0000
     0.0000   0.0000   0.0000   0.0000   0.0000

          k = 0.3333 0.1920 0.0611 ( 49594 PWs)   bands (ev):

   -81.6022 -67.9835 -67.9530 -67.7759 -67.6273 -67.4686 -48.6101 -47.2884
   -47.0962 -34.7639 -34.7468 -34.7373 -34.7255 -34.7213 -34.7005 -34.5541
   -34.5437 -34.5235 -34.3994 -34.3921 -34.3836 -34.2449 -34.2303 -34.2242
   -23.5872 -23.5738 -15.0740 -15.0378 -14.5265 -14.5001 -14.0922 -14.0704
   -13.4836 -13.4262 -13.3346 -13.2919 -13.2496 -13.2041 -13.1734 -13.1481
   -13.0070 -12.9157 -12.8425 -12.7915 -12.7306 -12.6681 -12.4835 -12.4055
   -11.8143 -11.6350  -7.1304  -7.1103  -7.0568  -7.0516  -7.0473  -7.0444
    -3.9579  -3.9031  -2.8945  -2.8129  -2.0086  -1.8391  -1.6388  -1.5459
    -1.1557  -1.1174  -1.0191  -0.9514  -0.6684  -0.5317  -0.4863  -0.3791
    -0.3018  -0.2023  -0.0705   0.0722   0.2030   0.2759   0.3400   0.3919
     0.5421   0.6562   0.8406   0.9545   1.0329   1.1517   1.2297   1.2555
     1.2990   1.3876   1.4930   1.5661   1.7847   1.9187   2.0565   2.0667
     2.1196   2.1749   2.2346   2.2627   2.3202   2.4250   2.4857   2.5220
     2.5872   2.6289   2.6826   2.7291   2.8059   2.8339   2.8775   2.9500
     2.9777   3.0133   3.0447   3.1094   3.1390   3.1878   3.2285   3.2837
     3.3101   3.3530   3.4471   3.4583   3.5192   3.6230   3.6979   3.8422
     4.9537   4.9865   5.9584   6.3735   6.6328   9.9766  10.5999  10.8836
    11.3143  11.4312  11.6032  11.9929  12.0753  12.2030  12.3750  12.6372
    12.7108  12.8249  12.8486  12.9172  13.0404  13.1716  13.2043  13.3549
    13.5051  13.6488  13.7498  13.8309  13.9593

     occupation numbers 
     1.0000   1.0000   1.0000   1.0000   1.0000   1.0000   1.0000   1.0000
     1.0000   1.0000   1.0000   1.0000   1.0000   1.0000   1.0000   1.0000
     1.0000   1.0000   1.0000   1.0000   1.0000   1.0000   1.0000   1.0000
     1.0000   1.0000   1.0000   1.0000   1.0000   1.0000   1.0000   1.0000
     1.0000   1.0000   1.0000   1.0000   1.0000   1.0000   1.0000   1.0000
     1.0000   1.0000   1.0000   1.0000   1.0000   1.0000   1.0000   1.0000
     1.0000   1.0000   1.0000   1.0000   1.0000   1.0000   1.0000   1.0000
     1.0000   1.0000   1.0000   1.0000   1.0000   1.0000   1.0000   1.0000
     1.0000   1.0000   1.0000   1.0000   1.0000   1.0000   1.0000   1.0000
     1.0000   1.0000   1.0000   1.0000   1.0000   1.0000   1.0000   1.0000
     1.0000   1.0000   1.0000   1.0000   1.0000   1.0000   1.0000   1.0000
     1.0000   1.0000   1.0000   1.0000   1.0000   1.0000   1.0000   1.0000
     1.0000   1.0000   1.0000   1.0000   1.0000   1.0000   1.0000   1.0000
     1.0000   1.0000   1.0000   1.0000   1.0000   1.0000   1.0000   1.0000
     1.0000   1.0000   1.0000   1.0000   1.0000   1.0000   1.0000   1.0000
     1.0000   1.0000   1.0000   1.0000   1.0000   1.0000   1.0000   1.0000
     1.0000   1.0000   1.0000   1.0000   1.0000   0.0000   0.0000   0.0000
[...]
     atom   18 type  6   force =    -0.00005167    0.00017535   -0.00698932
     atom   19 type  6   force =     0.00005116    0.00017536    0.00698934
     atom   20 type  6   force =     0.00005098   -0.00011059    0.00676780
     atom   21 type  6   force =    -0.00005098   -0.00011059   -0.00676781
     atom   22 type  6   force =     0.00145108    0.00003550   -0.00259139
     atom   23 type  6   force =    -0.00145142    0.00003549    0.00259145
     atom   24 type  6   force =     0.00450343   -0.00165083   -0.00575636
     atom   25 type  6   force =    -0.00450343   -0.00165083    0.00575637
     atom   26 type  6   force =    -0.00318586    0.00067737   -0.00729134
     atom   27 type  6   force =     0.00318526    0.00067735    0.00729141
     atom   28 type  6   force =    -0.00140295    0.00202203    0.00728436
     atom   29 type  6   force =     0.00140295    0.00202203   -0.00728435
     atom   30 type  6   force =     0.00072254   -0.00183184   -0.00745954
     atom   31 type  6   force =    -0.00072253   -0.00183183    0.00745955
     atom   32 type  6   force =    -0.00223205   -0.00339580   -0.00639755
     atom   33 type  6   force =     0.00223155   -0.00339582    0.00639761
     atom   34 type  6   force =     0.00101533    0.00413878    0.00621603
     atom   35 type  6   force =    -0.00101534    0.00413878   -0.00621604
     atom   36 type  6   force =     0.00018874    0.00269798    0.01083112
     atom   37 type  6   force =    -0.00018875    0.00269798   -0.01083112
     atom   38 type  6   force =     0.00017886   -0.00133061    0.01107255
     atom   39 type  6   force =    -0.00017920   -0.00133086   -0.01107332
     atom   40 type  3   force =     0.00000000    0.00000000    0.00000000
     atom   41 type  3   force =     0.00000000    0.00000000    0.00000000
     atom   42 type  3   force =     0.00000000    0.00000000    0.00000000
     atom   43 type  3   force =     0.00000000    0.00000000    0.00000000
     atom   44 type  2   force =     0.00000000    0.00345862    0.00000000
     The Hubbard contrib.    to forces
     atom    1 type  4   force =     0.00000000    0.00000000    0.00000000
     atom    2 type  4   force =     0.00000000    0.00000000    0.00000000
     atom    3 type  5   force =     0.00000000    0.00000000    0.00000000
     atom    4 type  5   force =     0.00000000    0.00000000    0.00000000
     atom    5 type  5   force =     0.00000000    0.00000000    0.00000000
     atom    6 type  5   force =     0.00000000    0.00000000    0.00000000
     atom    7 type  5   force =     0.00000000    0.00000000    0.00000000
     atom    8 type  7   force =     0.00000000    0.00000000    0.00000000
     atom    9 type  7   force =     0.00000000    0.00000000    0.00000000
     atom   10 type  7   force =     0.00000000    0.00000000    0.00000000
     atom   11 type  7   force =     0.00000000    0.00000000    0.00000000
     atom   12 type  7   force =     0.00000000    0.00000000    0.00000000
     atom   13 type  7   force =     0.00000000    0.00000000    0.00000000
     atom   14 type  1   force =     0.00000000    0.00000000    0.00000000
     atom   15 type  1   force =     0.00000000    0.00000000    0.00000000
     atom   16 type  6   force =     0.00000000    0.00000000    0.00000000
     atom   17 type  6   force =     0.00000000    0.00000000    0.00000000
     atom   18 type  6   force =     0.00000000    0.00000000    0.00000000
     atom   19 type  6   force =     0.00000000    0.00000000    0.00000000
     atom   20 type  6   force =     0.00000000    0.00000000    0.00000000
     atom   21 type  6   force =     0.00000000    0.00000000    0.00000000
     atom   22 type  6   force =     0.00000000    0.00000000    0.00000000
     atom   23 type  6   force =     0.00000000    0.00000000    0.00000000
     atom   24 type  6   force =     0.00000000    0.00000000    0.00000000
     atom   25 type  6   force =     0.00000000    0.00000000    0.00000000
     atom   26 type  6   force =     0.00000000    0.00000000    0.00000000
     atom   27 type  6   force =     0.00000000    0.00000000    0.00000000
     atom   28 type  6   force =     0.00000000    0.00000000    0.00000000
     atom   29 type  6   force =     0.00000000    0.00000000    0.00000000
     atom   30 type  6   force =     0.00000000    0.00000000    0.00000000
     atom   31 type  6   force =     0.00000000    0.00000000    0.00000000
     atom   32 type  6   force =     0.00000000    0.00000000    0.00000000
     atom   33 type  6   force =     0.00000000    0.00000000    0.00000000
     atom   34 type  6   force =     0.00000000    0.00000000    0.00000000
     atom   35 type  6   force =     0.00000000    0.00000000    0.00000000
     atom   36 type  6   force =     0.00000000    0.00000000    0.00000000
     atom   37 type  6   force =     0.00000000    0.00000000    0.00000000
     atom   38 type  6   force =     0.00000000    0.00000000    0.00000000
     atom   39 type  6   force =     0.00000000    0.00000000    0.00000000
     atom   40 type  3   force =     0.00000000    0.00000000    0.00000000
     atom   41 type  3   force =     0.00000000    0.00000000    0.00000000
     atom   42 type  3   force =     0.00000000    0.00000000    0.00000000
     atom   43 type  3   force =     0.00000000    0.00000000    0.00000000
     atom   44 type  2   force =     0.00000000    0.00000000    0.00000000
     The SCF correction term to forces
     atom    1 type  4   force =     0.00000000   -0.00000128   -0.00000000
     atom    2 type  4   force =    -0.00000000   -0.00000085    0.00000000
     atom    3 type  5   force =    -0.00000000    0.00000744   -0.00000000
     atom    4 type  5   force =    -0.00000000   -0.00000281    0.00000000
     atom    5 type  5   force =     0.00000000   -0.00000441    0.00000000
     atom    6 type  5   force =    -0.00000000    0.00000122   -0.00000000
     atom    7 type  5   force =     0.00000000   -0.00000006   -0.00000000
     atom    8 type  7   force =    -0.00000036   -0.00000019    0.00000025
     atom    9 type  7   force =     0.00000036   -0.00000019   -0.00000025
     atom   10 type  7   force =    -0.00000001    0.00000099   -0.00000033
     atom   11 type  7   force =     0.00000001    0.00000099    0.00000033
     atom   12 type  7   force =     0.00000023    0.00000042    0.00000025
     atom   13 type  7   force =    -0.00000023    0.00000042   -0.00000025
     atom   14 type  1   force =     0.00000008   -0.00000053   -0.00000064
     atom   15 type  1   force =    -0.00000008   -0.00000053    0.00000064
     atom   16 type  6   force =    -0.00000278   -0.00000602    0.00000515
     atom   17 type  6   force =     0.00000278   -0.00000602   -0.00000515
     atom   18 type  6   force =    -0.00000035    0.00000156    0.00000071
     atom   19 type  6   force =     0.00000035    0.00000156   -0.00000071
     atom   20 type  6   force =     0.00000180    0.00000099    0.00000019
     atom   21 type  6   force =    -0.00000180    0.00000099   -0.00000019
     atom   22 type  6   force =     0.00000024   -0.00000105   -0.00000439
     atom   23 type  6   force =    -0.00000024   -0.00000105    0.00000439
     atom   24 type  6   force =    -0.00000047    0.00000125   -0.00000024
     atom   25 type  6   force =     0.00000047    0.00000125    0.00000024
     atom   26 type  6   force =     0.00000046    0.00000464   -0.00000075
     atom   27 type  6   force =    -0.00000046    0.00000464    0.00000075
     atom   28 type  6   force =    -0.00000829    0.00000704    0.00000150
     atom   29 type  6   force =     0.00000829    0.00000704   -0.00000150
     atom   30 type  6   force =    -0.00000030   -0.00000062    0.00000138
     atom   31 type  6   force =     0.00000030   -0.00000062   -0.00000138
     atom   32 type  6   force =    -0.00000230   -0.00000097    0.00000140
     atom   33 type  6   force =     0.00000230   -0.00000097   -0.00000140
     atom   34 type  6   force =     0.00000014   -0.00000373   -0.00000109
     atom   35 type  6   force =    -0.00000014   -0.00000373    0.00000109
     atom   36 type  6   force =     0.00000103   -0.00000280    0.00000128
     atom   37 type  6   force =    -0.00000103   -0.00000280   -0.00000128
     atom   38 type  6   force =     0.00000159    0.00000035    0.00000137
     atom   39 type  6   force =    -0.00000159    0.00000035   -0.00000137
     atom   40 type  3   force =     0.00000008   -0.00000016    0.00000072
     atom   41 type  3   force =    -0.00000008   -0.00000016   -0.00000072
     atom   42 type  3   force =     0.00000013    0.00000008    0.00000003
     atom   43 type  3   force =    -0.00000013    0.00000008   -0.00000003
     atom   44 type  2   force =    -0.00000000   -0.00000043   -0.00000000

     DFT-D3 dispersion contribution to forces:
     atom    1 type  4   force =    -0.00000002    0.00124622   -0.00000000
     atom    2 type  4   force =    -0.00000000   -0.00089032   -0.00000000
     atom    3 type  5   force =    -0.00000000    0.00045865   -0.00000001
     atom    4 type  5   force =     0.00000000   -0.00129259    0.00000001
     atom    5 type  5   force =    -0.00000000   -0.00049544   -0.00000001
     atom    6 type  5   force =     0.00000000    0.00112035    0.00000000
     atom    7 type  5   force =     0.00000000   -0.00032560    0.00000000
     atom    8 type  7   force =    -0.00003132   -0.00004968   -0.00008525
     atom    9 type  7   force =     0.00003132   -0.00004967    0.00008525
     atom   10 type  7   force =     0.00003509    0.00001842    0.00021989
     atom   11 type  7   force =    -0.00003510    0.00001842   -0.00021989
     atom   12 type  7   force =     0.00002762    0.00025738   -0.00021552
     atom   13 type  7   force =    -0.00002762    0.00025738    0.00021552
     atom   14 type  1   force =    -0.00017507    0.00005604   -0.00098333
     atom   15 type  1   force =     0.00017507    0.00005604    0.00098333
     atom   16 type  6   force =    -0.00005492    0.00012843    0.00051193
     atom   17 type  6   force =     0.00005492    0.00012843   -0.00051192
     atom   18 type  6   force =     0.00000637    0.00000237   -0.00040929
     atom   19 type  6   force =    -0.00000636    0.00000237    0.00040930
     atom   20 type  6   force =    -0.00002325   -0.00000047    0.00041511
     atom   21 type  6   force =     0.00002324   -0.00000047   -0.00041511
     atom   22 type  6   force =    -0.00007319   -0.00001676    0.00001584
     atom   23 type  6   force =     0.00007319   -0.00001675   -0.00001583
     atom   24 type  6   force =    -0.00019398    0.00102596    0.00030180
     atom   25 type  6   force =     0.00019397    0.00102596   -0.00030180
     atom   26 type  6   force =     0.00085637    0.00006920    0.00021805
     atom   27 type  6   force =    -0.00085636    0.00006920   -0.00021805
     atom   28 type  6   force =     0.00031199   -0.00044913    0.00004570
     atom   29 type  6   force =    -0.00031199   -0.00044913   -0.00004569
     atom   30 type  6   force =    -0.00013126    0.00021512   -0.00010229
     atom   31 type  6   force =     0.00013126    0.00021512    0.00010228
     atom   32 type  6   force =     0.00094235   -0.00042925    0.00039310
     atom   33 type  6   force =    -0.00094234   -0.00042925   -0.00039310
     atom   34 type  6   force =     0.00069913   -0.00060048   -0.00045078
     atom   35 type  6   force =    -0.00069913   -0.00060048    0.00045078
     atom   36 type  6   force =    -0.00011004   -0.00017115   -0.00035763
     atom   37 type  6   force =     0.00011004   -0.00017115    0.00035763
     atom   38 type  6   force =     0.00001746   -0.00000227   -0.00051591
     atom   39 type  6   force =    -0.00001747   -0.00000227    0.00051590
     atom   40 type  3   force =    -0.00010119    0.00012173   -0.00009947
     atom   41 type  3   force =     0.00010120    0.00012173    0.00009947
     atom   42 type  3   force =     0.00009634   -0.00041940   -0.00031150
     atom   43 type  3   force =    -0.00009633   -0.00041940    0.00031150
     atom   44 type  2   force =     0.00000000    0.00066662    0.00000000

     Total force =     0.000333     Total SCF correction =     0.000026

     DFT-D3 dispersion Force =     0.004542
     Energy error            =      2.6E-07 Ry
     Gradient error          =      8.7E-05 Ry/Bohr

     bfgs converged in  42 scf cycles and  41 bfgs steps
     (criteria: energy <  1.0E-05 Ry, force <  1.0E-04 Ry/Bohr)

     End of BFGS Geometry Optimization

     Final energy             =   -2631.3182275291 Ry

     File ./temp/phl-fe1-fe2.bfgs deleted, as requested
Begin final coordinates

ATOMIC_POSITIONS (crystal)
K                0.0000000000        0.4891907778        0.0000000000
K                0.5000000000        0.0064671477        0.0000000000
Mg              -0.0000000000        0.0062705012        0.5000000000
Mg              -0.0000000000        0.6671851532        0.5000000000
Mg               0.5000000000        0.4957974622        0.5000000000
Mg               0.5000000000        0.8354644996        0.5000000000
Mg               0.5000000000        0.1704844440        0.5000000000
Si               0.0897602093        0.1632981197        0.2267000282
Si               0.9102397767        0.1632981197        0.7732999718
Si               0.9343776252        0.8341749800        0.7657417278
Si               0.0656213458        0.8341749800        0.2342582572
Si               0.5650483177        0.6666955268        0.2328105468
Si               0.4349516533        0.6666955268        0.7671894682
Al               0.4088154828        0.3306803727        0.7702642066
Al               0.5911835042        0.3306803727        0.2297358084
O                0.1360744967        0.1578104697        0.3845507537
O                0.8639244903        0.1578104697        0.6154492753
O                0.8747685907        0.8345664860        0.6087093633
O                0.1252304113        0.8345664860        0.3912906667
O                0.6266340836        0.6698206640        0.3906060516
O                0.3733659164        0.6698206640        0.6093939194
O                0.3600885675        0.3331581789        0.6009570550
O                0.6399104195        0.3331581789        0.3990429450
O                0.3467188358        0.2050696363        0.1705846669
O                0.6532811642        0.2050696363        0.8294153481
O                1.0051296672        0.9963796750        0.1715386254
O               -0.0051306782        0.9963796750        0.8284613746
O                0.6874227059        0.7700625485        0.8238397412
O                0.3125772941        0.7700625485        0.1761602738
O                0.8107744856        0.7366470817        0.1750602231
O                0.1892255444        0.7366470817        0.8249397919
O                0.5074436004        0.5074288446        0.1698756120
O                0.4925554156        0.5074288446        0.8301244020
O                0.1386076025        0.2742729459        0.8333481684
O                0.8613923825        0.2742729459        0.1666518166
O                0.1364448983        0.5114983751        0.3943639679
O                0.8635550867        0.5114983751        0.6056360321
O                0.6343782079        0.9995906987        0.4001631491
O                0.3656217921        0.9995906987        0.5998378639
H                0.1052455202        0.4928241601        0.3022798429
H                0.8947535038        0.4928241601        0.6977201571
H                0.5957533538        0.0128850557        0.3073445004
H                0.4042456332        0.0128850557        0.6926554996
Fe              -0.0000000000        0.3353985884        0.5000000000
End final coordinates



     Writing all to output data dir ./temp/phl-fe1-fe2.save/ :
     XML data file, charge density, pseudopotentials, collected wavefunctions

     init_run     :    220.61s CPU    222.11s WALL (       1 calls)
     electrons    : 121170.27s CPU 121764.50s WALL (      15 calls)
     update_pot   :     27.43s CPU     28.24s WALL (      14 calls)
     forces       :   2562.04s CPU   2574.53s WALL (      15 calls)
     force_dftd3  :     26.81s CPU     26.98s WALL (      15 calls)

     Called by init_run:
     wfcinit      :    213.75s CPU    214.89s WALL (       1 calls)
     wfcinit:atom :      0.15s CPU      0.15s WALL (      20 calls)
     wfcinit:wfcr :    212.04s CPU    213.15s WALL (      20 calls)
     potinit      :      1.83s CPU      1.91s WALL (       1 calls)
     hinit0       :      1.22s CPU      1.25s WALL (       1 calls)

     Called by electrons:
     c_bands      : 112972.46s CPU 113411.96s WALL (     125 calls)
     sum_band     :   7600.69s CPU   7704.35s WALL (     125 calls)
     v_of_rho     :     95.08s CPU     99.56s WALL (     125 calls)
     v_h          :      3.57s CPU      3.74s WALL (     125 calls)
     v_xc         :    102.29s CPU    107.36s WALL (     140 calls)
     newd         :    418.62s CPU    471.52s WALL (     125 calls)
     PAW_pot      :    127.57s CPU    127.64s WALL (     139 calls)
     mix_rho      :      8.52s CPU      8.88s WALL (     125 calls)
     energy_dftd3 :     21.97s CPU     21.98s WALL (      15 calls)

     Called by c_bands:
     init_us_2    :    225.40s CPU    225.63s WALL (    5600 calls)
     cegterg      : 110840.84s CPU 111279.23s WALL (    2520 calls)

     Called by sum_band:
     sum_band:wei :      0.13s CPU      0.13s WALL (     125 calls)
     sum_band:loo :   6785.67s CPU   6826.57s WALL (     125 calls)
     sum_band:buf :     29.63s CPU     29.66s WALL (    2500 calls)
     sum_band:ini :     88.66s CPU     88.71s WALL (    2500 calls)
     sum_band:cal :   5423.46s CPU   5427.24s WALL (    2780 calls)
     sum_band:bec :      5.81s CPU      5.82s WALL (    2780 calls)
     addusdens    :    757.89s CPU    818.98s WALL (     125 calls)
                                        0.00s GPU  (     125 calls)
     addusd:skk   :      2.15s CPU      3.26s WALL (     875 calls)
                                        0.00s GPU  (     875 calls)

     Called by *egterg:
     cdiaghg      :   1676.95s CPU   1694.20s WALL (   19543 calls)
     cegterg:over :  16686.03s CPU  16692.98s WALL (   17623 calls)
     cegterg:upda :   9099.31s CPU   9118.92s WALL (   17623 calls)
     cegterg:last :  23303.95s CPU  23314.14s WALL (    7731 calls)
     cdiaghg:chol :     30.01s CPU     30.09s WALL (   19543 calls)
     cdiaghg:inve :     30.67s CPU     30.72s WALL (   19543 calls)
     cdiaghg:para :    775.34s CPU    784.32s WALL (   39086 calls)
     h_psi        :  41927.39s CPU  42237.96s WALL (   20163 calls)
     s_psi        :  14268.47s CPU  14272.83s WALL (   20163 calls)
     g_psi        :     68.67s CPU     68.74s WALL (   17623 calls)

     Called by h_psi:
     h_psi:calbec :  16302.99s CPU  16312.89s WALL (   20163 calls)
     vloc_psi     :   9035.28s CPU   9296.01s WALL (   20163 calls)
     add_vuspsi   :  16543.01s CPU  16548.39s WALL (   20163 calls)

     General routines
     calbec       :  24057.24s CPU  24073.92s WALL (   24143 calls)
     fft          :     70.79s CPU     76.04s WALL (    3364 calls)
     ffts         :      2.62s CPU      2.85s WALL (     500 calls)
     fftw         :   7977.13s CPU   8218.92s WALL ( 3070878 calls)
     interpolate  :      7.94s CPU      8.46s WALL (     250 calls)

     Parallel routines

     PAW routines
     PAW_pot      :    127.57s CPU    127.64s WALL (     139 calls)
     PAW_symme    :      0.13s CPU      0.13s WALL (     263 calls)

     PWSCF        :   1d10h36m CPU   1d10h47m WALL


   This run was terminated on:   5: 3:39  26Dec2025            

=------------------------------------------------------------------------------=
   JOB DONE.
=------------------------------------------------------------------------------=
