
     Program PWSCF v.7.3.1 starts on 30Mar2025 at 20:20:28 

     This program is part of the open-source Quantum ESPRESSO suite
     for quantum simulation of materials; please cite
         "P. Giannozzi et al., J. Phys.:Condens. Matter 21 395502 (2009);
         "P. Giannozzi et al., J. Phys.:Condens. Matter 29 465901 (2017);
         "P. Giannozzi et al., J. Chem. Phys. 152 154105 (2020);
          URL http://www.quantum-espresso.org", 
     in publications or presentations arising from this work. More details at
     http://www.quantum-espresso.org/quote

     Parallel version (MPI), running on     6 processors

     MPI processes distributed on     1 nodes
     1232 MiB available memory on the printing compute node when the environment starts

     Reading input from vc_relax.in

     Current dimensions of program PWSCF are:
     Max number of different atomic species (ntypx) = 10
     Max number of k-points (npk) =  40000
     Max angular momentum in pseudopotentials (lmaxx) =  4
     file Al.pbe-n-kjpaw_psl.1.0.0.UPF: wavefunction(s)  3S 3P renormalized
     file Ti.pbe-spn-kjpaw_psl.1.0.0.UPF: wavefunction(s)  3S 3P 3D renormalized
     file H.pbe-kjpaw_psl.1.0.0.UPF: wavefunction(s)  1S renormalized
     file K.pbe-spn-kjpaw_psl.1.0.0.UPF: wavefunction(s)  3S renormalized
     file Mg.pbe-spnl-kjpaw_psl.1.0.0.UPF: wavefunction(s)  2P renormalized
     file O.pbe-n-kjpaw_psl.1.0.0.UPF: wavefunction(s)  2S 2P renormalized
     file Si.pbe-n-kjpaw_psl.1.0.0.UPF: wavefunction(s)  3S 3P renormalized

     R & G space division:  proc/nbgrp/npool/nimage =       6
     Subspace diagonalization in iterative solution of the eigenvalue problem:
     a serial algorithm will be used


     Parallelization info
     --------------------
     sticks:   dense  smooth     PW     G-vecs:    dense   smooth      PW
     Min        1119     557    150               100894    35666    5065
     Max        1120     558    151               100896    35670    5069
     Sum        6719    3347    905               605369   214013   30407

     Using Slab Decomposition



     bravais-lattice index     =          -12
     lattice parameter (alat)  =      10.0639  a.u.
     unit-cell volume          =    3408.7535 (a.u.)^3
     number of atoms/cell      =           43
     number of atomic types    =            7
     number of electrons       =       248.00
     number of Kohn-Sham states=          149
     kinetic-energy cutoff     =      60.0000  Ry
     charge density cutoff     =     480.0000  Ry
     scf convergence threshold =      1.0E-06
     mixing beta               =       0.7000
     number of iterations used =            8  plain     mixing
     energy convergence thresh.=      1.0E-04
     force convergence thresh. =      1.0E-03
     press convergence thresh. =      5.0E-01
     Exchange-correlation= SLA  PW   PBX  PBC
                           (   1   4   3   4   0   0   0)
     nstep                     =           50


     celldm(1)=  10.063938  celldm(2)=   1.736001  celldm(3)=   1.956921
     celldm(4)=   0.000000  celldm(5)=  -0.175986  celldm(6)=   0.000000

     crystal axes: (cart. coord. in units of alat)
               a(1) = (   1.000000   0.000000   0.000000 )  
               a(2) = (   0.000000   1.736001   0.000000 )  
               a(3) = (  -0.344390   0.000000   1.926379 )  

     reciprocal axes: (cart. coord. in units 2 pi/alat)
               b(1) = (  1.000000 -0.000000  0.178776 )  
               b(2) = (  0.000000  0.576037 -0.000000 )  
               b(3) = (  0.000000  0.000000  0.519109 )  


     PseudoPot. # 1 for Al read from file:
     ./../../../pseudos/Al.pbe-n-kjpaw_psl.1.0.0.UPF
     MD5 check sum: 502b6b27b9c6270cab5dd1084b96fa6d
     Pseudo is Projector augmented-wave + core cor, Zval =  3.0
     Generated using &quot;atomic&quot; code by A. Dal Corso  v.6.3
     Shape of augmentation charge: PSQ
     Using radial grid of 1135 points,  6 beta functions with: 
                l(1) =   0
                l(2) =   0
                l(3) =   1
                l(4) =   1
                l(5) =   2
                l(6) =   2
     Q(r) pseudized with 0 coefficients 


     PseudoPot. # 2 for Ti read from file:
     ./../../../pseudos/Ti.pbe-spn-kjpaw_psl.1.0.0.UPF
     MD5 check sum: 01f69b0d8ba4438b2e03ac6ea4af1c0b
     Pseudo is Projector augmented-wave + core cor, Zval = 12.0
     Generated using &quot;atomic&quot; code by A. Dal Corso  v.6.2.2
     Shape of augmentation charge: PSQ
     Using radial grid of 1177 points,  6 beta functions with: 
                l(1) =   0
                l(2) =   0
                l(3) =   1
                l(4) =   1
                l(5) =   2
                l(6) =   2
     Q(r) pseudized with 0 coefficients 


     PseudoPot. # 3 for H  read from file:
     ./../../../pseudos/H.pbe-kjpaw_psl.1.0.0.UPF
     MD5 check sum: d81a744832360e4a8af0b0b5b123bc2a
     Pseudo is Projector augmented-wave, Zval =  1.0
     Generated using &quot;atomic&quot; code by A. Dal Corso  v.6.3MaX
     Shape of augmentation charge: PSQ
     Using radial grid of  929 points,  2 beta functions with: 
                l(1) =   0
                l(2) =   0
     Q(r) pseudized with 0 coefficients 


     PseudoPot. # 4 for K  read from file:
     ./../../../pseudos/K.pbe-spn-kjpaw_psl.1.0.0.UPF
     MD5 check sum: 34cc42130a09071ebe376fd42eb21491
     Pseudo is Projector augmented-wave + core cor, Zval =  9.0
     Generated using &quot;atomic&quot; code by A. Dal Corso  v.6.2.2
     Shape of augmentation charge: PSQ
     Using radial grid of 1165 points,  6 beta functions with: 
                l(1) =   0
                l(2) =   0
                l(3) =   1
                l(4) =   1
                l(5) =   2
                l(6) =   2
     Q(r) pseudized with 0 coefficients 


     PseudoPot. # 5 for Mg read from file:
     ./../../../pseudos/Mg.pbe-spnl-kjpaw_psl.1.0.0.UPF
     MD5 check sum: fda14e0d92a6a9a5ebed782e5a4b3067
     Pseudo is Projector augmented-wave + core cor, Zval = 10.0
     Generated using &quot;atomic&quot; code by A. Dal Corso  v.6.3
     Shape of augmentation charge: PSQ
     Using radial grid of 1129 points,  4 beta functions with: 
                l(1) =   0
                l(2) =   0
                l(3) =   1
                l(4) =   1
     Q(r) pseudized with 0 coefficients 


     PseudoPot. # 6 for O  read from file:
     ./../../../pseudos/O.pbe-n-kjpaw_psl.1.0.0.UPF
     MD5 check sum: e99d9cef9b487d1ca56f5b95ecd0fd7a
     Pseudo is Projector augmented-wave + core cor, Zval =  6.0
     Generated using &quot;atomic&quot; code by A. Dal Corso  v.6.3
     Shape of augmentation charge: PSQ
     Using radial grid of 1095 points,  4 beta functions with: 
                l(1) =   0
                l(2) =   0
                l(3) =   1
                l(4) =   1
     Q(r) pseudized with 0 coefficients 


     PseudoPot. # 7 for Si read from file:
     ./../../../pseudos/Si.pbe-n-kjpaw_psl.1.0.0.UPF
     MD5 check sum: c39c59da582df4a0d9f10159256ea34e
     Pseudo is Projector augmented-wave + core cor, Zval =  4.0
     Generated using &quot;atomic&quot; code by A. Dal Corso  v.6.3
     Shape of augmentation charge: PSQ
     Using radial grid of 1141 points,  6 beta functions with: 
                l(1) =   0
                l(2) =   0
                l(3) =   1
                l(4) =   1
                l(5) =   2
                l(6) =   2
     Q(r) pseudized with 0 coefficients 


     atomic species   valence    mass     pseudopotential
     Al                3.00    26.98154     Al( 1.00)
     Ti               12.00    47.86700     Ti( 1.00)
     H                 1.00     1.00794     H ( 1.00)
     K                 9.00    39.09830     K ( 1.00)
     Mg               10.00    24.30500     Mg( 1.00)
     O                 6.00    15.99940     O ( 1.00)
     Si                4.00    28.08550     Si( 1.00)

     Starting magnetic structure 
     atomic species   magnetization
     Al              0.000
     Ti              0.300
     H               0.000
     K               0.000
     Mg              0.000
     O               0.000
     Si              0.000

      2 Sym. Ops. (no inversion) found


                                    s                        frac. trans.

      isym =  1     identity                                     

 cryst.   s( 1) = (     1          0          0      )
                  (     0          1          0      )
                  (     0          0          1      )

 cart.    s( 1) = (  1.0000000  0.0000000  0.0000000 )
                  (  0.0000000  1.0000000  0.0000000 )
                  (  0.0000000  0.0000000  1.0000000 )


      isym =  2     180 deg rotation - cart. axis [0,1,0]        

 cryst.   s( 2) = (    -1          0          0      )
                  (     0          1          0      )
                  (     0          0         -1      )

 cart.    s( 2) = ( -1.0000000  0.0000000 -0.0000000 )
                  (  0.0000000  1.0000000  0.0000000 )
                  (  0.0000000  0.0000000 -1.0000000 )


     point group C_2  (2)   
     there are  2 classes
     the character table:

       E     C2   
A      1.00  1.00
B      1.00 -1.00

     the symmetry operations in each class and the name of the first element:

     E        1
          identity                                               
     C2       2
          180 deg rotation - cart. axis [0,1,0]                  

   Cartesian axes

     site n.     atom                  positions (alat units)
         1        K      tau(   1) = (   0.0000000   0.8711162   0.0000000  )
         2        K      tau(   2) = (   0.5000001   0.0056225   0.0000000  )
         3        Mg     tau(   3) = (  -0.1721948   1.7227405   0.9631892  )
         4        Mg     tau(   4) = (  -0.1721948   1.1494829   0.9631892  )
         5        Mg     tau(   5) = (   0.3278053   0.8508145   0.9631892  )
         6        Mg     tau(   6) = (   0.3278053   1.4584761   0.9631892  )
         7        Si     tau(   7) = (   0.0001217   0.2852960   0.4299756  )
         8        Si     tau(   8) = (   0.6554889   0.2852960   1.4964028  )
         9        Si     tau(   9) = (   0.6725625   1.4451555   1.4777825  )
        10        Si     tau(  10) = (  -0.0169519   1.4451555   0.4485958  )
        11        Si     tau(  11) = (   0.4818748   1.1584370   0.4449665  )
        12        Si     tau(  12) = (   0.1737357   1.1584370   1.4814119  )
        13        Al     tau(  13) = (   0.1449243   0.5769557   1.4930787  )
        14        Al     tau(  14) = (   0.5106862   0.5769557   0.4332997  )
        15        O      tau(  15) = (  -0.0335567   0.2953292   0.7393905  )
        16        O      tau(  16) = (   0.6891673   0.2953292   1.1869878  )
        17        O      tau(  17) = (   0.6643067   1.4315943   1.1744416  )
        18        O      tau(  18) = (  -0.0086961   1.4315943   0.7519367  )
        19        O      tau(  19) = (   0.4902265   1.1515936   0.7513099  )
        20        O      tau(  20) = (   0.1653841   1.1515936   1.1750685  )
        21        O      tau(  21) = (   0.1177712   0.5960407   1.1638019  )
        22        O      tau(  22) = (   0.5378394   0.5960407   0.7625764  )
        23        O      tau(  23) = (   0.2785475   0.3651383   0.3409270  )
        24        O      tau(  24) = (   0.3770630   0.3651383   1.5854513  )
        25        O      tau(  25) = (  -0.0459819   1.7292279   0.3326015  )
        26        O      tau(  26) = (   0.7015925   1.7292279   1.5937768  )
        27        O      tau(  27) = (   0.4110355   1.3262492   1.5953626  )
        28        O      tau(  28) = (   0.2445751   1.3262492   0.3310158  )
        29        O      tau(  29) = (   0.7479319   1.2786368   0.3320345  )
        30        O      tau(  30) = (  -0.0923213   1.2786368   1.5943439  )
        31        O      tau(  31) = (   0.4485115   0.8817816   0.3201199  )
        32        O      tau(  32) = (   0.2070990   0.8817816   1.6062585  )
        33        O      tau(  33) = (  -0.1405076   0.4725090   1.6250117  )
        34        O      tau(  34) = (   0.7961182   0.4725090   0.3013666  )
        35        O      tau(  35) = (  -0.0047955   0.8507362   0.7682388  )
        36        O      tau(  36) = (   0.6604061   0.8507362   1.1581395  )
        37        O      tau(  37) = (   0.5174320   1.7013161   0.7486023  )
        38        O      tau(  38) = (   0.1381786   1.7013161   1.1777761  )
        39        H      tau(  39) = (  -0.0240315   0.8421943   0.5875856  )
        40        H      tau(  40) = (   0.6796422   0.8421943   1.3387926  )
        41        H      tau(  41) = (   0.4329435   0.1258914   0.7316062  )
        42        H      tau(  42) = (   0.2226671   0.1258914   1.1947723  )
        43        Ti     tau(  43) = (  -0.1721948   0.5420201   0.9631892  )

     --------------------------------------------
     DFT-D3 Dispersion Correction (3-body terms):
     --------------------------------------------
       Reference C6 values for interpolation: 

         atom   Coordination number   C6
         H          0.912             6.05
         H          0.000            15.18
         O          0.000            31.01
         O          0.993            25.63
         O          1.989            20.74
         Mg         0.000          1366.75
         Mg         0.963           902.54
         Mg         1.950           351.12
         Al         0.000          1081.08
         Al         0.965           875.51
         Al         1.931           513.50
         Al         2.915           307.19
         Si         0.000           635.71
         Si         0.951           540.53
         Si         1.944           466.25
         Si         2.941           443.01
         Si         3.868           299.55
         K          0.000          9967.00
         K          0.977           676.04
         Ti         0.000          2723.84
         Ti         1.830           604.00
         Ti         3.868           643.18

       Values used:

         atom   Coordination number  R0_AB[au]  C6      C8
         K         12.336            4.007    676.04 129074.98
         K         11.919            4.007    676.04 129074.98
         Mg        10.345            3.292    351.12  31436.69
         Mg        11.346            3.292    351.12  31436.69
         Mg        10.631            3.292    351.12  31436.69
         Mg        10.733            3.292    351.12  31436.69
         Si         6.357            3.583    299.55  21425.58
         Si         6.357            3.583    299.55  21425.58
         Si         6.385            3.583    299.55  21425.58
         Si         6.385            3.583    299.55  21425.58
         Si         6.382            3.583    299.55  21425.58
         Si         6.382            3.583    299.55  21425.58
         Al         7.071            3.789    307.19  29441.29
         Al         7.071            3.789    307.19  29441.29
         O          2.976            2.345     20.74    418.58
         O          2.976            2.345     20.74    418.58
         O          3.923            2.345     20.74    418.58
         O          3.923            2.345     20.74    418.58
         O          3.868            2.345     20.74    418.58
         O          3.868            2.345     20.74    418.58
         O          3.017            2.345     20.74    418.58
         O          3.017            2.345     20.74    418.58
         O          3.019            2.345     20.74    418.58
         O          3.019            2.345     20.74    418.58
         O          3.040            2.345     20.74    418.58
         O          3.040            2.345     20.74    418.58
         O          3.006            2.345     20.74    418.58
         O          3.006            2.345     20.74    418.58
         O          3.004            2.345     20.74    418.58
         O          3.004            2.345     20.74    418.58
         O          3.107            2.345     20.74    418.58
         O          3.107            2.345     20.74    418.58
         O          3.196            2.345     20.74    418.58
         O          3.196            2.345     20.74    418.58
         O          3.925            2.345     20.74    418.58
         O          3.925            2.345     20.74    418.58
         O          3.054            2.345     20.74    418.58
         O          3.054            2.345     20.74    418.58
         H          1.216            2.062      6.08     73.50
         H          1.216            2.062      6.08     73.50
         H          1.130            2.062      6.10     73.78
         H          1.130            2.062      6.10     73.78
         Ti         9.877            3.557    643.18  76289.64

         Molecular C6 ( Ry / a.u.^6 ) =    158926.67


   Crystallographic axes

     site n.     atom                  positions (cryst. coord.)
         1        K      tau(   1) = (  0.0000000  0.5017948  0.0000000  )
         2        K      tau(   2) = (  0.5000001  0.0032388  0.0000000  )
         3        Mg     tau(   3) = (  0.0000002  0.9923614  0.4999999  )
         4        Mg     tau(   4) = (  0.0000002  0.6621441  0.4999999  )
         5        Mg     tau(   5) = (  0.5000003  0.4901002  0.4999999  )
         6        Mg     tau(   6) = (  0.5000003  0.8401355  0.4999999  )
         7        Si     tau(   7) = (  0.0769909  0.1643409  0.2232041  )
         8        Si     tau(   8) = (  0.9230097  0.1643409  0.7767957  )
         9        Si     tau(   9) = (  0.9367543  0.8324623  0.7671297  )
        10        Si     tau(  10) = (  0.0632463  0.8324623  0.2328700  )
        11        Si     tau(  11) = (  0.5614241  0.6673020  0.2309860  )
        12        Si     tau(  12) = (  0.4385765  0.6673020  0.7690138  )
        13        Al     tau(  13) = (  0.4118508  0.3323476  0.7750701  )
        14        Al     tau(  14) = (  0.5881498  0.3323476  0.2249297  )
        15        O      tau(  15) = (  0.0986284  0.1701204  0.3838240  )
        16        O      tau(  16) = (  0.9013721  0.1701204  0.6161757  )
        17        O      tau(  17) = (  0.8742686  0.8246506  0.6096628  )
        18        O      tau(  18) = (  0.1257320  0.8246506  0.3903369  )
        19        O      tau(  19) = (  0.6245426  0.6633599  0.3900115  )
        20        O      tau(  20) = (  0.3754580  0.6633599  0.6099883  )
        21        O      tau(  21) = (  0.3258309  0.3433412  0.6041397  )
        22        O      tau(  22) = (  0.6741697  0.3433412  0.3958600  )
        23        O      tau(  23) = (  0.3394971  0.2103330  0.1769782  )
        24        O      tau(  24) = (  0.6605035  0.2103330  0.8230215  )
        25        O      tau(  25) = (  0.0134792  0.9960984  0.1726563  )
        26        O      tau(  26) = (  0.9865214  0.9960984  0.8273434  )
        27        O      tau(  27) = (  0.6962479  0.7639679  0.8281666  )
        28        O      tau(  28) = (  0.3037527  0.7639679  0.1718332  )
        29        O      tau(  29) = (  0.8072916  0.7365415  0.1723620  )
        30        O      tau(  30) = (  0.1927090  0.7365415  0.8276378  )
        31        O      tau(  31) = (  0.5057412  0.5079384  0.1661770  )
        32        O      tau(  32) = (  0.4942593  0.5079384  0.8338227  )
        33        O      tau(  33) = (  0.1500054  0.2721824  0.8435577  )
        34        O      tau(  34) = (  0.8499953  0.2721824  0.1564420  )
        35        O      tau(  35) = (  0.1325471  0.4900551  0.3987994  )
        36        O      tau(  36) = (  0.8674535  0.4900551  0.6012003  )
        37        O      tau(  37) = (  0.6512641  0.9800202  0.3886060  )
        38        O      tau(  38) = (  0.3487366  0.9800202  0.6113938  )
        39        H      tau(  39) = (  0.0810146  0.4851347  0.3050208  )
        40        H      tau(  40) = (  0.9189860  0.4851347  0.6949789  )
        41        H      tau(  41) = (  0.5637370  0.0725180  0.3797831  )
        42        H      tau(  42) = (  0.4362636  0.0725180  0.6202167  )
        43        Ti     tau(  43) = (  0.0000002  0.3122234  0.4999999  )

     number of k points=    20  Gaussian smearing, width (Ry)=  0.0010
                       cart. coord. in units 2pi/alat
        k(    1) = (   0.0000000   0.0000000   0.0000000), wk =   0.0185185
        k(    2) = (   0.0000000   0.0000000   0.1730362), wk =   0.0370370
        k(    3) = (   0.0000000   0.1920122   0.0000000), wk =   0.0370370
        k(    4) = (   0.0000000   0.1920122   0.1730362), wk =   0.0740741
        k(    5) = (   0.1666667   0.0000000   0.0297960), wk =   0.0370370
        k(    6) = (   0.1666667   0.0000000   0.2028322), wk =   0.0370370
        k(    7) = (   0.1666667   0.0000000  -0.1432402), wk =   0.0370370
        k(    8) = (   0.1666667   0.1920122   0.0297960), wk =   0.0740741
        k(    9) = (   0.1666667   0.1920122   0.2028322), wk =   0.0740741
        k(   10) = (   0.1666667   0.1920122  -0.1432402), wk =   0.0740741
        k(   11) = (   0.3333333   0.0000000   0.0595920), wk =   0.0370370
        k(   12) = (   0.3333333   0.0000000   0.2326282), wk =   0.0370370
        k(   13) = (   0.3333333   0.0000000  -0.1134443), wk =   0.0370370
        k(   14) = (   0.3333333   0.1920122   0.0595920), wk =   0.0740741
        k(   15) = (   0.3333333   0.1920122   0.2326282), wk =   0.0740741
        k(   16) = (   0.3333333   0.1920122  -0.1134443), wk =   0.0740741
        k(   17) = (  -0.5000000   0.0000000  -0.0893879), wk =   0.0185185
        k(   18) = (  -0.5000000   0.0000000   0.0836483), wk =   0.0370370
        k(   19) = (  -0.5000000   0.1920122  -0.0893879), wk =   0.0370370
        k(   20) = (  -0.5000000   0.1920122   0.0836483), wk =   0.0740741

                       cryst. coord.
        k(    1) = (   0.0000000   0.0000000   0.0000000), wk =   0.0185185
        k(    2) = (   0.0000000   0.0000000   0.3333333), wk =   0.0370370
        k(    3) = (   0.0000000   0.3333333   0.0000000), wk =   0.0370370
        k(    4) = (   0.0000000   0.3333333   0.3333333), wk =   0.0740741
        k(    5) = (   0.1666667   0.0000000   0.0000000), wk =   0.0370370
        k(    6) = (   0.1666667   0.0000000   0.3333333), wk =   0.0370370
        k(    7) = (   0.1666667   0.0000000  -0.3333333), wk =   0.0370370
        k(    8) = (   0.1666667   0.3333333   0.0000000), wk =   0.0740741
        k(    9) = (   0.1666667   0.3333333   0.3333333), wk =   0.0740741
        k(   10) = (   0.1666667   0.3333333  -0.3333333), wk =   0.0740741
        k(   11) = (   0.3333333   0.0000000   0.0000000), wk =   0.0370370
        k(   12) = (   0.3333333   0.0000000   0.3333333), wk =   0.0370370
        k(   13) = (   0.3333333   0.0000000  -0.3333333), wk =   0.0370370
        k(   14) = (   0.3333333   0.3333333   0.0000000), wk =   0.0740741
        k(   15) = (   0.3333333   0.3333333   0.3333333), wk =   0.0740741
        k(   16) = (   0.3333333   0.3333333  -0.3333333), wk =   0.0740741
        k(   17) = (  -0.5000000   0.0000000   0.0000000), wk =   0.0185185
        k(   18) = (  -0.5000000   0.0000000   0.3333333), wk =   0.0370370
        k(   19) = (  -0.5000000   0.3333333   0.0000000), wk =   0.0370370
        k(   20) = (  -0.5000000   0.3333333   0.3333333), wk =   0.0740741

     Dense  grid:   605369 G-vectors     FFT dimensions: (  72, 125, 144)

     Smooth grid:   214013 G-vectors     FFT dimensions: (  50,  90, 100)

     Dynamical RAM for                 wfc:      10.14 MB

     Dynamical RAM for     wfc (w. buffer):     415.56 MB

     Dynamical RAM for           str. fact:      10.78 MB

     Dynamical RAM for           local pot:       0.00 MB

     Dynamical RAM for          nlocal pot:      29.25 MB

     Dynamical RAM for                qrad:      24.61 MB

     Dynamical RAM for          rho,v,vnew:      19.12 MB

     Dynamical RAM for               rhoin:       6.37 MB

     Dynamical RAM for            rho*nmix:      49.27 MB

     Dynamical RAM for           G-vectors:       6.05 MB

     Dynamical RAM for          h,s,v(r/c):       4.07 MB

     Dynamical RAM for          <psi|beta>:       0.98 MB

     Dynamical RAM for                 psi:      20.27 MB

     Dynamical RAM for                hpsi:      20.27 MB

     Dynamical RAM for                spsi:      20.27 MB

     Dynamical RAM for      wfcinit/wfcrot:      24.94 MB

     Dynamical RAM for           addusdens:     324.84 MB

     Dynamical RAM for          addusforce:     395.85 MB

     Dynamical RAM for         addusstress:     311.76 MB

     Estimated static dynamical RAM per process >     533.94 MB

     Estimated max dynamical RAM per process >     979.06 MB

     Estimated total dynamical RAM >       5.74 GB

     Check: negative core charge=   -0.000003
     Generating pointlists ...
     new r_m :   0.1351 (alat units)  1.3598 (a.u.) for type    1
     new r_m :   0.1471 (alat units)  1.4808 (a.u.) for type    2
     new r_m :   0.0750 (alat units)  0.7550 (a.u.) for type    3
     new r_m :   0.2226 (alat units)  2.2405 (a.u.) for type    4
     new r_m :   0.1549 (alat units)  1.5587 (a.u.) for type    5
     new r_m :   0.0750 (alat units)  0.7550 (a.u.) for type    6
     new r_m :   0.1250 (alat units)  1.2580 (a.u.) for type    7

     Initial potential from superposition of free atoms

     starting charge     247.9492, renormalised to     248.0000
     Starting wfcs are  178 randomized atomic wfcs
     Checking if some PAW data can be deallocated... 
       PAW data deallocated on    5 nodes for type:  1
       PAW data deallocated on    5 nodes for type:  2
       PAW data deallocated on    5 nodes for type:  3
       PAW data deallocated on    5 nodes for type:  4
       PAW data deallocated on    5 nodes for type:  5
       PAW data deallocated on    1 nodes for type:  6
       PAW data deallocated on    4 nodes for type:  7

     total cpu time spent up to now is      351.1 secs

     Self-consistent Calculation

     iteration #  1     ecut=    60.00 Ry     beta= 0.70
     Davidson diagonalization with overlap

---- Real-time Memory Report at c_bands before calling an iterative solver
           589 MiB given to the printing process from OS
             0 MiB allocation reported by mallinfo(arena+hblkhd)
           449 MiB available memory on the node where the printing process lives
------------------
     ethr =  1.00E-02,  avg # of iterations =  5.0

     total cpu time spent up to now is     1356.1 secs

     total energy              =   -2336.25970886 Ry
     estimated scf accuracy    <      13.25567645 Ry

     total magnetization       =     0.00 Bohr mag/cell
     absolute magnetization    =     0.48 Bohr mag/cell

     iteration #  2     ecut=    60.00 Ry     beta= 0.70
     Davidson diagonalization with overlap

---- Real-time Memory Report at c_bands before calling an iterative solver
           896 MiB given to the printing process from OS
             0 MiB allocation reported by mallinfo(arena+hblkhd)
          1991 MiB available memory on the node where the printing process lives
------------------
     ethr =  5.35E-03,  avg # of iterations =  6.2

     total cpu time spent up to now is     2964.9 secs

     total energy              =   -2330.96773044 Ry
     estimated scf accuracy    <      59.47132035 Ry

     total magnetization       =     0.00 Bohr mag/cell
     absolute magnetization    =     0.94 Bohr mag/cell

     iteration #  3     ecut=    60.00 Ry     beta= 0.70
     Davidson diagonalization with overlap

---- Real-time Memory Report at c_bands before calling an iterative solver
           898 MiB given to the printing process from OS
             0 MiB allocation reported by mallinfo(arena+hblkhd)
          1967 MiB available memory on the node where the printing process lives
------------------
     ethr =  5.35E-03,  avg # of iterations =  8.1

     total cpu time spent up to now is     3944.6 secs

     total energy              =   -2342.76357587 Ry
     estimated scf accuracy    <      10.74020803 Ry

     total magnetization       =     0.00 Bohr mag/cell
     absolute magnetization    =     0.26 Bohr mag/cell

     iteration #  4     ecut=    60.00 Ry     beta= 0.70
     Davidson diagonalization with overlap

---- Real-time Memory Report at c_bands before calling an iterative solver
           901 MiB given to the printing process from OS
             0 MiB allocation reported by mallinfo(arena+hblkhd)
          1974 MiB available memory on the node where the printing process lives
------------------
     ethr =  4.33E-03,  avg # of iterations =  2.0

     total cpu time spent up to now is     4872.5 secs

     total energy              =   -2343.55649263 Ry
     estimated scf accuracy    <       2.33944028 Ry

     total magnetization       =    -0.00 Bohr mag/cell
     absolute magnetization    =     0.20 Bohr mag/cell

     iteration #  5     ecut=    60.00 Ry     beta= 0.70
     Davidson diagonalization with overlap

---- Real-time Memory Report at c_bands before calling an iterative solver
           903 MiB given to the printing process from OS
             0 MiB allocation reported by mallinfo(arena+hblkhd)
          1953 MiB available memory on the node where the printing process lives
------------------
     c_bands:  2 eigenvalues not converged
     ethr =  9.43E-04,  avg # of iterations = 12.5

     total cpu time spent up to now is     6239.3 secs

     total energy              =   -2344.16740870 Ry
     estimated scf accuracy    <       0.73329663 Ry

     total magnetization       =    -0.00 Bohr mag/cell
     absolute magnetization    =     0.22 Bohr mag/cell

     iteration #  6     ecut=    60.00 Ry     beta= 0.70
     Davidson diagonalization with overlap

---- Real-time Memory Report at c_bands before calling an iterative solver
           906 MiB given to the printing process from OS
             0 MiB allocation reported by mallinfo(arena+hblkhd)
          1928 MiB available memory on the node where the printing process lives
------------------
     ethr =  2.96E-04,  avg # of iterations = 14.8

     total cpu time spent up to now is     7782.0 secs

     total energy              =   -2344.33849989 Ry
     estimated scf accuracy    <       0.11171261 Ry

     total magnetization       =     0.00 Bohr mag/cell
     absolute magnetization    =     0.13 Bohr mag/cell

     iteration #  7     ecut=    60.00 Ry     beta= 0.70
     Davidson diagonalization with overlap

---- Real-time Memory Report at c_bands before calling an iterative solver
           908 MiB given to the printing process from OS
             0 MiB allocation reported by mallinfo(arena+hblkhd)
          1913 MiB available memory on the node where the printing process lives
------------------
     c_bands:  1 eigenvalues not converged
     c_bands:  1 eigenvalues not converged
     ethr =  4.50E-05,  avg # of iterations = 10.2

     total cpu time spent up to now is     9069.5 secs

     total energy              =   -2344.35886038 Ry
     estimated scf accuracy    <       0.03618715 Ry

     total magnetization       =    -0.00 Bohr mag/cell
     absolute magnetization    =     0.07 Bohr mag/cell

     iteration #  8     ecut=    60.00 Ry     beta= 0.70
     Davidson diagonalization with overlap

---- Real-time Memory Report at c_bands before calling an iterative solver
           910 MiB given to the printing process from OS
             0 MiB allocation reported by mallinfo(arena+hblkhd)
          1900 MiB available memory on the node where the printing process lives
------------------
     c_bands:  1 eigenvalues not converged
     c_bands:  2 eigenvalues not converged
     c_bands:  2 eigenvalues not converged
     c_bands:  1 eigenvalues not converged
     ethr =  1.46E-05,  avg # of iterations =  9.7

     total cpu time spent up to now is    10117.3 secs

     total energy              =   -2344.35890335 Ry
     estimated scf accuracy    <       0.01906059 Ry

     total magnetization       =     0.00 Bohr mag/cell
     absolute magnetization    =     0.05 Bohr mag/cell

     iteration #  9     ecut=    60.00 Ry     beta= 0.70
     Davidson diagonalization with overlap

---- Real-time Memory Report at c_bands before calling an iterative solver
           913 MiB given to the printing process from OS
             0 MiB allocation reported by mallinfo(arena+hblkhd)
          1895 MiB available memory on the node where the printing process lives
------------------
     c_bands:  1 eigenvalues not converged
     c_bands:  1 eigenvalues not converged
     c_bands:  1 eigenvalues not converged
     c_bands:  1 eigenvalues not converged
     ethr =  7.69E-06,  avg # of iterations = 10.6

     total cpu time spent up to now is    11239.3 secs

     total energy              =   -2344.35958594 Ry
     estimated scf accuracy    <       0.01491514 Ry

     total magnetization       =     0.00 Bohr mag/cell
     absolute magnetization    =     0.02 Bohr mag/cell

     iteration # 10     ecut=    60.00 Ry     beta= 0.70
     Davidson diagonalization with overlap

---- Real-time Memory Report at c_bands before calling an iterative solver
           915 MiB given to the printing process from OS
             0 MiB allocation reported by mallinfo(arena+hblkhd)
          1899 MiB available memory on the node where the printing process lives
------------------
     c_bands:  1 eigenvalues not converged
     ethr =  6.01E-06,  avg # of iterations =  3.5

     total cpu time spent up to now is    12241.2 secs

     total energy              =   -2344.36041495 Ry
     estimated scf accuracy    <       0.00624892 Ry

     total magnetization       =     0.00 Bohr mag/cell
     absolute magnetization    =     0.02 Bohr mag/cell

     iteration # 11     ecut=    60.00 Ry     beta= 0.70
     Davidson diagonalization with overlap

---- Real-time Memory Report at c_bands before calling an iterative solver
           915 MiB given to the printing process from OS
             0 MiB allocation reported by mallinfo(arena+hblkhd)
          1904 MiB available memory on the node where the printing process lives
------------------
     c_bands:  1 eigenvalues not converged
     c_bands:  1 eigenvalues not converged
     ethr =  2.52E-06,  avg # of iterations =  7.8

     total cpu time spent up to now is    13682.6 secs

     total energy              =   -2344.36222596 Ry
     estimated scf accuracy    <       0.00576325 Ry

     total magnetization       =     0.00 Bohr mag/cell
     absolute magnetization    =     0.01 Bohr mag/cell

     iteration # 12     ecut=    60.00 Ry     beta= 0.70
     Davidson diagonalization with overlap

---- Real-time Memory Report at c_bands before calling an iterative solver
           915 MiB given to the printing process from OS
             0 MiB allocation reported by mallinfo(arena+hblkhd)
          1879 MiB available memory on the node where the printing process lives
------------------
     c_bands:  2 eigenvalues not converged
     c_bands:  1 eigenvalues not converged
     ethr =  2.32E-06,  avg # of iterations =  3.7

     total cpu time spent up to now is    14562.1 secs

     total energy              =   -2344.36171819 Ry
     estimated scf accuracy    <       0.00392203 Ry

     total magnetization       =    -0.00 Bohr mag/cell
     absolute magnetization    =     0.01 Bohr mag/cell

     iteration # 13     ecut=    60.00 Ry     beta= 0.70
     Davidson diagonalization with overlap

---- Real-time Memory Report at c_bands before calling an iterative solver
           915 MiB given to the printing process from OS
             0 MiB allocation reported by mallinfo(arena+hblkhd)
          1905 MiB available memory on the node where the printing process lives
------------------
     ethr =  1.58E-06,  avg # of iterations =  2.0

     total cpu time spent up to now is    15472.4 secs

     total energy              =   -2344.36172132 Ry
     estimated scf accuracy    <       0.00099042 Ry

     total magnetization       =    -0.00 Bohr mag/cell
     absolute magnetization    =     0.00 Bohr mag/cell

     iteration # 14     ecut=    60.00 Ry     beta= 0.70
     Davidson diagonalization with overlap

---- Real-time Memory Report at c_bands before calling an iterative solver
           915 MiB given to the printing process from OS
             0 MiB allocation reported by mallinfo(arena+hblkhd)
          1891 MiB available memory on the node where the printing process lives
------------------
     c_bands:  1 eigenvalues not converged
     ethr =  3.99E-07,  avg # of iterations =  7.2

     total cpu time spent up to now is    16676.0 secs

     total energy              =   -2344.36204006 Ry
     estimated scf accuracy    <       0.00011477 Ry

     total magnetization       =     0.00 Bohr mag/cell
     absolute magnetization    =     0.01 Bohr mag/cell

     iteration # 15     ecut=    60.00 Ry     beta= 0.70
     Davidson diagonalization with overlap

---- Real-time Memory Report at c_bands before calling an iterative solver
           915 MiB given to the printing process from OS
             0 MiB allocation reported by mallinfo(arena+hblkhd)
          1896 MiB available memory on the node where the printing process lives
------------------
     ethr =  4.63E-08,  avg # of iterations =  6.2

     total cpu time spent up to now is    18264.3 secs

     total energy              =   -2344.36212101 Ry
     estimated scf accuracy    <       0.00003894 Ry

     total magnetization       =     0.00 Bohr mag/cell
     absolute magnetization    =     0.00 Bohr mag/cell

     iteration # 16     ecut=    60.00 Ry     beta= 0.70
     Davidson diagonalization with overlap

---- Real-time Memory Report at c_bands before calling an iterative solver
           915 MiB given to the printing process from OS
             0 MiB allocation reported by mallinfo(arena+hblkhd)
          1899 MiB available memory on the node where the printing process lives
------------------
     ethr =  1.57E-08,  avg # of iterations =  4.5

     total cpu time spent up to now is    19317.3 secs

     total energy              =   -2344.36212960 Ry
     estimated scf accuracy    <       0.00000721 Ry

     total magnetization       =     0.00 Bohr mag/cell
     absolute magnetization    =     0.00 Bohr mag/cell

     iteration # 17     ecut=    60.00 Ry     beta= 0.70
     Davidson diagonalization with overlap

---- Real-time Memory Report at c_bands before calling an iterative solver
           915 MiB given to the printing process from OS
             0 MiB allocation reported by mallinfo(arena+hblkhd)
          1896 MiB available memory on the node where the printing process lives
------------------
     ethr =  2.91E-09,  avg # of iterations =  6.8

     total cpu time spent up to now is    20926.4 secs

     total energy              =   -2344.36213352 Ry
     estimated scf accuracy    <       0.00000501 Ry

     total magnetization       =    -0.00 Bohr mag/cell
     absolute magnetization    =     0.00 Bohr mag/cell

     iteration # 18     ecut=    60.00 Ry     beta= 0.70
     Davidson diagonalization with overlap

---- Real-time Memory Report at c_bands before calling an iterative solver
           915 MiB given to the printing process from OS
             0 MiB allocation reported by mallinfo(arena+hblkhd)
          1896 MiB available memory on the node where the printing process lives
------------------
     ethr =  2.02E-09,  avg # of iterations =  2.0

     total cpu time spent up to now is    21799.7 secs

     total energy              =   -2344.36213358 Ry
     estimated scf accuracy    <       0.00000101 Ry

     total magnetization       =     0.00 Bohr mag/cell
     absolute magnetization    =     0.00 Bohr mag/cell

     iteration # 19     ecut=    60.00 Ry     beta= 0.70
     Davidson diagonalization with overlap

---- Real-time Memory Report at c_bands before calling an iterative solver
           915 MiB given to the printing process from OS
             0 MiB allocation reported by mallinfo(arena+hblkhd)
          1888 MiB available memory on the node where the printing process lives
------------------
     ethr =  4.07E-10,  avg # of iterations =  8.6

     Magnetic moment per site  (integrated on atomic sphere of radius R)
     atom   1 (R=0.223)  charge=  7.6322  magn=  0.0000
     atom   2 (R=0.223)  charge=  7.6253  magn=  0.0000
     atom   3 (R=0.155)  charge=  8.0847  magn=  0.0000
     atom   4 (R=0.155)  charge=  8.0740  magn=  0.0000
     atom   5 (R=0.155)  charge=  8.0793  magn=  0.0000
     atom   6 (R=0.155)  charge=  8.0843  magn=  0.0000
     atom   7 (R=0.125)  charge=  0.5413  magn=  0.0000
     atom   8 (R=0.125)  charge=  0.5413  magn=  0.0000
     atom   9 (R=0.125)  charge=  0.5352  magn=  0.0000
     atom  10 (R=0.125)  charge=  0.5352  magn=  0.0000
     atom  11 (R=0.125)  charge=  0.5337  magn=  0.0000
     atom  12 (R=0.125)  charge=  0.5337  magn=  0.0000
     atom  13 (R=0.135)  charge=  0.3436  magn=  0.0000
     atom  14 (R=0.135)  charge=  0.3436  magn=  0.0000
     atom  15 (R=0.075)  charge=  1.9488  magn= -0.0000
     atom  16 (R=0.075)  charge=  1.9488  magn= -0.0000
     atom  17 (R=0.075)  charge=  1.9533  magn= -0.0000
     atom  18 (R=0.075)  charge=  1.9533  magn= -0.0000
     atom  19 (R=0.075)  charge=  1.9470  magn= -0.0000
     atom  20 (R=0.075)  charge=  1.9470  magn= -0.0000
     atom  21 (R=0.075)  charge=  1.9443  magn= -0.0000
     atom  22 (R=0.075)  charge=  1.9443  magn= -0.0000
     atom  23 (R=0.075)  charge=  1.9550  magn=  0.0000
     atom  24 (R=0.075)  charge=  1.9550  magn=  0.0000
     atom  25 (R=0.075)  charge=  1.9627  magn=  0.0000
     atom  26 (R=0.075)  charge=  1.9627  magn=  0.0000
     atom  27 (R=0.075)  charge=  1.9596  magn= -0.0000
     atom  28 (R=0.075)  charge=  1.9596  magn= -0.0000
     atom  29 (R=0.075)  charge=  1.9573  magn= -0.0000
     atom  30 (R=0.075)  charge=  1.9573  magn= -0.0000
     atom  31 (R=0.075)  charge=  1.9518  magn= -0.0000
     atom  32 (R=0.075)  charge=  1.9518  magn= -0.0000
     atom  33 (R=0.075)  charge=  1.9527  magn= -0.0000
     atom  34 (R=0.075)  charge=  1.9527  magn= -0.0000
     atom  35 (R=0.075)  charge=  1.9496  magn= -0.0000
     atom  36 (R=0.075)  charge=  1.9496  magn= -0.0000
     atom  37 (R=0.075)  charge=  1.9470  magn=  0.0000
     atom  38 (R=0.075)  charge=  1.9470  magn=  0.0000
     atom  39 (R=0.075)  charge=  0.3999  magn=  0.0000
     atom  40 (R=0.075)  charge=  0.3999  magn=  0.0000
     atom  41 (R=0.075)  charge=  0.4003  magn= -0.0000
     atom  42 (R=0.075)  charge=  0.4003  magn= -0.0000
     atom  43 (R=0.147)  charge=  8.3453  magn=  0.0001

     total cpu time spent up to now is    23636.5 secs

     End of self-consistent calculation

 ------ SPIN UP ------------


          k = 0.0000 0.0000 0.0000 ( 26779 PWs)   bands (ev):

   -68.4994 -68.1885 -67.8700 -67.6726 -52.3789 -35.2510 -35.2509 -35.2477
   -34.9506 -34.9345 -34.9340 -34.6656 -34.6475 -34.5535 -34.4536 -34.4112
   -34.4027 -28.6986 -28.6871 -28.5700 -23.7580 -23.6963 -15.4851 -15.4396
   -14.7177 -14.6785 -14.3988 -14.1159 -13.9941 -13.9774 -13.8999 -13.8960
   -13.4681 -13.3980 -13.3754 -13.1732 -13.1427 -13.0884 -12.9642 -12.9486
   -12.9301 -12.8460 -12.3833 -12.3103 -12.2001 -11.9250  -7.3168  -7.2261
    -7.2178  -7.1981  -7.1846  -7.1691  -4.7842  -4.7409  -3.0986  -3.0072
    -2.5665  -1.9668  -1.8061  -1.7219  -1.4862  -1.4353  -1.3955  -1.1966
    -1.0024  -0.8198  -0.6213  -0.6130  -0.4959  -0.2916  -0.1444  -0.1402
    -0.0352   0.0621   0.3042   0.3274   0.3489   0.5294   0.5431   0.5870
     0.6947   0.9122   0.9727   1.0201   1.0801   1.2144   1.3447   1.3584
     1.5400   1.5427   1.6350   1.6414   1.8880   1.9299   1.9372   1.9979
     2.0204   2.1012   2.1221   2.1810   2.3045   2.3435   2.3768   2.5182
     2.5300   2.5410   2.6756   2.7471   2.8119   2.8968   2.9514   2.9943
     3.0748   3.1019   3.1381   3.3182   3.3353   3.4167   3.4347   3.6093
     3.7937   4.0257   4.0327   4.4922   7.1388   7.5620   7.8109   8.5948
     9.2818  10.0901  10.1736  10.7137  11.0190  11.5222  11.5491  11.7194
    11.9436  12.2858  12.3971  12.5830  12.6768  12.7483  12.7517  12.9389
    13.1196  13.1437  13.3095  13.3711  13.5007

     occupation numbers 
     1.0000   1.0000   1.0000   1.0000   1.0000   1.0000   1.0000   1.0000
     1.0000   1.0000   1.0000   1.0000   1.0000   1.0000   1.0000   1.0000
     1.0000   1.0000   1.0000   1.0000   1.0000   1.0000   1.0000   1.0000
     1.0000   1.0000   1.0000   1.0000   1.0000   1.0000   1.0000   1.0000
     1.0000   1.0000   1.0000   1.0000   1.0000   1.0000   1.0000   1.0000
     1.0000   1.0000   1.0000   1.0000   1.0000   1.0000   1.0000   1.0000
     1.0000   1.0000   1.0000   1.0000   1.0000   1.0000   1.0000   1.0000
     1.0000   1.0000   1.0000   1.0000   1.0000   1.0000   1.0000   1.0000
     1.0000   1.0000   1.0000   1.0000   1.0000   1.0000   1.0000   1.0000
     1.0000   1.0000   1.0000   1.0000   1.0000   1.0000   1.0000   1.0000
     1.0000   1.0000   1.0000   1.0000   1.0000   1.0000   1.0000   1.0000
     1.0000   1.0000   1.0000   1.0000   1.0000   1.0000   1.0000   1.0000
     1.0000   1.0000   1.0000   1.0000   1.0000   1.0000   1.0000   1.0000
     1.0000   1.0000   1.0000   1.0000   1.0000   1.0000   1.0000   1.0000
     1.0000   1.0000   1.0000   1.0000   1.0000   1.0000   1.0000   1.0000
     1.0000   1.0000   1.0000   1.0000   0.0000   0.0000   0.0000   0.0000
     0.0000   0.0000   0.0000   0.0000   0.0000   0.0000   0.0000   0.0000
     0.0000   0.0000   0.0000   0.0000   0.0000   0.0000   0.0000   0.0000
     0.0000   0.0000   0.0000   0.0000   0.0000

          k = 0.0000 0.0000 0.1730 ( 26756 PWs)   bands (ev):

   -68.4994 -68.1885 -67.8700 -67.6726 -52.3789 -35.2510 -35.2509 -35.2477
   -34.9506 -34.9345 -34.9340 -34.6656 -34.6475 -34.5535 -34.4536 -34.4112
   -34.4027 -28.6986 -28.6871 -28.5700 -23.7580 -23.6963 -15.4751 -15.4502
   -14.7081 -14.6885 -14.3978 -14.1169 -13.9943 -13.9773 -13.9121 -13.8842
   -13.4646 -13.3925 -13.3822 -13.1641 -13.1463 -13.0948 -12.9674 -12.9448
   -12.9256 -12.8513 -12.3829 -12.3102 -12.2001 -11.9257  -7.3168  -7.2261
    -7.2178  -7.1981  -7.1845  -7.1691  -4.7799  -4.7455  -3.0787  -3.0290
    -2.5557  -1.9399  -1.8143  -1.7492  -1.4734  -1.4371  -1.3716  -1.1625
    -1.0340  -0.9015  -0.6522  -0.5938  -0.4837  -0.3322  -0.1420  -0.1251
    -0.0293   0.0637   0.3044   0.3200   0.3788   0.5312   0.5574   0.5969
     0.7263   0.8622   0.9354   1.0610   1.1207   1.2475   1.3641   1.4182
     1.4916   1.5972   1.6261   1.6515   1.7629   1.8701   1.9748   1.9846
     2.0467   2.0823   2.1519   2.1649   2.2741   2.3676   2.4302   2.4782
     2.5451   2.6243   2.7117   2.7268   2.7704   2.8491   2.9451   2.9855
     3.0491   3.0747   3.1445   3.3097   3.3577   3.4112   3.4227   3.6409
     3.7899   4.0239   4.0322   4.4830   7.1439   7.5637   7.8075   8.8862
     9.2641   9.6044  10.1991  10.8098  11.0842  11.3400  11.5487  11.8043
    12.1001  12.3871  12.3974  12.6267  12.7039  12.7530  12.7732  13.0105
    13.0504  13.1206  13.2611  13.4068  13.4295

     occupation numbers 
     1.0000   1.0000   1.0000   1.0000   1.0000   1.0000   1.0000   1.0000
     1.0000   1.0000   1.0000   1.0000   1.0000   1.0000   1.0000   1.0000
     1.0000   1.0000   1.0000   1.0000   1.0000   1.0000   1.0000   1.0000
     1.0000   1.0000   1.0000   1.0000   1.0000   1.0000   1.0000   1.0000
     1.0000   1.0000   1.0000   1.0000   1.0000   1.0000   1.0000   1.0000
     1.0000   1.0000   1.0000   1.0000   1.0000   1.0000   1.0000   1.0000
     1.0000   1.0000   1.0000   1.0000   1.0000   1.0000   1.0000   1.0000
     1.0000   1.0000   1.0000   1.0000   1.0000   1.0000   1.0000   1.0000
     1.0000   1.0000   1.0000   1.0000   1.0000   1.0000   1.0000   1.0000
     1.0000   1.0000   1.0000   1.0000   1.0000   1.0000   1.0000   1.0000
     1.0000   1.0000   1.0000   1.0000   1.0000   1.0000   1.0000   1.0000
     1.0000   1.0000   1.0000   1.0000   1.0000   1.0000   1.0000   1.0000
     1.0000   1.0000   1.0000   1.0000   1.0000   1.0000   1.0000   1.0000
     1.0000   1.0000   1.0000   1.0000   1.0000   1.0000   1.0000   1.0000
     1.0000   1.0000   1.0000   1.0000   1.0000   1.0000   1.0000   1.0000
     1.0000   1.0000   1.0000   1.0000   0.0000   0.0000   0.0000   0.0000
     0.0000   0.0000   0.0000   0.0000   0.0000   0.0000   0.0000   0.0000
     0.0000   0.0000   0.0000   0.0000   0.0000   0.0000   0.0000   0.0000
     0.0000   0.0000   0.0000   0.0000   0.0000

          k = 0.0000 0.1920 0.0000 ( 26787 PWs)   bands (ev):

   -68.4994 -68.1885 -67.8700 -67.6726 -52.3789 -35.2510 -35.2509 -35.2477
   -34.9506 -34.9345 -34.9340 -34.6656 -34.6475 -34.5535 -34.4536 -34.4112
   -34.4027 -28.6986 -28.6871 -28.5700 -23.7580 -23.6963 -15.4751 -15.4323
   -14.7785 -14.7142 -14.3489 -14.1063 -13.9942 -13.9776 -13.8454 -13.8207
   -13.4884 -13.4423 -13.4417 -13.1795 -13.1598 -13.0672 -12.9630 -12.9469
   -12.9170 -12.8433 -12.3843 -12.3076 -12.2014 -11.9228  -7.3166  -7.2253
    -7.2174  -7.1986  -7.1850  -7.1694  -4.7300  -4.6874  -3.2691  -3.1740
    -2.5387  -1.8844  -1.8285  -1.5364  -1.5169  -1.4138  -1.4130  -1.0506
    -1.0401  -0.7663  -0.6748  -0.6321  -0.5005  -0.3047  -0.1949  -0.1933
    -0.0730   0.0868   0.1978   0.3191   0.3456   0.4480   0.4888   0.5444
     0.8799   0.9334   1.0420   1.0463   1.2125   1.2977   1.4173   1.4273
     1.5789   1.5811   1.6277   1.6458   1.8208   1.8331   1.8668   1.9430
     2.0936   2.1082   2.1414   2.2015   2.3016   2.3186   2.3888   2.4019
     2.4836   2.5835   2.6510   2.7514   2.8243   2.9360   2.9773   2.9902
     3.0437   3.1099   3.1242   3.2969   3.2986   3.3745   3.3811   3.5936
     3.7689   3.9935   4.0392   4.4945   7.1471   7.5624   7.8105   8.9557
     9.2319   9.9675  10.1966  10.2879  11.1848  11.2427  11.7121  11.9987
    12.0020  12.2082  12.4266  12.6191  12.6865  12.7833  12.8773  12.9940
    13.0381  13.1295  13.1799  13.3502  13.3986

     occupation numbers 
     1.0000   1.0000   1.0000   1.0000   1.0000   1.0000   1.0000   1.0000
     1.0000   1.0000   1.0000   1.0000   1.0000   1.0000   1.0000   1.0000
     1.0000   1.0000   1.0000   1.0000   1.0000   1.0000   1.0000   1.0000
     1.0000   1.0000   1.0000   1.0000   1.0000   1.0000   1.0000   1.0000
     1.0000   1.0000   1.0000   1.0000   1.0000   1.0000   1.0000   1.0000
     1.0000   1.0000   1.0000   1.0000   1.0000   1.0000   1.0000   1.0000
     1.0000   1.0000   1.0000   1.0000   1.0000   1.0000   1.0000   1.0000
     1.0000   1.0000   1.0000   1.0000   1.0000   1.0000   1.0000   1.0000
     1.0000   1.0000   1.0000   1.0000   1.0000   1.0000   1.0000   1.0000
     1.0000   1.0000   1.0000   1.0000   1.0000   1.0000   1.0000   1.0000
     1.0000   1.0000   1.0000   1.0000   1.0000   1.0000   1.0000   1.0000
     1.0000   1.0000   1.0000   1.0000   1.0000   1.0000   1.0000   1.0000
     1.0000   1.0000   1.0000   1.0000   1.0000   1.0000   1.0000   1.0000
     1.0000   1.0000   1.0000   1.0000   1.0000   1.0000   1.0000   1.0000
     1.0000   1.0000   1.0000   1.0000   1.0000   1.0000   1.0000   1.0000
     1.0000   1.0000   1.0000   1.0000   0.0000   0.0000   0.0000   0.0000
     0.0000   0.0000   0.0000   0.0000   0.0000   0.0000   0.0000   0.0000
     0.0000   0.0000   0.0000   0.0000   0.0000   0.0000   0.0000   0.0000
     0.0000   0.0000   0.0000   0.0000   0.0000

          k = 0.0000 0.1920 0.1730 ( 26783 PWs)   bands (ev):

   -68.4994 -68.1885 -67.8700 -67.6726 -52.3789 -35.2510 -35.2509 -35.2477
   -34.9506 -34.9345 -34.9340 -34.6656 -34.6475 -34.5535 -34.4536 -34.4112
   -34.4027 -28.6986 -28.6871 -28.5700 -23.7580 -23.6963 -15.4652 -15.4428
   -14.7682 -14.7264 -14.3467 -14.1066 -13.9943 -13.9775 -13.8417 -13.8255
   -13.4831 -13.4532 -13.4328 -13.1722 -13.1630 -13.0733 -12.9669 -12.9435
   -12.9110 -12.8487 -12.3839 -12.3075 -12.2014 -11.9234  -7.3166  -7.2253
    -7.2174  -7.1986  -7.1849  -7.1695  -4.7241  -4.6935  -3.2463  -3.1985
    -2.5306  -1.8527  -1.8363  -1.5563  -1.4937  -1.4155  -1.4106  -1.0951
    -1.0123  -0.8198  -0.6873  -0.6353  -0.4919  -0.3457  -0.1959  -0.1841
    -0.0761   0.1135   0.2274   0.2987   0.3467   0.4502   0.4645   0.5758
     0.9106   0.9784   1.0178   1.1032   1.2199   1.3164   1.4079   1.4539
     1.5285   1.6094   1.6277   1.6629   1.7499   1.7844   1.8660   1.9808
     2.0379   2.1156   2.1632   2.2050   2.2575   2.3153   2.3731   2.4318
     2.5227   2.6398   2.6858   2.7279   2.8013   2.8912   2.9518   3.0036
     3.0501   3.0810   3.1162   3.2795   3.3224   3.3582   3.3852   3.6174
     3.7681   3.9934   4.0437   4.4860   7.1526   7.5640   7.8060   9.1004
     9.3124   9.8648  10.1697  10.2412  10.7591  11.2377  11.9405  11.9676
    12.2109  12.3665  12.4784  12.6657  12.7245  12.8205  12.8747  12.9425
    13.0487  13.1008  13.2169  13.3047  13.4273

     occupation numbers 
     1.0000   1.0000   1.0000   1.0000   1.0000   1.0000   1.0000   1.0000
     1.0000   1.0000   1.0000   1.0000   1.0000   1.0000   1.0000   1.0000
     1.0000   1.0000   1.0000   1.0000   1.0000   1.0000   1.0000   1.0000
     1.0000   1.0000   1.0000   1.0000   1.0000   1.0000   1.0000   1.0000
     1.0000   1.0000   1.0000   1.0000   1.0000   1.0000   1.0000   1.0000
     1.0000   1.0000   1.0000   1.0000   1.0000   1.0000   1.0000   1.0000
     1.0000   1.0000   1.0000   1.0000   1.0000   1.0000   1.0000   1.0000
     1.0000   1.0000   1.0000   1.0000   1.0000   1.0000   1.0000   1.0000
     1.0000   1.0000   1.0000   1.0000   1.0000   1.0000   1.0000   1.0000
     1.0000   1.0000   1.0000   1.0000   1.0000   1.0000   1.0000   1.0000
     1.0000   1.0000   1.0000   1.0000   1.0000   1.0000   1.0000   1.0000
     1.0000   1.0000   1.0000   1.0000   1.0000   1.0000   1.0000   1.0000
     1.0000   1.0000   1.0000   1.0000   1.0000   1.0000   1.0000   1.0000
     1.0000   1.0000   1.0000   1.0000   1.0000   1.0000   1.0000   1.0000
     1.0000   1.0000   1.0000   1.0000   1.0000   1.0000   1.0000   1.0000
     1.0000   1.0000   1.0000   1.0000   0.0000   0.0000   0.0000   0.0000
     0.0000   0.0000   0.0000   0.0000   0.0000   0.0000   0.0000   0.0000
     0.0000   0.0000   0.0000   0.0000   0.0000   0.0000   0.0000   0.0000
     0.0000   0.0000   0.0000   0.0000   0.0000

          k = 0.1667 0.0000 0.0298 ( 26772 PWs)   bands (ev):

   -68.4994 -68.1885 -67.8699 -67.6726 -52.3789 -35.2511 -35.2508 -35.2477
   -34.9507 -34.9345 -34.9339 -34.6657 -34.6474 -34.5532 -34.4539 -34.4110
   -34.4029 -28.6985 -28.6871 -28.5701 -23.7579 -23.6961 -15.4312 -15.3867
   -14.7130 -14.6760 -14.3889 -14.1523 -14.1413 -14.1135 -13.8100 -13.7992
   -13.4446 -13.3971 -13.3672 -13.1718 -13.1490 -13.1020 -13.0209 -12.9728
   -12.9232 -12.8428 -12.3665 -12.3118 -12.2025 -11.9433  -7.3190  -7.2255
    -7.2154  -7.1976  -7.1838  -7.1705  -4.6314  -4.5844  -3.0383  -2.9515
    -2.5382  -2.1185  -1.9385  -1.8338  -1.4316  -1.3650  -1.3136  -1.1863
    -1.0063  -0.8077  -0.6442  -0.5754  -0.4873  -0.3319  -0.1600  -0.1180
    -0.0274   0.0444   0.2114   0.2726   0.3436   0.4931   0.5973   0.6445
     0.7604   0.8573   0.9307   0.9835   1.1120   1.2010   1.3679   1.4544
     1.4890   1.5513   1.6033   1.7192   1.7827   1.8690   1.9323   2.0201
     2.0525   2.0982   2.1626   2.2204   2.3023   2.3408   2.4259   2.5153
     2.5373   2.5920   2.6103   2.7296   2.7784   2.7993   2.9201   2.9392
     3.0179   3.0995   3.1423   3.2396   3.3167   3.3508   3.3877   3.5625
     3.7622   3.9750   4.0445   4.4900   7.1441   7.5776   7.7858   8.8846
     9.2843  10.0316  10.3758  10.8001  11.1804  11.6115  11.6828  11.8730
    11.9657  12.2993  12.3893  12.5750  12.6179  12.7613  12.8277  12.9519
    13.0402  13.0659  13.2355  13.3360  13.4167

     occupation numbers 
     1.0000   1.0000   1.0000   1.0000   1.0000   1.0000   1.0000   1.0000
     1.0000   1.0000   1.0000   1.0000   1.0000   1.0000   1.0000   1.0000
     1.0000   1.0000   1.0000   1.0000   1.0000   1.0000   1.0000   1.0000
     1.0000   1.0000   1.0000   1.0000   1.0000   1.0000   1.0000   1.0000
     1.0000   1.0000   1.0000   1.0000   1.0000   1.0000   1.0000   1.0000
     1.0000   1.0000   1.0000   1.0000   1.0000   1.0000   1.0000   1.0000
     1.0000   1.0000   1.0000   1.0000   1.0000   1.0000   1.0000   1.0000
     1.0000   1.0000   1.0000   1.0000   1.0000   1.0000   1.0000   1.0000
     1.0000   1.0000   1.0000   1.0000   1.0000   1.0000   1.0000   1.0000
     1.0000   1.0000   1.0000   1.0000   1.0000   1.0000   1.0000   1.0000
     1.0000   1.0000   1.0000   1.0000   1.0000   1.0000   1.0000   1.0000
     1.0000   1.0000   1.0000   1.0000   1.0000   1.0000   1.0000   1.0000
     1.0000   1.0000   1.0000   1.0000   1.0000   1.0000   1.0000   1.0000
     1.0000   1.0000   1.0000   1.0000   1.0000   1.0000   1.0000   1.0000
     1.0000   1.0000   1.0000   1.0000   1.0000   1.0000   1.0000   1.0000
     1.0000   1.0000   1.0000   1.0000   0.0000   0.0000   0.0000   0.0000
     0.0000   0.0000   0.0000   0.0000   0.0000   0.0000   0.0000   0.0000
     0.0000   0.0000   0.0000   0.0000   0.0000   0.0000   0.0000   0.0000
     0.0000   0.0000   0.0000   0.0000   0.0000

          k = 0.1667 0.0000 0.2028 ( 26774 PWs)   bands (ev):

   -68.4994 -68.1885 -67.8699 -67.6726 -52.3789 -35.2511 -35.2508 -35.2477
   -34.9507 -34.9345 -34.9339 -34.6657 -34.6474 -34.5532 -34.4539 -34.4110
   -34.4029 -28.6985 -28.6871 -28.5701 -23.7578 -23.6961 -15.4190 -15.3996
   -14.7040 -14.6853 -14.3871 -14.1645 -14.1296 -14.1145 -13.8156 -13.7942
   -13.4414 -13.3914 -13.3730 -13.1679 -13.1496 -13.1067 -13.0104 -12.9852
   -12.9173 -12.8472 -12.3658 -12.3116 -12.2025 -11.9442  -7.3189  -7.2255
    -7.2153  -7.1976  -7.1838  -7.1705  -4.6316  -4.5844  -3.0226  -2.9692
    -2.5269  -2.0891  -1.9733  -1.8392  -1.4058  -1.3552  -1.3030  -1.1593
    -1.0442  -0.8797  -0.6664  -0.5647  -0.4694  -0.3667  -0.1469  -0.1115
    -0.0271   0.0221   0.2134   0.2854   0.3702   0.4848   0.5908   0.6848
     0.7669   0.8165   0.9281   1.0345   1.0749   1.3476   1.3712   1.4429
     1.4916   1.5631   1.6093   1.6766   1.7673   1.7934   1.9420   2.0010
     2.0626   2.0740   2.1922   2.2011   2.2942   2.3485   2.4581   2.5058
     2.5625   2.6220   2.6549   2.7122   2.7475   2.7912   2.8935   2.9409
     3.0121   3.0256   3.1602   3.2381   3.3276   3.3406   3.3890   3.5882
     3.7608   3.9747   4.0448   4.4842   7.1476   7.5792   7.7849   9.1675
     9.2938   9.7056  10.2231  10.8890  11.2396  11.4035  11.7205  11.8079
    12.1910  12.2518  12.4684  12.6980  12.7385  12.7601  12.8696  12.9735
    13.0675  13.1004  13.1913  13.3263  13.3767

     occupation numbers 
     1.0000   1.0000   1.0000   1.0000   1.0000   1.0000   1.0000   1.0000
     1.0000   1.0000   1.0000   1.0000   1.0000   1.0000   1.0000   1.0000
     1.0000   1.0000   1.0000   1.0000   1.0000   1.0000   1.0000   1.0000
     1.0000   1.0000   1.0000   1.0000   1.0000   1.0000   1.0000   1.0000
     1.0000   1.0000   1.0000   1.0000   1.0000   1.0000   1.0000   1.0000
     1.0000   1.0000   1.0000   1.0000   1.0000   1.0000   1.0000   1.0000
     1.0000   1.0000   1.0000   1.0000   1.0000   1.0000   1.0000   1.0000
     1.0000   1.0000   1.0000   1.0000   1.0000   1.0000   1.0000   1.0000
     1.0000   1.0000   1.0000   1.0000   1.0000   1.0000   1.0000   1.0000
     1.0000   1.0000   1.0000   1.0000   1.0000   1.0000   1.0000   1.0000
     1.0000   1.0000   1.0000   1.0000   1.0000   1.0000   1.0000   1.0000
     1.0000   1.0000   1.0000   1.0000   1.0000   1.0000   1.0000   1.0000
     1.0000   1.0000   1.0000   1.0000   1.0000   1.0000   1.0000   1.0000
     1.0000   1.0000   1.0000   1.0000   1.0000   1.0000   1.0000   1.0000
     1.0000   1.0000   1.0000   1.0000   1.0000   1.0000   1.0000   1.0000
     1.0000   1.0000   1.0000   1.0000   0.0000   0.0000   0.0000   0.0000
     0.0000   0.0000   0.0000   0.0000   0.0000   0.0000   0.0000   0.0000
     0.0000   0.0000   0.0000   0.0000   0.0000   0.0000   0.0000   0.0000
     0.0000   0.0000   0.0000   0.0000   0.0000

          k = 0.1667 0.0000-0.1432 ( 26772 PWs)   bands (ev):

   -68.4994 -68.1885 -67.8699 -67.6726 -52.3789 -35.2511 -35.2508 -35.2477
   -34.9507 -34.9345 -34.9339 -34.6657 -34.6474 -34.5532 -34.4539 -34.4110
   -34.4029 -28.6985 -28.6871 -28.5701 -23.7579 -23.6961 -15.4235 -15.3948
   -14.7041 -14.6853 -14.3875 -14.1589 -14.1353 -14.1143 -13.8152 -13.7944
   -13.4403 -13.3891 -13.3780 -13.1655 -13.1490 -13.1110 -13.0094 -12.9823
   -12.9159 -12.8497 -12.3662 -12.3118 -12.2025 -11.9436  -7.3190  -7.2255
    -7.2153  -7.1976  -7.1838  -7.1706  -4.6169  -4.5994  -3.0198  -2.9714
    -2.5309  -2.1021  -1.9581  -1.8377  -1.4110  -1.3624  -1.3085  -1.1496
    -1.0384  -0.8590  -0.6519  -0.5908  -0.4799  -0.3514  -0.1564  -0.1188
    -0.0302   0.0596   0.2022   0.2633   0.3572   0.4947   0.5957   0.6789
     0.7553   0.8698   0.9359   0.9964   1.1612   1.2183   1.3557   1.4638
     1.4881   1.5697   1.5924   1.7044   1.7271   1.8166   1.9576   2.0118
     2.0491   2.1454   2.1676   2.2102   2.3050   2.3767   2.4356   2.4709
     2.5265   2.5781   2.6741   2.7015   2.7524   2.8067   2.9254   2.9602
     3.0199   3.0670   3.1107   3.2372   3.3207   3.3420   3.3845   3.5803
     3.7571   3.9790   4.0524   4.4841   7.1485   7.5768   7.7886   9.0756
     9.2722   9.7653  10.3219  10.9262  11.2557  11.4294  11.7087  11.8341
    12.0654  12.3790  12.5069  12.5706  12.6300  12.7088  12.8310  12.9458
    13.0792  13.1189  13.2101  13.3490  13.4174

     occupation numbers 
     1.0000   1.0000   1.0000   1.0000   1.0000   1.0000   1.0000   1.0000
     1.0000   1.0000   1.0000   1.0000   1.0000   1.0000   1.0000   1.0000
     1.0000   1.0000   1.0000   1.0000   1.0000   1.0000   1.0000   1.0000
     1.0000   1.0000   1.0000   1.0000   1.0000   1.0000   1.0000   1.0000
     1.0000   1.0000   1.0000   1.0000   1.0000   1.0000   1.0000   1.0000
     1.0000   1.0000   1.0000   1.0000   1.0000   1.0000   1.0000   1.0000
     1.0000   1.0000   1.0000   1.0000   1.0000   1.0000   1.0000   1.0000
     1.0000   1.0000   1.0000   1.0000   1.0000   1.0000   1.0000   1.0000
     1.0000   1.0000   1.0000   1.0000   1.0000   1.0000   1.0000   1.0000
     1.0000   1.0000   1.0000   1.0000   1.0000   1.0000   1.0000   1.0000
     1.0000   1.0000   1.0000   1.0000   1.0000   1.0000   1.0000   1.0000
     1.0000   1.0000   1.0000   1.0000   1.0000   1.0000   1.0000   1.0000
     1.0000   1.0000   1.0000   1.0000   1.0000   1.0000   1.0000   1.0000
     1.0000   1.0000   1.0000   1.0000   1.0000   1.0000   1.0000   1.0000
     1.0000   1.0000   1.0000   1.0000   1.0000   1.0000   1.0000   1.0000
     1.0000   1.0000   1.0000   1.0000   0.0000   0.0000   0.0000   0.0000
     0.0000   0.0000   0.0000   0.0000   0.0000   0.0000   0.0000   0.0000
     0.0000   0.0000   0.0000   0.0000   0.0000   0.0000   0.0000   0.0000
     0.0000   0.0000   0.0000   0.0000   0.0000

          k = 0.1667 0.1920 0.0298 ( 26762 PWs)   bands (ev):

   -68.4994 -68.1885 -67.8699 -67.6726 -52.3789 -35.2511 -35.2508 -35.2477
   -34.9507 -34.9345 -34.9339 -34.6657 -34.6475 -34.5532 -34.4539 -34.4110
   -34.4029 -28.6985 -28.6871 -28.5701 -23.7578 -23.6961 -15.4215 -15.3798
   -14.7687 -14.7088 -14.3436 -14.1355 -14.1267 -14.1015 -13.7850 -13.7591
   -13.4616 -13.4337 -13.4160 -13.1837 -13.1611 -13.0786 -13.0101 -12.9710
   -12.9202 -12.8398 -12.3688 -12.3090 -12.2036 -11.9413  -7.3191  -7.2248
    -7.2151  -7.1979  -7.1841  -7.1708  -4.5818  -4.5350  -3.2178  -3.1276
    -2.5081  -2.0062  -1.8505  -1.7241  -1.4598  -1.4251  -1.3388  -1.0512
    -0.9893  -0.7647  -0.6454  -0.5954  -0.5040  -0.3527  -0.2586  -0.1525
    -0.0305   0.0581   0.1554   0.2443   0.3239   0.4335   0.5045   0.7172
     0.8256   0.9283   1.0062   1.0380   1.2073   1.2419   1.3352   1.4708
     1.4999   1.5764   1.5953   1.7132   1.7562   1.8558   1.9502   1.9688
     2.0669   2.0903   2.1450   2.2346   2.2807   2.3399   2.4266   2.4596
     2.5087   2.5785   2.6166   2.7013   2.8178   2.8874   2.9193   2.9724
     3.0273   3.0734   3.1202   3.2188   3.2560   3.2896   3.3772   3.5635
     3.7321   3.9739   4.0402   4.4919   7.1521   7.5778   7.7854   9.1832
     9.2532  10.0686  10.1997  10.4918  11.2929  11.3378  11.8170  11.9890
    12.1118  12.2422  12.4467  12.6134  12.6696  12.8271  12.8533  12.9383
    13.0042  13.1268  13.1825  13.3055  13.3791

     occupation numbers 
     1.0000   1.0000   1.0000   1.0000   1.0000   1.0000   1.0000   1.0000
     1.0000   1.0000   1.0000   1.0000   1.0000   1.0000   1.0000   1.0000
     1.0000   1.0000   1.0000   1.0000   1.0000   1.0000   1.0000   1.0000
     1.0000   1.0000   1.0000   1.0000   1.0000   1.0000   1.0000   1.0000
     1.0000   1.0000   1.0000   1.0000   1.0000   1.0000   1.0000   1.0000
     1.0000   1.0000   1.0000   1.0000   1.0000   1.0000   1.0000   1.0000
     1.0000   1.0000   1.0000   1.0000   1.0000   1.0000   1.0000   1.0000
     1.0000   1.0000   1.0000   1.0000   1.0000   1.0000   1.0000   1.0000
     1.0000   1.0000   1.0000   1.0000   1.0000   1.0000   1.0000   1.0000
     1.0000   1.0000   1.0000   1.0000   1.0000   1.0000   1.0000   1.0000
     1.0000   1.0000   1.0000   1.0000   1.0000   1.0000   1.0000   1.0000
     1.0000   1.0000   1.0000   1.0000   1.0000   1.0000   1.0000   1.0000
     1.0000   1.0000   1.0000   1.0000   1.0000   1.0000   1.0000   1.0000
     1.0000   1.0000   1.0000   1.0000   1.0000   1.0000   1.0000   1.0000
     1.0000   1.0000   1.0000   1.0000   1.0000   1.0000   1.0000   1.0000
     1.0000   1.0000   1.0000   1.0000   0.0000   0.0000   0.0000   0.0000
     0.0000   0.0000   0.0000   0.0000   0.0000   0.0000   0.0000   0.0000
     0.0000   0.0000   0.0000   0.0000   0.0000   0.0000   0.0000   0.0000
     0.0000   0.0000   0.0000   0.0000   0.0000

          k = 0.1667 0.1920 0.2028 ( 26761 PWs)   bands (ev):

   -68.4994 -68.1885 -67.8699 -67.6726 -52.3789 -35.2511 -35.2508 -35.2477
   -34.9506 -34.9345 -34.9339 -34.6657 -34.6474 -34.5532 -34.4539 -34.4110
   -34.4029 -28.6985 -28.6871 -28.5701 -23.7578 -23.6961 -15.4092 -15.3926
   -14.7566 -14.7226 -14.3412 -14.1427 -14.1162 -14.1053 -13.7803 -13.7651
   -13.4585 -13.4346 -13.4143 -13.1823 -13.1579 -13.0852 -13.0049 -12.9781
   -12.9150 -12.8436 -12.3681 -12.3088 -12.2036 -11.9421  -7.3190  -7.2247
    -7.2151  -7.1979  -7.1841  -7.1708  -4.5804  -4.5364  -3.1949  -3.1524
    -2.4999  -1.9845  -1.8568  -1.7419  -1.4319  -1.4123  -1.3460  -1.0493
    -1.0154  -0.8090  -0.6794  -0.5666  -0.4900  -0.3977  -0.2448  -0.1542
    -0.0471   0.0655   0.1773   0.2547   0.3127   0.4221   0.4915   0.7415
     0.8875   0.9472   1.0033   1.0913   1.1435   1.3095   1.3613   1.4476
     1.5016   1.5833   1.6124   1.6770   1.7431   1.7936   1.9447   1.9948
     2.0288   2.0921   2.1472   2.1903   2.2936   2.3277   2.4381   2.4853
     2.5355   2.6015   2.6648   2.6851   2.7847   2.8779   2.9143   2.9718
     3.0158   3.0506   3.1067   3.2117   3.2576   3.2840   3.3835   3.5831
     3.7326   3.9751   4.0431   4.4865   7.1560   7.5792   7.7833   9.1835
     9.4819   9.9565  10.2004  10.4479  10.8595  11.2857  11.9639  12.1115
    12.1638  12.3373  12.5597  12.6761  12.7762  12.8109  12.8760  13.0011
    13.0570  13.1071  13.1474  13.2357  13.4094

     occupation numbers 
     1.0000   1.0000   1.0000   1.0000   1.0000   1.0000   1.0000   1.0000
     1.0000   1.0000   1.0000   1.0000   1.0000   1.0000   1.0000   1.0000
     1.0000   1.0000   1.0000   1.0000   1.0000   1.0000   1.0000   1.0000
     1.0000   1.0000   1.0000   1.0000   1.0000   1.0000   1.0000   1.0000
     1.0000   1.0000   1.0000   1.0000   1.0000   1.0000   1.0000   1.0000
     1.0000   1.0000   1.0000   1.0000   1.0000   1.0000   1.0000   1.0000
     1.0000   1.0000   1.0000   1.0000   1.0000   1.0000   1.0000   1.0000
     1.0000   1.0000   1.0000   1.0000   1.0000   1.0000   1.0000   1.0000
     1.0000   1.0000   1.0000   1.0000   1.0000   1.0000   1.0000   1.0000
     1.0000   1.0000   1.0000   1.0000   1.0000   1.0000   1.0000   1.0000
     1.0000   1.0000   1.0000   1.0000   1.0000   1.0000   1.0000   1.0000
     1.0000   1.0000   1.0000   1.0000   1.0000   1.0000   1.0000   1.0000
     1.0000   1.0000   1.0000   1.0000   1.0000   1.0000   1.0000   1.0000
     1.0000   1.0000   1.0000   1.0000   1.0000   1.0000   1.0000   1.0000
     1.0000   1.0000   1.0000   1.0000   1.0000   1.0000   1.0000   1.0000
     1.0000   1.0000   1.0000   1.0000   0.0000   0.0000   0.0000   0.0000
     0.0000   0.0000   0.0000   0.0000   0.0000   0.0000   0.0000   0.0000
     0.0000   0.0000   0.0000   0.0000   0.0000   0.0000   0.0000   0.0000
     0.0000   0.0000   0.0000   0.0000   0.0000

          k = 0.1667 0.1920-0.1432 ( 26775 PWs)   bands (ev):

   -68.4994 -68.1885 -67.8699 -67.6726 -52.3789 -35.2511 -35.2508 -35.2477
   -34.9507 -34.9345 -34.9339 -34.6657 -34.6475 -34.5532 -34.4539 -34.4110
   -34.4029 -28.6985 -28.6871 -28.5701 -23.7578 -23.6961 -15.4141 -15.3876
   -14.7589 -14.7201 -14.3415 -14.1392 -14.1221 -14.1030 -13.7832 -13.7618
   -13.4537 -13.4358 -13.4196 -13.1796 -13.1613 -13.0862 -12.9963 -12.9837
   -12.9117 -12.8468 -12.3683 -12.3091 -12.2036 -11.9416  -7.3191  -7.2247
    -7.2151  -7.1979  -7.1841  -7.1709  -4.5654  -4.5517  -3.1981  -3.1492
    -2.5019  -1.9875  -1.8611  -1.7352  -1.4444  -1.4087  -1.3405  -1.0490
    -1.0031  -0.8001  -0.6728  -0.5845  -0.5066  -0.3732  -0.2462  -0.1505
    -0.0492   0.0648   0.1762   0.2298   0.3195   0.4289   0.5151   0.7370
     0.8548   0.9472   1.0294   1.0626   1.1984   1.2594   1.3592   1.4452
     1.5164   1.5722   1.5974   1.6535   1.7520   1.7988   1.9625   1.9967
     2.0435   2.1057   2.1650   2.1921   2.3219   2.3439   2.3966   2.4310
     2.5006   2.6521   2.6773   2.7070   2.7361   2.8748   2.9660   2.9678
     3.0114   3.0494   3.0906   3.2229   3.2522   3.2864   3.3729   3.5814
     3.7281   3.9750   4.0494   4.4870   7.1568   7.5771   7.7878   9.1521
     9.4442   9.9197  10.3210  10.3948  10.9969  11.3602  11.9432  12.0450
    12.1448  12.2794  12.5421  12.6367  12.7404  12.8262  12.8514  12.9662
    13.0243  13.1092  13.1979  13.2727  13.3501

     occupation numbers 
     1.0000   1.0000   1.0000   1.0000   1.0000   1.0000   1.0000   1.0000
     1.0000   1.0000   1.0000   1.0000   1.0000   1.0000   1.0000   1.0000
     1.0000   1.0000   1.0000   1.0000   1.0000   1.0000   1.0000   1.0000
     1.0000   1.0000   1.0000   1.0000   1.0000   1.0000   1.0000   1.0000
     1.0000   1.0000   1.0000   1.0000   1.0000   1.0000   1.0000   1.0000
     1.0000   1.0000   1.0000   1.0000   1.0000   1.0000   1.0000   1.0000
     1.0000   1.0000   1.0000   1.0000   1.0000   1.0000   1.0000   1.0000
     1.0000   1.0000   1.0000   1.0000   1.0000   1.0000   1.0000   1.0000
     1.0000   1.0000   1.0000   1.0000   1.0000   1.0000   1.0000   1.0000
     1.0000   1.0000   1.0000   1.0000   1.0000   1.0000   1.0000   1.0000
     1.0000   1.0000   1.0000   1.0000   1.0000   1.0000   1.0000   1.0000
     1.0000   1.0000   1.0000   1.0000   1.0000   1.0000   1.0000   1.0000
     1.0000   1.0000   1.0000   1.0000   1.0000   1.0000   1.0000   1.0000
     1.0000   1.0000   1.0000   1.0000   1.0000   1.0000   1.0000   1.0000
     1.0000   1.0000   1.0000   1.0000   1.0000   1.0000   1.0000   1.0000
     1.0000   1.0000   1.0000   1.0000   0.0000   0.0000   0.0000   0.0000
     0.0000   0.0000   0.0000   0.0000   0.0000   0.0000   0.0000   0.0000
     0.0000   0.0000   0.0000   0.0000   0.0000   0.0000   0.0000   0.0000
     0.0000   0.0000   0.0000   0.0000   0.0000

          k = 0.3333 0.0000 0.0596 ( 26753 PWs)   bands (ev):

   -68.4994 -68.1885 -67.8699 -67.6726 -52.3789 -35.2512 -35.2507 -35.2477
   -34.9507 -34.9345 -34.9339 -34.6659 -34.6473 -34.5528 -34.4544 -34.4107
   -34.4031 -28.6985 -28.6872 -28.5703 -23.7576 -23.6959 -15.2892 -15.2478
   -14.7395 -14.7071 -14.4011 -14.3413 -14.2987 -14.1297 -13.7169 -13.7003
   -13.4345 -13.4053 -13.3685 -13.2027 -13.1497 -13.1397 -13.0786 -13.0034
   -12.9360 -12.8383 -12.3506 -12.2976 -12.2037 -11.9873  -7.3236  -7.2243
    -7.2104  -7.1964  -7.1824  -7.1734  -4.2435  -4.1856  -3.0365  -2.9522
    -2.4878  -2.2949  -2.2106  -1.8989  -1.3115  -1.2903  -1.2016  -1.1806
    -1.0316  -0.8069  -0.6693  -0.5920  -0.4729  -0.3691  -0.1610  -0.0920
    -0.0274  -0.0153   0.1322   0.1729   0.3875   0.4908   0.5648   0.6988
     0.7233   0.8335   0.9835   1.0425   1.0900   1.1858   1.2870   1.3233
     1.4208   1.5520   1.6565   1.7565   1.7871   1.8777   1.9229   2.0187
     2.0646   2.1740   2.1979   2.2732   2.3456   2.3805   2.3856   2.4819
     2.5413   2.5634   2.6395   2.6922   2.7209   2.7385   2.8152   2.8772
     2.9379   2.9966   3.1170   3.1327   3.1578   3.1951   3.4095   3.5339
     3.6832   3.9252   4.0595   4.4786   7.1531   7.6053   7.7445   9.2935
     9.4717  10.1442  10.6705  10.9903  11.5232  11.6932  11.7945  11.9000
    12.1334  12.2494  12.3147  12.5010  12.6427  12.7984  12.8489  12.9791
    13.0240  13.1024  13.1540  13.2589  13.3927

     occupation numbers 
     1.0000   1.0000   1.0000   1.0000   1.0000   1.0000   1.0000   1.0000
     1.0000   1.0000   1.0000   1.0000   1.0000   1.0000   1.0000   1.0000
     1.0000   1.0000   1.0000   1.0000   1.0000   1.0000   1.0000   1.0000
     1.0000   1.0000   1.0000   1.0000   1.0000   1.0000   1.0000   1.0000
     1.0000   1.0000   1.0000   1.0000   1.0000   1.0000   1.0000   1.0000
     1.0000   1.0000   1.0000   1.0000   1.0000   1.0000   1.0000   1.0000
     1.0000   1.0000   1.0000   1.0000   1.0000   1.0000   1.0000   1.0000
     1.0000   1.0000   1.0000   1.0000   1.0000   1.0000   1.0000   1.0000
     1.0000   1.0000   1.0000   1.0000   1.0000   1.0000   1.0000   1.0000
     1.0000   1.0000   1.0000   1.0000   1.0000   1.0000   1.0000   1.0000
     1.0000   1.0000   1.0000   1.0000   1.0000   1.0000   1.0000   1.0000
     1.0000   1.0000   1.0000   1.0000   1.0000   1.0000   1.0000   1.0000
     1.0000   1.0000   1.0000   1.0000   1.0000   1.0000   1.0000   1.0000
     1.0000   1.0000   1.0000   1.0000   1.0000   1.0000   1.0000   1.0000
     1.0000   1.0000   1.0000   1.0000   1.0000   1.0000   1.0000   1.0000
     1.0000   1.0000   1.0000   1.0000   0.0000   0.0000   0.0000   0.0000
     0.0000   0.0000   0.0000   0.0000   0.0000   0.0000   0.0000   0.0000
     0.0000   0.0000   0.0000   0.0000   0.0000   0.0000   0.0000   0.0000
     0.0000   0.0000   0.0000   0.0000   0.0000

          k = 0.3333 0.0000 0.2326 ( 26737 PWs)   bands (ev):

   -68.4994 -68.1885 -67.8699 -67.6726 -52.3789 -35.2512 -35.2507 -35.2477
   -34.9507 -34.9345 -34.9339 -34.6659 -34.6473 -34.5528 -34.4544 -34.4107
   -34.4031 -28.6985 -28.6872 -28.5703 -23.7576 -23.6959 -15.2753 -15.2624
   -14.7341 -14.7128 -14.3915 -14.3570 -14.2922 -14.1298 -13.7164 -13.7021
   -13.4322 -13.4031 -13.3697 -13.2060 -13.1494 -13.1359 -13.0710 -13.0142
   -12.9304 -12.8433 -12.3503 -12.2975 -12.2037 -11.9877  -7.3236  -7.2243
    -7.2104  -7.1964  -7.1824  -7.1734  -4.2429  -4.1864  -3.0193  -2.9708
    -2.4788  -2.2712  -2.2396  -1.9042  -1.2953  -1.2628  -1.1934  -1.1724
    -1.0545  -0.8447  -0.6421  -0.6253  -0.5038  -0.3552  -0.1668  -0.0796
    -0.0529  -0.0294   0.1350   0.1848   0.3713   0.5202   0.5722   0.7039
     0.7291   0.8574   0.9307   1.0470   1.1501   1.2274   1.2833   1.3269
     1.4799   1.5740   1.5949   1.6886   1.7694   1.8557   1.9345   2.0163
     2.1104   2.1451   2.1986   2.2521   2.3527   2.3889   2.3967   2.4734
     2.5325   2.5546   2.6343   2.6790   2.7689   2.7714   2.8253   2.8786
     2.9556   2.9670   3.0638   3.1164   3.1563   3.1941   3.4154   3.5456
     3.6832   3.9284   4.0646   4.4771   7.1548   7.6048   7.7474   9.2825
     9.6155  10.1355  10.4418  11.0495  11.5358  11.5913  11.6658  12.0058
    12.1031  12.2615  12.3241  12.6654  12.7577  12.8355  12.8737  12.9798
    13.0782  13.1161  13.1851  13.2387  13.2567

     occupation numbers 
     1.0000   1.0000   1.0000   1.0000   1.0000   1.0000   1.0000   1.0000
     1.0000   1.0000   1.0000   1.0000   1.0000   1.0000   1.0000   1.0000
     1.0000   1.0000   1.0000   1.0000   1.0000   1.0000   1.0000   1.0000
     1.0000   1.0000   1.0000   1.0000   1.0000   1.0000   1.0000   1.0000
     1.0000   1.0000   1.0000   1.0000   1.0000   1.0000   1.0000   1.0000
     1.0000   1.0000   1.0000   1.0000   1.0000   1.0000   1.0000   1.0000
     1.0000   1.0000   1.0000   1.0000   1.0000   1.0000   1.0000   1.0000
     1.0000   1.0000   1.0000   1.0000   1.0000   1.0000   1.0000   1.0000
     1.0000   1.0000   1.0000   1.0000   1.0000   1.0000   1.0000   1.0000
     1.0000   1.0000   1.0000   1.0000   1.0000   1.0000   1.0000   1.0000
     1.0000   1.0000   1.0000   1.0000   1.0000   1.0000   1.0000   1.0000
     1.0000   1.0000   1.0000   1.0000   1.0000   1.0000   1.0000   1.0000
     1.0000   1.0000   1.0000   1.0000   1.0000   1.0000   1.0000   1.0000
     1.0000   1.0000   1.0000   1.0000   1.0000   1.0000   1.0000   1.0000
     1.0000   1.0000   1.0000   1.0000   1.0000   1.0000   1.0000   1.0000
     1.0000   1.0000   1.0000   1.0000   0.0000   0.0000   0.0000   0.0000
     0.0000   0.0000   0.0000   0.0000   0.0000   0.0000   0.0000   0.0000
     0.0000   0.0000   0.0000   0.0000   0.0000   0.0000   0.0000   0.0000
     0.0000   0.0000   0.0000   0.0000   0.0000

          k = 0.3333 0.0000-0.1134 ( 26755 PWs)   bands (ev):

   -68.4994 -68.1885 -67.8699 -67.6726 -52.3789 -35.2512 -35.2507 -35.2477
   -34.9507 -34.9345 -34.9339 -34.6659 -34.6473 -34.5528 -34.4544 -34.4107
   -34.4031 -28.6985 -28.6872 -28.5703 -23.7576 -23.6959 -15.2834 -15.2539
   -14.7314 -14.7156 -14.3954 -14.3497 -14.2958 -14.1298 -13.7183 -13.6996
   -13.4200 -13.4171 -13.3708 -13.2003 -13.1495 -13.1420 -13.0708 -13.0108
   -12.9274 -12.8463 -12.3505 -12.2986 -12.2037 -11.9866  -7.3236  -7.2243
    -7.2104  -7.1964  -7.1824  -7.1734  -4.2164  -4.2135  -3.0254  -2.9645
    -2.4818  -2.2943  -2.2146  -1.9017  -1.3050  -1.2877  -1.1890  -1.1455
    -1.0589  -0.8237  -0.6697  -0.5974  -0.4833  -0.3759  -0.1844  -0.1002
    -0.0472  -0.0015   0.1174   0.1954   0.3631   0.5196   0.5621   0.7011
     0.7781   0.8594   0.9727   1.0553   1.1091   1.1648   1.2723   1.3216
     1.4433   1.5859   1.6120   1.7248   1.7808   1.8202   1.9331   2.0256
     2.1427   2.1874   2.2102   2.2468   2.3375   2.3739   2.3987   2.4611
     2.5181   2.5705   2.6291   2.6633   2.7490   2.7614   2.8184   2.8796
     2.9617   3.0473   3.0680   3.0910   3.1543   3.1765   3.4080   3.5406
     3.6804   3.9337   4.0686   4.4779   7.1556   7.6028   7.7487   9.2838
     9.6452   9.8798  10.6903  11.1288  11.5169  11.6145  11.8080  12.0917
    12.1184  12.1742  12.2241  12.5471  12.6263  12.7842  12.8337  13.0041
    13.0343  13.1220  13.1501  13.2134  13.4357

     occupation numbers 
     1.0000   1.0000   1.0000   1.0000   1.0000   1.0000   1.0000   1.0000
     1.0000   1.0000   1.0000   1.0000   1.0000   1.0000   1.0000   1.0000
     1.0000   1.0000   1.0000   1.0000   1.0000   1.0000   1.0000   1.0000
     1.0000   1.0000   1.0000   1.0000   1.0000   1.0000   1.0000   1.0000
     1.0000   1.0000   1.0000   1.0000   1.0000   1.0000   1.0000   1.0000
     1.0000   1.0000   1.0000   1.0000   1.0000   1.0000   1.0000   1.0000
     1.0000   1.0000   1.0000   1.0000   1.0000   1.0000   1.0000   1.0000
     1.0000   1.0000   1.0000   1.0000   1.0000   1.0000   1.0000   1.0000
     1.0000   1.0000   1.0000   1.0000   1.0000   1.0000   1.0000   1.0000
     1.0000   1.0000   1.0000   1.0000   1.0000   1.0000   1.0000   1.0000
     1.0000   1.0000   1.0000   1.0000   1.0000   1.0000   1.0000   1.0000
[...]
     atom    4 type  5   force =    -0.00000140    0.00013551    0.00000143
     atom    5 type  5   force =    -0.00000214   -0.00029968    0.00000143
     atom    6 type  5   force =    -0.00000214    0.00110035    0.00000143
     atom    7 type  7   force =     0.00290936    0.01113475   -0.00142934
     atom    8 type  7   force =    -0.00290816    0.01113474    0.00142875
     atom    9 type  7   force =    -0.00130107   -0.00013305   -0.01398329
     atom   10 type  7   force =     0.00130190   -0.00013299    0.01398246
     atom   11 type  7   force =    -0.00139230   -0.01200414    0.00921559
     atom   12 type  7   force =     0.00139300   -0.01200410   -0.00921619
     atom   13 type  1   force =    -0.00094446   -0.00043049   -0.00390477
     atom   14 type  1   force =     0.00094512   -0.00043049    0.00390439
     atom   15 type  6   force =     0.00162512   -0.00116222    0.00602576
     atom   16 type  6   force =    -0.00162483   -0.00116224   -0.00602572
     atom   17 type  6   force =    -0.00049183   -0.00021900   -0.00701215
     atom   18 type  6   force =     0.00049219   -0.00021904    0.00701211
     atom   19 type  6   force =    -0.00007346   -0.00002367    0.00693215
     atom   20 type  6   force =     0.00007376   -0.00002366   -0.00693219
     atom   21 type  6   force =     0.00145646   -0.00083359   -0.00320974
     atom   22 type  6   force =    -0.00145625   -0.00083360    0.00320959
     atom   23 type  6   force =     0.00463451   -0.00167010   -0.00501919
     atom   24 type  6   force =    -0.00463447   -0.00167000    0.00501899
     atom   25 type  6   force =    -0.00237503    0.00022930   -0.00714503
     atom   26 type  6   force =     0.00237547    0.00022932    0.00714477
     atom   27 type  6   force =    -0.00106588    0.00153337    0.00759286
     atom   28 type  6   force =     0.00106589    0.00153354   -0.00759304
     atom   29 type  6   force =     0.00070157   -0.00180293   -0.00755843
     atom   30 type  6   force =    -0.00070156   -0.00180273    0.00755821
     atom   31 type  6   force =    -0.00222038   -0.00302304   -0.00654669
     atom   32 type  6   force =     0.00222067   -0.00302307    0.00654645
     atom   33 type  6   force =     0.00116787    0.00383127    0.00708862
     atom   34 type  6   force =    -0.00116767    0.00383138   -0.00708889
     atom   35 type  6   force =     0.00220361    0.00116667    0.01104581
     atom   36 type  6   force =    -0.00220306    0.00116671   -0.01104565
     atom   37 type  6   force =     0.00572482   -0.01075262   -0.00218910
     atom   38 type  6   force =    -0.00572448   -0.01075288    0.00218871
     atom   39 type  3   force =     0.00000000    0.00000000    0.00000000
     atom   40 type  3   force =     0.00000000    0.00000000    0.00000000
     atom   41 type  3   force =     0.00000000    0.00000000    0.00000000
     atom   42 type  3   force =     0.00000000    0.00000000    0.00000000
     atom   43 type  2   force =     0.00000469   -0.00025092   -0.00000474
     The Hubbard contrib.    to forces
     atom    1 type  4   force =     0.00000000    0.00000000    0.00000000
     atom    2 type  4   force =     0.00000000    0.00000000    0.00000000
     atom    3 type  5   force =     0.00000000    0.00000000    0.00000000
     atom    4 type  5   force =     0.00000000    0.00000000    0.00000000
     atom    5 type  5   force =     0.00000000    0.00000000    0.00000000
     atom    6 type  5   force =     0.00000000    0.00000000    0.00000000
     atom    7 type  7   force =     0.00000000    0.00000000    0.00000000
     atom    8 type  7   force =     0.00000000    0.00000000    0.00000000
     atom    9 type  7   force =     0.00000000    0.00000000    0.00000000
     atom   10 type  7   force =     0.00000000    0.00000000    0.00000000
     atom   11 type  7   force =     0.00000000    0.00000000    0.00000000
     atom   12 type  7   force =     0.00000000    0.00000000    0.00000000
     atom   13 type  1   force =     0.00000000    0.00000000    0.00000000
     atom   14 type  1   force =     0.00000000    0.00000000    0.00000000
     atom   15 type  6   force =     0.00000000    0.00000000    0.00000000
     atom   16 type  6   force =     0.00000000    0.00000000    0.00000000
     atom   17 type  6   force =     0.00000000    0.00000000    0.00000000
     atom   18 type  6   force =     0.00000000    0.00000000    0.00000000
     atom   19 type  6   force =     0.00000000    0.00000000    0.00000000
     atom   20 type  6   force =     0.00000000    0.00000000    0.00000000
     atom   21 type  6   force =     0.00000000    0.00000000    0.00000000
     atom   22 type  6   force =     0.00000000    0.00000000    0.00000000
     atom   23 type  6   force =     0.00000000    0.00000000    0.00000000
     atom   24 type  6   force =     0.00000000    0.00000000    0.00000000
     atom   25 type  6   force =     0.00000000    0.00000000    0.00000000
     atom   26 type  6   force =     0.00000000    0.00000000    0.00000000
     atom   27 type  6   force =     0.00000000    0.00000000    0.00000000
     atom   28 type  6   force =     0.00000000    0.00000000    0.00000000
     atom   29 type  6   force =     0.00000000    0.00000000    0.00000000
     atom   30 type  6   force =     0.00000000    0.00000000    0.00000000
     atom   31 type  6   force =     0.00000000    0.00000000    0.00000000
     atom   32 type  6   force =     0.00000000    0.00000000    0.00000000
     atom   33 type  6   force =     0.00000000    0.00000000    0.00000000
     atom   34 type  6   force =     0.00000000    0.00000000    0.00000000
     atom   35 type  6   force =     0.00000000    0.00000000    0.00000000
     atom   36 type  6   force =     0.00000000    0.00000000    0.00000000
     atom   37 type  6   force =     0.00000000    0.00000000    0.00000000
     atom   38 type  6   force =     0.00000000    0.00000000    0.00000000
     atom   39 type  3   force =     0.00000000    0.00000000    0.00000000
     atom   40 type  3   force =     0.00000000    0.00000000    0.00000000
     atom   41 type  3   force =     0.00000000    0.00000000    0.00000000
     atom   42 type  3   force =     0.00000000    0.00000000    0.00000000
     atom   43 type  2   force =     0.00000000    0.00000000    0.00000000
     The SCF correction term to forces
     atom    1 type  4   force =    -0.00000000    0.00000308    0.00000000
     atom    2 type  4   force =     0.00000000   -0.00000204    0.00000000
     atom    3 type  5   force =     0.00000000   -0.00001185    0.00000000
     atom    4 type  5   force =     0.00000000    0.00000991   -0.00000000
     atom    5 type  5   force =    -0.00000000    0.00001900    0.00000000
     atom    6 type  5   force =    -0.00000000   -0.00004712    0.00000000
     atom    7 type  7   force =    -0.00000038   -0.00000667   -0.00000591
     atom    8 type  7   force =     0.00000038   -0.00000667    0.00000591
     atom    9 type  7   force =    -0.00000177    0.00000303   -0.00000750
     atom   10 type  7   force =     0.00000177    0.00000303    0.00000750
     atom   11 type  7   force =    -0.00000115   -0.00000073    0.00000310
     atom   12 type  7   force =     0.00000115   -0.00000073   -0.00000311
     atom   13 type  1   force =     0.00000103    0.00000125    0.00000317
     atom   14 type  1   force =    -0.00000103    0.00000125   -0.00000317
     atom   15 type  6   force =     0.00000248    0.00000473    0.00000366
     atom   16 type  6   force =    -0.00000248    0.00000473   -0.00000366
     atom   17 type  6   force =    -0.00000443   -0.00001073   -0.00004501
     atom   18 type  6   force =     0.00000443   -0.00001073    0.00004501
     atom   19 type  6   force =    -0.00000406   -0.00000663    0.00004182
     atom   20 type  6   force =     0.00000406   -0.00000663   -0.00004182
     atom   21 type  6   force =     0.00000505    0.00000635    0.00000730
     atom   22 type  6   force =    -0.00000505    0.00000635   -0.00000730
     atom   23 type  6   force =     0.00000032    0.00000640   -0.00000145
     atom   24 type  6   force =    -0.00000032    0.00000640    0.00000145
     atom   25 type  6   force =    -0.00000078    0.00000800   -0.00002875
     atom   26 type  6   force =     0.00000077    0.00000800    0.00002875
     atom   27 type  6   force =     0.00000438   -0.00000106    0.00002502
     atom   28 type  6   force =    -0.00000438   -0.00000106   -0.00002502
     atom   29 type  6   force =     0.00000620   -0.00000687   -0.00002453
     atom   30 type  6   force =    -0.00000620   -0.00000687    0.00002453
     atom   31 type  6   force =    -0.00000110   -0.00001483   -0.00000551
     atom   32 type  6   force =     0.00000110   -0.00001483    0.00000551
     atom   33 type  6   force =    -0.00000133    0.00000269   -0.00000110
     atom   34 type  6   force =     0.00000133    0.00000269    0.00000110
     atom   35 type  6   force =     0.00000407    0.00000628    0.00000399
     atom   36 type  6   force =    -0.00000407    0.00000628   -0.00000399
     atom   37 type  6   force =    -0.00000779    0.00000717    0.00001444
     atom   38 type  6   force =     0.00000779    0.00000717   -0.00001444
     atom   39 type  3   force =     0.00000029    0.00000018   -0.00000004
     atom   40 type  3   force =    -0.00000029    0.00000018    0.00000004
     atom   41 type  3   force =    -0.00000307    0.00000507    0.00000052
     atom   42 type  3   force =     0.00000307    0.00000507   -0.00000052
     atom   43 type  2   force =    -0.00000000    0.00000535    0.00000000

     DFT-D3 dispersion contribution to forces:
     atom    1 type  4   force =     0.00000001    0.00054127   -0.00000000
     atom    2 type  4   force =     0.00000000   -0.00114474   -0.00000000
     atom    3 type  5   force =    -0.00000000    0.00017199   -0.00000000
     atom    4 type  5   force =    -0.00000000   -0.00087451   -0.00000000
     atom    5 type  5   force =     0.00000000   -0.00124513   -0.00000000
     atom    6 type  5   force =     0.00000000    0.00142812   -0.00000000
     atom    7 type  7   force =     0.00072071   -0.00004400    0.00055364
     atom    8 type  7   force =    -0.00072070   -0.00004400   -0.00055364
     atom    9 type  7   force =    -0.00003957   -0.00034548    0.00052078
     atom   10 type  7   force =     0.00003957   -0.00034548   -0.00052078
     atom   11 type  7   force =    -0.00013241    0.00000768   -0.00045345
     atom   12 type  7   force =     0.00013241    0.00000768    0.00045345
     atom   13 type  1   force =     0.00066348   -0.00018865   -0.00169002
     atom   14 type  1   force =    -0.00066348   -0.00018865    0.00169002
     atom   15 type  6   force =     0.00044852   -0.00009911    0.00059334
     atom   16 type  6   force =    -0.00044852   -0.00009911   -0.00059334
     atom   17 type  6   force =    -0.00004750   -0.00008906   -0.00039122
     atom   18 type  6   force =     0.00004750   -0.00008906    0.00039122
     atom   19 type  6   force =    -0.00000482   -0.00012953    0.00035456
     atom   20 type  6   force =     0.00000482   -0.00012953   -0.00035456
     atom   21 type  6   force =     0.00049436   -0.00023134   -0.00003060
     atom   22 type  6   force =    -0.00049436   -0.00023134    0.00003060
     atom   23 type  6   force =    -0.00017151    0.00110977    0.00052610
     atom   24 type  6   force =     0.00017151    0.00110977   -0.00052610
     atom   25 type  6   force =     0.00078265    0.00000903    0.00016823
     atom   26 type  6   force =    -0.00078266    0.00000903   -0.00016823
     atom   27 type  6   force =     0.00018034   -0.00035287   -0.00017991
     atom   28 type  6   force =    -0.00018035   -0.00035287    0.00017991
     atom   29 type  6   force =    -0.00026969    0.00027533    0.00013406
     atom   30 type  6   force =     0.00026969    0.00027533   -0.00013405
     atom   31 type  6   force =     0.00090840   -0.00041260    0.00032875
     atom   32 type  6   force =    -0.00090841   -0.00041260   -0.00032875
     atom   33 type  6   force =     0.00062795   -0.00043074   -0.00015189
     atom   34 type  6   force =    -0.00062795   -0.00043074    0.00015189
     atom   35 type  6   force =     0.00015995    0.00037149   -0.00068339
     atom   36 type  6   force =    -0.00015995    0.00037149    0.00068339
     atom   37 type  6   force =    -0.00048640    0.00038712   -0.00015452
     atom   38 type  6   force =     0.00048640    0.00038712    0.00015452
     atom   39 type  3   force =     0.00025087    0.00041483   -0.00036155
     atom   40 type  3   force =    -0.00025087    0.00041483    0.00036155
     atom   41 type  3   force =    -0.00051872    0.00082099   -0.00010184
     atom   42 type  3   force =     0.00051872    0.00082099    0.00010184
     atom   43 type  2   force =    -0.00000000   -0.00102274   -0.00000000

     Total force =     0.002417     Total SCF correction =     0.000132

     DFT-D3 dispersion Force =     0.005668


     Computing stress (Cartesian axis) and pressure

          total   stress  (Ry/bohr**3)                   (kbar)     P=       -0.15
  -0.00000302   0.00000000   0.00000064           -0.44        0.00        0.09
   0.00000000  -0.00000133   0.00000000            0.00       -0.19        0.00
   0.00000064   0.00000000   0.00000127            0.09        0.00        0.19

     kinetic stress (kbar)  18491.07      0.00    -15.65
                                0.00  18368.20      0.00
                              -15.65      0.00  18367.32

     local   stress (kbar) -27836.69     -0.00   -148.74
                               -0.00 -27677.73      0.00
                             -148.74      0.00   5778.65

     nonloc. stress (kbar)   3890.35      0.00     -5.79
                                0.00   3892.17      0.00
                               -5.79      0.00   3879.65

     hartree stress (kbar)  15636.18      0.00     12.02
                                0.00  15482.36      0.00
                               12.02      0.00   -756.10

     exc-cor stress (kbar)  -2354.12      0.00      1.25
                                0.00  -2353.60      0.00
                                1.25      0.00  -2354.02

     corecor stress (kbar)  -1980.43     -0.00     -0.26
                               -0.00  -1979.89     -0.00
                               -0.26     -0.00  -1980.49

     ewald   stress (kbar)  -5832.38     -0.00    157.25
                               -0.00  -5717.78     -0.00
                              157.25     -0.00 -22923.25

     hubbard stress (kbar)      0.00      0.00      0.00
                                0.00      0.00      0.00
                                0.00      0.00      0.00

     DFT-D   stress (kbar)    -14.43      0.00      0.02
                                0.00    -13.91      0.00
                                0.02      0.00    -11.59

     XDM     stress (kbar)      0.00      0.00      0.00
                                0.00      0.00      0.00
                                0.00      0.00      0.00

     dft-nl  stress (kbar)      0.00      0.00      0.00
                                0.00      0.00      0.00
                                0.00      0.00      0.00

     TS-vdW  stress (kbar)      0.00      0.00      0.00
                                0.00      0.00      0.00
                                0.00      0.00      0.00

     MDB     stress (kbar)      0.00      0.00      0.00
                                0.00      0.00      0.00
                                0.00      0.00      0.00

     3D-RISM stress (kbar)      0.00      0.00      0.00
                                0.00      0.00      0.00
                                0.00      0.00      0.00


     Writing all to output data dir ./temp/phl-ti1-ti2-v6.save/ :
     XML data file, charge density, pseudopotentials, collected wavefunctions

     init_run     :    671.44s CPU    683.74s WALL (       2 calls)
     electrons    : 213208.33s CPU 214558.61s WALL (      16 calls)
     update_pot   :     31.08s CPU     31.81s WALL (      14 calls)
     forces       :   4117.46s CPU   4138.24s WALL (      16 calls)
     force_dftd3  :     38.36s CPU     38.49s WALL (      16 calls)
     stress       :   6590.06s CPU   6664.70s WALL (      16 calls)
     stres_dftd3  :     39.22s CPU     39.37s WALL (      16 calls)

     Called by init_run:
     wfcinit      :    650.65s CPU    660.38s WALL (       2 calls)
     wfcinit:atom :      1.07s CPU      1.10s WALL (      80 calls)
     wfcinit:wfcr :    643.71s CPU    653.27s WALL (      80 calls)
     potinit      :      4.38s CPU      4.57s WALL (       2 calls)
     hinit0       :      1.62s CPU      1.78s WALL (       2 calls)

     Called by electrons:
     c_bands      : 195785.18s CPU 196816.97s WALL (     162 calls)
     sum_band     :  16034.05s CPU  16258.34s WALL (     162 calls)
     v_of_rho     :    105.82s CPU    110.57s WALL (     164 calls)
     v_h          :      5.90s CPU      6.17s WALL (     164 calls)
     v_xc         :    119.56s CPU    125.00s WALL (     196 calls)
     newd         :   1143.18s CPU   1240.73s WALL (     164 calls)
     PAW_pot      :    234.46s CPU    234.85s WALL (     178 calls)
     mix_rho      :     23.49s CPU     24.28s WALL (     162 calls)
     energy_dftd3 :     29.97s CPU     30.12s WALL (      16 calls)

     Called by c_bands:
     init_us_2    :    606.49s CPU    613.18s WALL (   14880 calls)
     cegterg      : 195160.35s CPU 196182.81s WALL (    6525 calls)

     Called by sum_band:
     sum_band:wei :      0.06s CPU      0.06s WALL (     162 calls)
     sum_band:loo :  13290.22s CPU  13396.50s WALL (     162 calls)
     sum_band:buf :     77.29s CPU     78.28s WALL (    6480 calls)
     sum_band:ini :    271.73s CPU    274.75s WALL (    6480 calls)
     sum_band:cal :  10148.84s CPU  10175.59s WALL (    7040 calls)
     sum_band:bec :     12.00s CPU     12.07s WALL (    7040 calls)
     addusdens    :   2711.30s CPU   2827.87s WALL (     162 calls)
                                        0.00s GPU  (     162 calls)
     addusd:skk   :      8.74s CPU     11.41s WALL (    1134 calls)
                                        0.00s GPU  (    1134 calls)

     Called by *egterg:
     cdiaghg      :   2579.27s CPU   2583.14s WALL (   43643 calls)
     cegterg:over :  23419.01s CPU  23485.34s WALL (   38282 calls)
     cegterg:upda :  14950.51s CPU  15010.02s WALL (   38282 calls)
     cegterg:last :  41686.32s CPU  41785.59s WALL (   19348 calls)
     h_psi        :  75572.42s CPU  76175.63s WALL (   44887 calls)
     s_psi        :  30550.97s CPU  30620.50s WALL (   44887 calls)
     g_psi        :     46.43s CPU     46.63s WALL (   38282 calls)

     Called by h_psi:
     h_psi:calbec :  30286.83s CPU  30362.28s WALL (   44887 calls)
     vloc_psi     :  14528.28s CPU  14930.17s WALL (   44887 calls)
     add_vuspsi   :  30585.67s CPU  30654.13s WALL (   44887 calls)

     General routines
     calbec       :  45060.59s CPU  45172.73s WALL (   55127 calls)
     fft          :     95.25s CPU    101.66s WALL (    4750 calls)
     ffts         :      2.62s CPU      2.78s WALL (     652 calls)
     fftw         :   8720.43s CPU   8918.75s WALL ( 7224386 calls)
     interpolate  :     10.12s CPU     10.57s WALL (     328 calls)

     Parallel routines

     PAW routines
     PAW_pot      :    234.46s CPU    234.85s WALL (     178 calls)
     PAW_symme    :      0.14s CPU      0.14s WALL (     340 calls)

     PWSCF        :   2d14h39m CPU   2d15h 4m WALL


   This run was terminated on:  11:24:58   2Apr2025            

=------------------------------------------------------------------------------=
   JOB DONE.
=------------------------------------------------------------------------------=
