
     Program PWSCF v.7.3.1 starts on  5Mar2025 at  0:38:58 

     This program is part of the open-source Quantum ESPRESSO suite
     for quantum simulation of materials; please cite
         "P. Giannozzi et al., J. Phys.:Condens. Matter 21 395502 (2009);
         "P. Giannozzi et al., J. Phys.:Condens. Matter 29 465901 (2017);
         "P. Giannozzi et al., J. Chem. Phys. 152 154105 (2020);
          URL http://www.quantum-espresso.org", 
     in publications or presentations arising from this work. More details at
     http://www.quantum-espresso.org/quote

     Parallel version (MPI), running on     6 processors

     MPI processes distributed on     1 nodes
     1823 MiB available memory on the printing compute node when the environment starts

     Reading input from relax.in

     Current dimensions of program PWSCF are:
     Max number of different atomic species (ntypx) = 10
     Max number of k-points (npk) =  40000
     Max angular momentum in pseudopotentials (lmaxx) =  4
     file Al.pbe-n-kjpaw_psl.1.0.0.UPF: wavefunction(s)  3S 3P renormalized
     file Ti.pbe-spn-kjpaw_psl.1.0.0.UPF: wavefunction(s)  3S 3P 3D renormalized
     file H.pbe-kjpaw_psl.1.0.0.UPF: wavefunction(s)  1S renormalized
     file K.pbe-spn-kjpaw_psl.1.0.0.UPF: wavefunction(s)  3S renormalized
     file Mg.pbe-spnl-kjpaw_psl.1.0.0.UPF: wavefunction(s)  2P renormalized
     file O.pbe-n-kjpaw_psl.1.0.0.UPF: wavefunction(s)  2S 2P renormalized
     file Si.pbe-n-kjpaw_psl.1.0.0.UPF: wavefunction(s)  3S 3P renormalized

     R & G space division:  proc/nbgrp/npool/nimage =       6
     Subspace diagonalization in iterative solution of the eigenvalue problem:
     a serial algorithm will be used


     Parallelization info
     --------------------
     sticks:   dense  smooth     PW     G-vecs:    dense   smooth      PW
     Min        1105     554    150                97744    34578    4918
     Max        1106     555    151                97745    34580    4920
     Sum        6633    3329    905               586467   207475   29511

     Using Slab Decomposition



     bravais-lattice index     =          -12
     lattice parameter (alat)  =      10.0136  a.u.
     unit-cell volume          =    3303.4414 (a.u.)^3
     number of atoms/cell      =           43
     number of atomic types    =            7
     number of electrons       =       248.00
     number of Kohn-Sham states=          149
     kinetic-energy cutoff     =      60.0000  Ry
     charge density cutoff     =     480.0000  Ry
     scf convergence threshold =      1.0E-06
     mixing beta               =       0.7000
     number of iterations used =            8  plain     mixing
     energy convergence thresh.=      1.0E-04
     force convergence thresh. =      1.0E-03
     Exchange-correlation= SLA  PW   PBX  PBC
                           (   1   4   3   4   0   0   0)
     nstep                     =           50


     celldm(1)=  10.013640  celldm(2)=   1.735306  celldm(3)=   1.926511
     celldm(4)=   0.000000  celldm(5)=  -0.177565  celldm(6)=   0.000000

     crystal axes: (cart. coord. in units of alat)
               a(1) = (   1.000000   0.000000   0.000000 )  
               a(2) = (   0.000000   1.735306   0.000000 )  
               a(3) = (  -0.342081   0.000000   1.895896 )  

     reciprocal axes: (cart. coord. in units 2 pi/alat)
               b(1) = (  1.000000 -0.000000  0.180432 )  
               b(2) = (  0.000000  0.576267 -0.000000 )  
               b(3) = (  0.000000  0.000000  0.527455 )  


     PseudoPot. # 1 for Al read from file:
     ./../../../pseudos/Al.pbe-n-kjpaw_psl.1.0.0.UPF
     MD5 check sum: 502b6b27b9c6270cab5dd1084b96fa6d
     Pseudo is Projector augmented-wave + core cor, Zval =  3.0
     Generated using &quot;atomic&quot; code by A. Dal Corso  v.6.3
     Shape of augmentation charge: PSQ
     Using radial grid of 1135 points,  6 beta functions with: 
                l(1) =   0
                l(2) =   0
                l(3) =   1
                l(4) =   1
                l(5) =   2
                l(6) =   2
     Q(r) pseudized with 0 coefficients 


     PseudoPot. # 2 for Ti read from file:
     ./../../../pseudos/Ti.pbe-spn-kjpaw_psl.1.0.0.UPF
     MD5 check sum: 01f69b0d8ba4438b2e03ac6ea4af1c0b
     Pseudo is Projector augmented-wave + core cor, Zval = 12.0
     Generated using &quot;atomic&quot; code by A. Dal Corso  v.6.2.2
     Shape of augmentation charge: PSQ
     Using radial grid of 1177 points,  6 beta functions with: 
                l(1) =   0
                l(2) =   0
                l(3) =   1
                l(4) =   1
                l(5) =   2
                l(6) =   2
     Q(r) pseudized with 0 coefficients 


     PseudoPot. # 3 for H  read from file:
     ./../../../pseudos/H.pbe-kjpaw_psl.1.0.0.UPF
     MD5 check sum: d81a744832360e4a8af0b0b5b123bc2a
     Pseudo is Projector augmented-wave, Zval =  1.0
     Generated using &quot;atomic&quot; code by A. Dal Corso  v.6.3MaX
     Shape of augmentation charge: PSQ
     Using radial grid of  929 points,  2 beta functions with: 
                l(1) =   0
                l(2) =   0
     Q(r) pseudized with 0 coefficients 


     PseudoPot. # 4 for K  read from file:
     ./../../../pseudos/K.pbe-spn-kjpaw_psl.1.0.0.UPF
     MD5 check sum: 34cc42130a09071ebe376fd42eb21491
     Pseudo is Projector augmented-wave + core cor, Zval =  9.0
     Generated using &quot;atomic&quot; code by A. Dal Corso  v.6.2.2
     Shape of augmentation charge: PSQ
     Using radial grid of 1165 points,  6 beta functions with: 
                l(1) =   0
                l(2) =   0
                l(3) =   1
                l(4) =   1
                l(5) =   2
                l(6) =   2
     Q(r) pseudized with 0 coefficients 


     PseudoPot. # 5 for Mg read from file:
     ./../../../pseudos/Mg.pbe-spnl-kjpaw_psl.1.0.0.UPF
     MD5 check sum: fda14e0d92a6a9a5ebed782e5a4b3067
     Pseudo is Projector augmented-wave + core cor, Zval = 10.0
     Generated using &quot;atomic&quot; code by A. Dal Corso  v.6.3
     Shape of augmentation charge: PSQ
     Using radial grid of 1129 points,  4 beta functions with: 
                l(1) =   0
                l(2) =   0
                l(3) =   1
                l(4) =   1
     Q(r) pseudized with 0 coefficients 


     PseudoPot. # 6 for O  read from file:
     ./../../../pseudos/O.pbe-n-kjpaw_psl.1.0.0.UPF
     MD5 check sum: e99d9cef9b487d1ca56f5b95ecd0fd7a
     Pseudo is Projector augmented-wave + core cor, Zval =  6.0
     Generated using &quot;atomic&quot; code by A. Dal Corso  v.6.3
     Shape of augmentation charge: PSQ
     Using radial grid of 1095 points,  4 beta functions with: 
                l(1) =   0
                l(2) =   0
                l(3) =   1
                l(4) =   1
     Q(r) pseudized with 0 coefficients 


     PseudoPot. # 7 for Si read from file:
     ./../../../pseudos/Si.pbe-n-kjpaw_psl.1.0.0.UPF
     MD5 check sum: c39c59da582df4a0d9f10159256ea34e
     Pseudo is Projector augmented-wave + core cor, Zval =  4.0
     Generated using &quot;atomic&quot; code by A. Dal Corso  v.6.3
     Shape of augmentation charge: PSQ
     Using radial grid of 1141 points,  6 beta functions with: 
                l(1) =   0
                l(2) =   0
                l(3) =   1
                l(4) =   1
                l(5) =   2
                l(6) =   2
     Q(r) pseudized with 0 coefficients 


     atomic species   valence    mass     pseudopotential
     Al                3.00    26.98154     Al( 1.00)
     Ti               12.00    47.86700     Ti( 1.00)
     H                 1.00     1.00794     H ( 1.00)
     K                 9.00    39.09830     K ( 1.00)
     Mg               10.00    24.30500     Mg( 1.00)
     O                 6.00    15.99940     O ( 1.00)
     Si                4.00    28.08550     Si( 1.00)

     Starting magnetic structure 
     atomic species   magnetization
     Al              0.000
     Ti              0.300
     H               0.000
     K               0.000
     Mg              0.000
     O               0.000
     Si              0.000

      2 Sym. Ops. (no inversion) found


                                    s                        frac. trans.

      isym =  1     identity                                     

 cryst.   s( 1) = (     1          0          0      )
                  (     0          1          0      )
                  (     0          0          1      )

 cart.    s( 1) = (  1.0000000  0.0000000 -0.0000000 )
                  (  0.0000000  1.0000000  0.0000000 )
                  (  0.0000000  0.0000000  1.0000000 )


      isym =  2     180 deg rotation - cart. axis [0,1,0]        

 cryst.   s( 2) = (    -1          0          0      )
                  (     0          1          0      )
                  (     0          0         -1      )

 cart.    s( 2) = ( -1.0000000  0.0000000  0.0000000 )
                  (  0.0000000  1.0000000  0.0000000 )
                  (  0.0000000  0.0000000 -1.0000000 )


     point group C_2  (2)   
     there are  2 classes
     the character table:

       E     C2   
A      1.00  1.00
B      1.00 -1.00

     the symmetry operations in each class and the name of the first element:

     E        1
          identity                                               
     C2       2
          180 deg rotation - cart. axis [0,1,0]                  

   Cartesian axes

     site n.     atom                  positions (alat units)
         1        K      tau(   1) = (   0.0000000   0.8559224   0.0000000  )
         2        K      tau(   2) = (   0.5000000   0.0093568   0.0000000  )
         3        Mg     tau(   3) = (  -0.1710407   1.1543881   0.9479482  )
         4        Mg     tau(   4) = (   0.3289593   0.8562226   0.9479482  )
         5        Mg     tau(   5) = (   0.3289593   1.4480089   0.9479482  )
         6        Mg     tau(   6) = (   0.3289593   0.2986375   0.9479482  )
         7        Si     tau(   7) = (   0.0066674   0.2865251   0.4219393  )
         8        Si     tau(   8) = (   0.6512512   0.2865251   1.4739571  )
         9        Si     tau(   9) = (   0.6701371   1.4476688   1.4628623  )
        10        Si     tau(  10) = (  -0.0122184   1.4476688   0.4330341  )
        11        Si     tau(  11) = (   0.4872056   1.1568454   0.4292651  )
        12        Si     tau(  12) = (   0.1707131   1.1568454   1.4666313  )
        13        Al     tau(  13) = (   0.1506005   0.5746762   1.4713786  )
        14        Al     tau(  14) = (   0.5073182   0.5746762   0.4245178  )
        15        O      tau(  15) = (  -0.0043508   0.2833738   0.7297400  )
        16        O      tau(  16) = (   0.6622695   0.2833738   1.1661564  )
        17        O      tau(  17) = (   0.6658139   1.4451231   1.1576912  )
        18        O      tau(  18) = (  -0.0078952   1.4451231   0.7382052  )
        19        O      tau(  19) = (   0.4926234   1.1618863   0.7357690  )
        20        O      tau(  20) = (   0.1652953   1.1618863   1.1601274  )
        21        O      tau(  21) = (   0.1548298   0.5779784   1.1454267  )
        22        O      tau(  22) = (   0.5030889   0.5779784   0.7504697  )
        23        O      tau(  23) = (   0.2847398   0.3548857   0.3143567  )
        24        O      tau(  24) = (   0.3731789   0.3548857   1.5815397  )
        25        O      tau(  25) = (   0.9404978   1.7303189   0.3181314  )
        26        O      tau(  26) = (  -0.2825791   1.7303189   1.5777650  )
        27        O      tau(  27) = (   0.3988927   1.3439356   1.5754330  )
        28        O      tau(  28) = (   0.2590260   1.3439356   0.3204634  )
        29        O      tau(  29) = (   0.7582660   1.2710892   0.3185125  )
        30        O      tau(  30) = (  -0.1003473   1.2710892   1.5773839  )
        31        O      tau(  31) = (   0.4432368   0.8811364   0.3085875  )
        32        O      tau(  32) = (   0.2146819   0.8811364   1.5873090  )
        33        O      tau(  33) = (  -0.1423236   0.4782556   1.5925436  )
        34        O      tau(  34) = (   0.8002423   0.4782556   0.3033529  )
        35        O      tau(  35) = (  -0.0041068   0.8750247   0.7469263  )
        36        O      tau(  36) = (   0.6620255   0.8750247   1.1489701  )
        37        O      tau(  37) = (   0.4966158   1.7335917   0.7534577  )
        38        O      tau(  38) = (   0.1613029   1.7335917   1.1424387  )
        39        H      tau(  39) = (  -0.0032097   0.8603995   0.5673129  )
        40        H      tau(  40) = (   0.6611284   0.8603995   1.3285835  )
        41        H      tau(  41) = (   0.4926802   0.0219534   0.5746291  )
        42        H      tau(  42) = (   0.1652385   0.0219534   1.3212673  )
        43        Ti     tau(  43) = (  -0.1710407   0.5780843   0.9479482  )

     --------------------------------------------
     DFT-D3 Dispersion Correction (3-body terms):
     --------------------------------------------
       Reference C6 values for interpolation: 

         atom   Coordination number   C6
         H          0.912             6.05
         H          0.000            15.18
         O          0.000            31.01
         O          0.993            25.63
         O          1.989            20.74
         Mg         0.000          1366.75
         Mg         0.963           902.54
         Mg         1.950           351.12
         Al         0.000          1081.08
         Al         0.965           875.51
         Al         1.931           513.50
         Al         2.915           307.19
         Si         0.000           635.71
         Si         0.951           540.53
         Si         1.944           466.25
         Si         2.941           443.01
         Si         3.868           299.55
         K          0.000          9967.00
         K          0.977           676.04
         Ti         0.000          2723.84
         Ti         1.830           604.00
         Ti         3.868           643.18

       Values used:

         atom   Coordination number  R0_AB[au]  C6      C8
         K         13.606            4.007    676.04 129074.98
         K         13.784            4.007    676.04 129074.98
         Mg        11.010            3.292    351.12  31436.69
         Mg        12.001            3.292    351.12  31436.69
         Mg        10.175            3.292    351.12  31436.69
         Mg        10.569            3.292    351.12  31436.69
         Si         6.700            3.583    299.55  21425.58
         Si         6.700            3.583    299.55  21425.58
         Si         6.273            3.583    299.55  21425.58
         Si         6.273            3.583    299.55  21425.58
         Si         6.589            3.583    299.55  21425.58
         Si         6.589            3.583    299.55  21425.58
         Al         7.810            3.789    307.19  29441.29
         Al         7.810            3.789    307.19  29441.29
         O          2.943            2.345     20.74    418.58
         O          2.943            2.345     20.74    418.58
         O          2.977            2.345     20.74    418.58
         O          2.977            2.345     20.74    418.58
         O          3.906            2.345     20.74    418.58
         O          3.906            2.345     20.74    418.58
         O          3.976            2.345     20.74    418.58
         O          3.976            2.345     20.74    418.58
         O          3.191            2.345     20.74    418.58
         O          3.191            2.345     20.74    418.58
         O          3.139            2.345     20.74    418.58
         O          3.139            2.345     20.74    418.58
         O          3.055            2.345     20.74    418.58
         O          3.055            2.345     20.74    418.58
         O          3.058            2.345     20.74    418.58
         O          3.058            2.345     20.74    418.58
         O          3.190            2.345     20.74    418.58
         O          3.190            2.345     20.74    418.58
         O          3.260            2.345     20.74    418.58
         O          3.260            2.345     20.74    418.58
         O          3.990            2.345     20.74    418.58
         O          3.990            2.345     20.74    418.58
         O          3.022            2.345     20.74    418.58
         O          3.022            2.345     20.74    418.58
         H          1.316            2.062      6.07     73.33
         H          1.316            2.062      6.07     73.33
         H          1.268            2.062      6.07     73.40
         H          1.268            2.062      6.07     73.40
         Ti        10.944            3.557    643.18  76289.64

         Molecular C6 ( Ry / a.u.^6 ) =    158916.45


   Crystallographic axes

     site n.     atom                  positions (cryst. coord.)
         1        K      tau(   1) = (  0.0000000  0.4932400  0.0000000  )
         2        K      tau(   2) = (  0.5000000  0.0053920  0.0000000  )
         3        Mg     tau(   3) = (  0.0000000  0.6652360  0.5000000  )
         4        Mg     tau(   4) = (  0.5000000  0.4934130  0.5000000  )
         5        Mg     tau(   5) = (  0.5000000  0.8344400  0.5000000  )
         6        Mg     tau(   6) = (  0.5000000  0.1720950  0.5000000  )
         7        Si     tau(   7) = (  0.0827990  0.1651150  0.2225540  )
         8        Si     tau(   8) = (  0.9172010  0.1651150  0.7774460  )
         9        Si     tau(   9) = (  0.9340850  0.8342440  0.7715940  )
        10        Si     tau(  10) = (  0.0659150  0.8342440  0.2284060  )
        11        Si     tau(  11) = (  0.5646590  0.6666520  0.2264180  )
        12        Si     tau(  12) = (  0.4353410  0.6666520  0.7735820  )
        13        Al     tau(  13) = (  0.4160850  0.3311670  0.7760860  )
        14        Al     tau(  14) = (  0.5839150  0.3311670  0.2239140  )
        15        O      tau(  15) = (  0.1273180  0.1632990  0.3849050  )
        16        O      tau(  16) = (  0.8726820  0.1632990  0.6150950  )
        17        O      tau(  17) = (  0.8746990  0.8327770  0.6106300  )
        18        O      tau(  18) = (  0.1253010  0.8327770  0.3893700  )
        19        O      tau(  19) = (  0.6253800  0.6695570  0.3880850  )
        20        O      tau(  20) = (  0.3746200  0.6695570  0.6119150  )
        21        O      tau(  21) = (  0.3615020  0.3330700  0.6041610  )
        22        O      tau(  22) = (  0.6384980  0.3330700  0.3958390  )
        23        O      tau(  23) = (  0.3414600  0.2045090  0.1658090  )
        24        O      tau(  24) = (  0.6585400  0.2045090  0.8341910  )
        25        O      tau(  25) = (  0.9978990  0.9971260  0.1678000  )
        26        O      tau(  26) = (  0.0021010  0.9971260  0.8322000  )
        27        O      tau(  27) = (  0.6831520  0.7744660  0.8309700  )
        28        O      tau(  28) = (  0.3168480  0.7744660  0.1690300  )
        29        O      tau(  29) = (  0.8157360  0.7324870  0.1680010  )
        30        O      tau(  30) = (  0.1842640  0.7324870  0.8319990  )
        31        O      tau(  31) = (  0.4989160  0.5077700  0.1627660  )
        32        O      tau(  32) = (  0.5010840  0.5077700  0.8372340  )
        33        O      tau(  33) = (  0.1450230  0.2756030  0.8399950  )
        34        O      tau(  34) = (  0.8549770  0.2756030  0.1600050  )
        35        O      tau(  35) = (  0.1306630  0.5042480  0.3939700  )
        36        O      tau(  36) = (  0.8693370  0.5042480  0.6060300  )
        37        O      tau(  37) = (  0.6325640  0.9990120  0.3974150  )
        38        O      tau(  38) = (  0.3674360  0.9990120  0.6025850  )
        39        H      tau(  39) = (  0.0991520  0.4958200  0.2992320  )
        40        H      tau(  40) = (  0.9008480  0.4958200  0.7007680  )
        41        H      tau(  41) = (  0.5963620  0.0126510  0.3030910  )
        42        H      tau(  42) = (  0.4036380  0.0126510  0.6969090  )
        43        Ti     tau(  43) = (  0.0000000  0.3331310  0.5000000  )

     number of k points=    20  Gaussian smearing, width (Ry)=  0.0010
                       cart. coord. in units 2pi/alat
        k(    1) = (   0.0000000   0.0000000   0.0000000), wk =   0.0185185
        k(    2) = (   0.0000000   0.0000000   0.1758183), wk =   0.0370370
        k(    3) = (   0.0000000   0.1920891   0.0000000), wk =   0.0370370
        k(    4) = (   0.0000000   0.1920891   0.1758183), wk =   0.0740741
        k(    5) = (   0.1666667   0.0000000   0.0300721), wk =   0.0370370
        k(    6) = (   0.1666667   0.0000000   0.2058904), wk =   0.0370370
        k(    7) = (   0.1666667   0.0000000  -0.1457462), wk =   0.0370370
        k(    8) = (   0.1666667   0.1920891   0.0300721), wk =   0.0740741
        k(    9) = (   0.1666667   0.1920891   0.2058904), wk =   0.0740741
        k(   10) = (   0.1666667   0.1920891  -0.1457462), wk =   0.0740741
        k(   11) = (   0.3333333   0.0000000   0.0601442), wk =   0.0370370
        k(   12) = (   0.3333333   0.0000000   0.2359625), wk =   0.0370370
        k(   13) = (   0.3333333   0.0000000  -0.1156742), wk =   0.0370370
        k(   14) = (   0.3333333   0.1920891   0.0601442), wk =   0.0740741
        k(   15) = (   0.3333333   0.1920891   0.2359625), wk =   0.0740741
        k(   16) = (   0.3333333   0.1920891  -0.1156742), wk =   0.0740741
        k(   17) = (  -0.5000000   0.0000000  -0.0902162), wk =   0.0185185
        k(   18) = (  -0.5000000   0.0000000   0.0856021), wk =   0.0370370
        k(   19) = (  -0.5000000   0.1920891  -0.0902162), wk =   0.0370370
        k(   20) = (  -0.5000000   0.1920891   0.0856021), wk =   0.0740741

                       cryst. coord.
        k(    1) = (   0.0000000   0.0000000   0.0000000), wk =   0.0185185
        k(    2) = (   0.0000000   0.0000000   0.3333333), wk =   0.0370370
        k(    3) = (   0.0000000   0.3333333   0.0000000), wk =   0.0370370
        k(    4) = (   0.0000000   0.3333333   0.3333333), wk =   0.0740741
        k(    5) = (   0.1666667   0.0000000  -0.0000000), wk =   0.0370370
        k(    6) = (   0.1666667   0.0000000   0.3333333), wk =   0.0370370
        k(    7) = (   0.1666667   0.0000000  -0.3333333), wk =   0.0370370
        k(    8) = (   0.1666667   0.3333333  -0.0000000), wk =   0.0740741
        k(    9) = (   0.1666667   0.3333333   0.3333333), wk =   0.0740741
        k(   10) = (   0.1666667   0.3333333  -0.3333333), wk =   0.0740741
        k(   11) = (   0.3333333   0.0000000  -0.0000000), wk =   0.0370370
        k(   12) = (   0.3333333   0.0000000   0.3333333), wk =   0.0370370
        k(   13) = (   0.3333333   0.0000000  -0.3333333), wk =   0.0370370
        k(   14) = (   0.3333333   0.3333333  -0.0000000), wk =   0.0740741
        k(   15) = (   0.3333333   0.3333333   0.3333333), wk =   0.0740741
        k(   16) = (   0.3333333   0.3333333  -0.3333333), wk =   0.0740741
        k(   17) = (  -0.5000000   0.0000000   0.0000000), wk =   0.0185185
        k(   18) = (  -0.5000000   0.0000000   0.3333333), wk =   0.0370370
        k(   19) = (  -0.5000000   0.3333333   0.0000000), wk =   0.0370370
        k(   20) = (  -0.5000000   0.3333333   0.3333333), wk =   0.0740741

     Dense  grid:   586467 G-vectors     FFT dimensions: (  72, 125, 135)

     Smooth grid:   207475 G-vectors     FFT dimensions: (  50,  90,  96)

     Dynamical RAM for                 wfc:       9.82 MB

     Dynamical RAM for     wfc (w. buffer):     402.79 MB

     Dynamical RAM for           str. fact:      10.44 MB

     Dynamical RAM for           local pot:       0.00 MB

     Dynamical RAM for          nlocal pot:      28.35 MB

     Dynamical RAM for                qrad:      12.30 MB

     Dynamical RAM for          rho,v,vnew:      18.42 MB

     Dynamical RAM for               rhoin:       6.14 MB

     Dynamical RAM for            rho*nmix:      47.73 MB

     Dynamical RAM for           G-vectors:       5.86 MB

     Dynamical RAM for          h,s,v(r/c):       4.07 MB

     Dynamical RAM for          <psi|beta>:       0.98 MB

     Dynamical RAM for                 psi:      19.65 MB

     Dynamical RAM for                hpsi:      19.65 MB

     Dynamical RAM for                spsi:      19.65 MB

     Dynamical RAM for      wfcinit/wfcrot:      24.20 MB

     Dynamical RAM for           addusdens:     314.70 MB

     Dynamical RAM for          addusforce:     383.50 MB

     Estimated static dynamical RAM per process >     505.71 MB

     Estimated max dynamical RAM per process >     936.93 MB

     Estimated total dynamical RAM >       5.49 GB

     Check: negative core charge=   -0.000004
     Generating pointlists ...
     new r_m :   0.1345 (alat units)  1.3466 (a.u.) for type    1
     new r_m :   0.1572 (alat units)  1.5739 (a.u.) for type    2
     new r_m :   0.0743 (alat units)  0.7444 (a.u.) for type    3
     new r_m :   0.2122 (alat units)  2.1246 (a.u.) for type    4
     new r_m :   0.1578 (alat units)  1.5800 (a.u.) for type    5
     new r_m :   0.0743 (alat units)  0.7444 (a.u.) for type    6
     new r_m :   0.1255 (alat units)  1.2564 (a.u.) for type    7

     Initial potential from superposition of free atoms

     starting charge     247.9492, renormalised to     248.0000
     Starting wfcs are  178 randomized atomic wfcs
     Checking if some PAW data can be deallocated... 
       PAW data deallocated on    5 nodes for type:  1
       PAW data deallocated on    5 nodes for type:  2
       PAW data deallocated on    5 nodes for type:  3
       PAW data deallocated on    5 nodes for type:  4
       PAW data deallocated on    5 nodes for type:  5
       PAW data deallocated on    1 nodes for type:  6
       PAW data deallocated on    4 nodes for type:  7

     total cpu time spent up to now is      358.2 secs

     Self-consistent Calculation

     iteration #  1     ecut=    60.00 Ry     beta= 0.70
     Davidson diagonalization with overlap

---- Real-time Memory Report at c_bands before calling an iterative solver
           565 MiB given to the printing process from OS
             0 MiB allocation reported by mallinfo(arena+hblkhd)
           553 MiB available memory on the node where the printing process lives
------------------
     ethr =  1.00E-02,  avg # of iterations =  5.5

     total cpu time spent up to now is     1337.0 secs

     total energy              =   -2335.48508593 Ry
     estimated scf accuracy    <      13.99619547 Ry

     total magnetization       =    -0.00 Bohr mag/cell
     absolute magnetization    =     0.40 Bohr mag/cell

     iteration #  2     ecut=    60.00 Ry     beta= 0.70
     Davidson diagonalization with overlap

---- Real-time Memory Report at c_bands before calling an iterative solver
           861 MiB given to the printing process from OS
             0 MiB allocation reported by mallinfo(arena+hblkhd)
          1716 MiB available memory on the node where the printing process lives
------------------
     ethr =  5.64E-03,  avg # of iterations =  8.0

     total cpu time spent up to now is     2793.6 secs

     total energy              =   -2328.37367190 Ry
     estimated scf accuracy    <      95.84223279 Ry

     total magnetization       =    -0.00 Bohr mag/cell
     absolute magnetization    =     0.36 Bohr mag/cell

     iteration #  3     ecut=    60.00 Ry     beta= 0.70
     Davidson diagonalization with overlap

---- Real-time Memory Report at c_bands before calling an iterative solver
           863 MiB given to the printing process from OS
             0 MiB allocation reported by mallinfo(arena+hblkhd)
          1707 MiB available memory on the node where the printing process lives
------------------
     ethr =  5.64E-03,  avg # of iterations =  4.7

     total cpu time spent up to now is     3753.2 secs

     total energy              =   -2342.41970622 Ry
     estimated scf accuracy    <      11.57354245 Ry

     total magnetization       =     0.04 Bohr mag/cell
     absolute magnetization    =     0.26 Bohr mag/cell

     iteration #  4     ecut=    60.00 Ry     beta= 0.70
     Davidson diagonalization with overlap

---- Real-time Memory Report at c_bands before calling an iterative solver
           866 MiB given to the printing process from OS
             0 MiB allocation reported by mallinfo(arena+hblkhd)
          1685 MiB available memory on the node where the printing process lives
------------------
     ethr =  4.67E-03,  avg # of iterations =  2.0

     total cpu time spent up to now is     4607.6 secs

     total energy              =   -2343.09629717 Ry
     estimated scf accuracy    <       2.62815091 Ry

     total magnetization       =     0.00 Bohr mag/cell
     absolute magnetization    =     0.26 Bohr mag/cell

     iteration #  5     ecut=    60.00 Ry     beta= 0.70
     Davidson diagonalization with overlap

---- Real-time Memory Report at c_bands before calling an iterative solver
           868 MiB given to the printing process from OS
             0 MiB allocation reported by mallinfo(arena+hblkhd)
          1706 MiB available memory on the node where the printing process lives
------------------
     ethr =  1.06E-03,  avg # of iterations =  8.2

     total cpu time spent up to now is     5940.1 secs

     total energy              =   -2344.01586468 Ry
     estimated scf accuracy    <       0.96282021 Ry

     total magnetization       =     0.00 Bohr mag/cell
     absolute magnetization    =     0.48 Bohr mag/cell

     iteration #  6     ecut=    60.00 Ry     beta= 0.70
     Davidson diagonalization with overlap

---- Real-time Memory Report at c_bands before calling an iterative solver
           870 MiB given to the printing process from OS
             0 MiB allocation reported by mallinfo(arena+hblkhd)
          1683 MiB available memory on the node where the printing process lives
------------------
     c_bands:  4 eigenvalues not converged
     c_bands:  2 eigenvalues not converged
     c_bands:  4 eigenvalues not converged
     c_bands:  2 eigenvalues not converged
     c_bands:  1 eigenvalues not converged
     ethr =  3.88E-04,  avg # of iterations = 10.1

     total cpu time spent up to now is     6968.1 secs

     total energy              =   -2344.02832189 Ry
     estimated scf accuracy    <       0.40945940 Ry

     total magnetization       =    -0.00 Bohr mag/cell
     absolute magnetization    =     0.18 Bohr mag/cell

     iteration #  7     ecut=    60.00 Ry     beta= 0.70
     Davidson diagonalization with overlap

---- Real-time Memory Report at c_bands before calling an iterative solver
           873 MiB given to the printing process from OS
             0 MiB allocation reported by mallinfo(arena+hblkhd)
          1664 MiB available memory on the node where the printing process lives
------------------
     c_bands:  1 eigenvalues not converged
     c_bands:  2 eigenvalues not converged
     ethr =  1.65E-04,  avg # of iterations =  9.3

     total cpu time spent up to now is     8104.6 secs

     total energy              =   -2344.08495900 Ry
     estimated scf accuracy    <       0.05810400 Ry

     total magnetization       =     0.00 Bohr mag/cell
     absolute magnetization    =     0.12 Bohr mag/cell

     iteration #  8     ecut=    60.00 Ry     beta= 0.70
     Davidson diagonalization with overlap

---- Real-time Memory Report at c_bands before calling an iterative solver
           875 MiB given to the printing process from OS
             0 MiB allocation reported by mallinfo(arena+hblkhd)
          1697 MiB available memory on the node where the printing process lives
------------------
     c_bands:  1 eigenvalues not converged
     c_bands:  1 eigenvalues not converged
     c_bands:  4 eigenvalues not converged
     c_bands:  1 eigenvalues not converged
     c_bands:  1 eigenvalues not converged
     c_bands:  2 eigenvalues not converged
     c_bands:  1 eigenvalues not converged
     c_bands:  1 eigenvalues not converged
     c_bands:  2 eigenvalues not converged
     c_bands:  3 eigenvalues not converged
     c_bands:  1 eigenvalues not converged
     c_bands:  1 eigenvalues not converged
     c_bands:  1 eigenvalues not converged
     ethr =  2.34E-05,  avg # of iterations = 15.7

     total cpu time spent up to now is     9431.1 secs

     total energy              =   -2344.09743055 Ry
     estimated scf accuracy    <       0.02045711 Ry

     total magnetization       =    -0.00 Bohr mag/cell
     absolute magnetization    =     0.07 Bohr mag/cell

     iteration #  9     ecut=    60.00 Ry     beta= 0.70
     Davidson diagonalization with overlap

---- Real-time Memory Report at c_bands before calling an iterative solver
           877 MiB given to the printing process from OS
             0 MiB allocation reported by mallinfo(arena+hblkhd)
          1702 MiB available memory on the node where the printing process lives
------------------
     c_bands:  2 eigenvalues not converged
     c_bands:  1 eigenvalues not converged
     c_bands:  1 eigenvalues not converged
     c_bands:  1 eigenvalues not converged
     c_bands:  1 eigenvalues not converged
     c_bands:  1 eigenvalues not converged
     c_bands:  2 eigenvalues not converged
     c_bands:  1 eigenvalues not converged
     c_bands:  1 eigenvalues not converged
     ethr =  8.25E-06,  avg # of iterations = 10.8

     total cpu time spent up to now is    10433.3 secs

     total energy              =   -2344.09904445 Ry
     estimated scf accuracy    <       0.00672802 Ry

     total magnetization       =     0.00 Bohr mag/cell
     absolute magnetization    =     0.05 Bohr mag/cell

     iteration # 10     ecut=    60.00 Ry     beta= 0.70
     Davidson diagonalization with overlap

---- Real-time Memory Report at c_bands before calling an iterative solver
           880 MiB given to the printing process from OS
             0 MiB allocation reported by mallinfo(arena+hblkhd)
          1669 MiB available memory on the node where the printing process lives
------------------
     c_bands:  1 eigenvalues not converged
     c_bands:  2 eigenvalues not converged
     c_bands:  1 eigenvalues not converged
     c_bands:  2 eigenvalues not converged
     c_bands:  1 eigenvalues not converged
     c_bands:  3 eigenvalues not converged
     c_bands:  2 eigenvalues not converged
     c_bands:  2 eigenvalues not converged
     c_bands:  4 eigenvalues not converged
     ethr =  2.71E-06,  avg # of iterations = 11.8

     total cpu time spent up to now is    11677.2 secs

     total energy              =   -2344.10099201 Ry
     estimated scf accuracy    <       0.00236023 Ry

     total magnetization       =     0.00 Bohr mag/cell
     absolute magnetization    =     0.04 Bohr mag/cell

     iteration # 11     ecut=    60.00 Ry     beta= 0.70
     Davidson diagonalization with overlap

---- Real-time Memory Report at c_bands before calling an iterative solver
           880 MiB given to the printing process from OS
             0 MiB allocation reported by mallinfo(arena+hblkhd)
          1679 MiB available memory on the node where the printing process lives
------------------
     c_bands:  1 eigenvalues not converged
     c_bands:  1 eigenvalues not converged
     c_bands:  1 eigenvalues not converged
     c_bands:  1 eigenvalues not converged
     c_bands:  1 eigenvalues not converged
     c_bands:  1 eigenvalues not converged
     c_bands:  1 eigenvalues not converged
     c_bands:  1 eigenvalues not converged
     ethr =  9.52E-07,  avg # of iterations =  7.6

     total cpu time spent up to now is    12684.1 secs

     total energy              =   -2344.10294384 Ry
     estimated scf accuracy    <       0.07185631 Ry

     total magnetization       =     0.03 Bohr mag/cell
     absolute magnetization    =     0.19 Bohr mag/cell

     iteration # 12     ecut=    60.00 Ry     beta= 0.70
     Davidson diagonalization with overlap

---- Real-time Memory Report at c_bands before calling an iterative solver
           880 MiB given to the printing process from OS
             0 MiB allocation reported by mallinfo(arena+hblkhd)
          1697 MiB available memory on the node where the printing process lives
------------------
     ethr =  9.52E-07,  avg # of iterations =  1.9

     total cpu time spent up to now is    13477.1 secs

     total energy              =   -2344.10468992 Ry
     estimated scf accuracy    <       0.12070970 Ry

     total magnetization       =     0.05 Bohr mag/cell
     absolute magnetization    =     0.25 Bohr mag/cell

     iteration # 13     ecut=    60.00 Ry     beta= 0.70
     Davidson diagonalization with overlap

---- Real-time Memory Report at c_bands before calling an iterative solver
           880 MiB given to the printing process from OS
             0 MiB allocation reported by mallinfo(arena+hblkhd)
          1692 MiB available memory on the node where the printing process lives
------------------
     ethr =  9.52E-07,  avg # of iterations =  2.0

     total cpu time spent up to now is    14281.6 secs

     total energy              =   -2344.09833398 Ry
     estimated scf accuracy    <       0.63210261 Ry

     total magnetization       =    -0.01 Bohr mag/cell
     absolute magnetization    =     0.06 Bohr mag/cell

     iteration # 14     ecut=    60.00 Ry     beta= 0.70
     Davidson diagonalization with overlap

---- Real-time Memory Report at c_bands before calling an iterative solver
           880 MiB given to the printing process from OS
             0 MiB allocation reported by mallinfo(arena+hblkhd)
          1675 MiB available memory on the node where the printing process lives
------------------
     ethr =  9.52E-07,  avg # of iterations =  2.0

     total cpu time spent up to now is    15077.7 secs

     total energy              =   -2344.10079972 Ry
     estimated scf accuracy    <       0.01950864 Ry

     total magnetization       =     0.00 Bohr mag/cell
     absolute magnetization    =     0.11 Bohr mag/cell

     iteration # 15     ecut=    60.00 Ry     beta= 0.70
     Davidson diagonalization with overlap

---- Real-time Memory Report at c_bands before calling an iterative solver
           880 MiB given to the printing process from OS
             0 MiB allocation reported by mallinfo(arena+hblkhd)
          1688 MiB available memory on the node where the printing process lives
------------------
     ethr =  9.52E-07,  avg # of iterations =  2.0

     total cpu time spent up to now is    15886.4 secs

     total energy              =   -2344.10162231 Ry
     estimated scf accuracy    <       0.00008414 Ry

     total magnetization       =    -0.00 Bohr mag/cell
     absolute magnetization    =     0.05 Bohr mag/cell

     iteration # 16     ecut=    60.00 Ry     beta= 0.70
     Davidson diagonalization with overlap

---- Real-time Memory Report at c_bands before calling an iterative solver
           880 MiB given to the printing process from OS
             0 MiB allocation reported by mallinfo(arena+hblkhd)
          1677 MiB available memory on the node where the printing process lives
------------------
     ethr =  3.39E-08,  avg # of iterations =  8.2

     total cpu time spent up to now is    17677.6 secs

     total energy              =   -2344.10174836 Ry
     estimated scf accuracy    <       0.00063386 Ry

     total magnetization       =    -0.00 Bohr mag/cell
     absolute magnetization    =     0.06 Bohr mag/cell

     iteration # 17     ecut=    60.00 Ry     beta= 0.70
     Davidson diagonalization with overlap

---- Real-time Memory Report at c_bands before calling an iterative solver
           880 MiB given to the printing process from OS
             0 MiB allocation reported by mallinfo(arena+hblkhd)
          1680 MiB available memory on the node where the printing process lives
------------------
     ethr =  3.39E-08,  avg # of iterations =  1.8

     total cpu time spent up to now is    18454.8 secs

     total energy              =   -2344.10176467 Ry
     estimated scf accuracy    <       0.00101657 Ry

     total magnetization       =    -0.00 Bohr mag/cell
     absolute magnetization    =     0.06 Bohr mag/cell

     iteration # 18     ecut=    60.00 Ry     beta= 0.70
     Davidson diagonalization with overlap

---- Real-time Memory Report at c_bands before calling an iterative solver
           880 MiB given to the printing process from OS
             0 MiB allocation reported by mallinfo(arena+hblkhd)
          1670 MiB available memory on the node where the printing process lives
------------------
     ethr =  3.39E-08,  avg # of iterations =  2.0

     total cpu time spent up to now is    19289.0 secs

     total energy              =   -2344.10177693 Ry
     estimated scf accuracy    <       0.00145942 Ry

     total magnetization       =     0.00 Bohr mag/cell
     absolute magnetization    =     0.07 Bohr mag/cell

     iteration # 19     ecut=    60.00 Ry     beta= 0.70
     Davidson diagonalization with overlap

---- Real-time Memory Report at c_bands before calling an iterative solver
           880 MiB given to the printing process from OS
             0 MiB allocation reported by mallinfo(arena+hblkhd)
          1683 MiB available memory on the node where the printing process lives
------------------
     ethr =  3.39E-08,  avg # of iterations =  1.9

     total cpu time spent up to now is    20074.5 secs

     total energy              =   -2344.10177931 Ry
     estimated scf accuracy    <       0.00164795 Ry

     total magnetization       =     0.00 Bohr mag/cell
     absolute magnetization    =     0.07 Bohr mag/cell

     iteration # 20     ecut=    60.00 Ry     beta= 0.70
     Davidson diagonalization with overlap

---- Real-time Memory Report at c_bands before calling an iterative solver
           880 MiB given to the printing process from OS
             0 MiB allocation reported by mallinfo(arena+hblkhd)
          1683 MiB available memory on the node where the printing process lives
------------------
     ethr =  3.39E-08,  avg # of iterations =  1.2

     total cpu time spent up to now is    20785.6 secs

     total energy              =   -2344.10178227 Ry
     estimated scf accuracy    <       0.00165575 Ry

     total magnetization       =     0.00 Bohr mag/cell
     absolute magnetization    =     0.07 Bohr mag/cell

     iteration # 21     ecut=    60.00 Ry     beta= 0.70
     Davidson diagonalization with overlap

---- Real-time Memory Report at c_bands before calling an iterative solver
           880 MiB given to the printing process from OS
             0 MiB allocation reported by mallinfo(arena+hblkhd)
          1671 MiB available memory on the node where the printing process lives
------------------
     ethr =  3.39E-08,  avg # of iterations =  1.1

     total cpu time spent up to now is    21495.3 secs

     total energy              =   -2344.10175196 Ry
     estimated scf accuracy    <       0.00177784 Ry

     total magnetization       =     0.00 Bohr mag/cell
     absolute magnetization    =     0.08 Bohr mag/cell

     iteration # 22     ecut=    60.00 Ry     beta= 0.70
     Davidson diagonalization with overlap

---- Real-time Memory Report at c_bands before calling an iterative solver
           880 MiB given to the printing process from OS
             0 MiB allocation reported by mallinfo(arena+hblkhd)
          1713 MiB available memory on the node where the printing process lives
------------------
     ethr =  3.39E-08,  avg # of iterations =  1.6

     total cpu time spent up to now is    22246.8 secs

     total energy              =   -2344.10172554 Ry
     estimated scf accuracy    <       0.00099559 Ry

     total magnetization       =     0.00 Bohr mag/cell
     absolute magnetization    =     0.11 Bohr mag/cell

     iteration # 23     ecut=    60.00 Ry     beta= 0.70
     Davidson diagonalization with overlap

---- Real-time Memory Report at c_bands before calling an iterative solver
           880 MiB given to the printing process from OS
             0 MiB allocation reported by mallinfo(arena+hblkhd)
          1715 MiB available memory on the node where the printing process lives
------------------
     ethr =  3.39E-08,  avg # of iterations =  2.0

     total cpu time spent up to now is    23052.3 secs

     total energy              =   -2344.10174291 Ry
     estimated scf accuracy    <       0.00024763 Ry

     total magnetization       =     0.00 Bohr mag/cell
     absolute magnetization    =     0.13 Bohr mag/cell

     iteration # 24     ecut=    60.00 Ry     beta= 0.70
     Davidson diagonalization with overlap

---- Real-time Memory Report at c_bands before calling an iterative solver
           880 MiB given to the printing process from OS
             0 MiB allocation reported by mallinfo(arena+hblkhd)
          1723 MiB available memory on the node where the printing process lives
------------------
     ethr =  3.39E-08,  avg # of iterations =  3.0

     total cpu time spent up to now is    23868.6 secs

     total energy              =   -2344.10176460 Ry
     estimated scf accuracy    <       0.00002097 Ry

     total magnetization       =    -0.00 Bohr mag/cell
     absolute magnetization    =     0.15 Bohr mag/cell

     iteration # 25     ecut=    60.00 Ry     beta= 0.70
     Davidson diagonalization with overlap

---- Real-time Memory Report at c_bands before calling an iterative solver
           880 MiB given to the printing process from OS
             0 MiB allocation reported by mallinfo(arena+hblkhd)
          1715 MiB available memory on the node where the printing process lives
------------------
     ethr =  8.45E-09,  avg # of iterations =  3.1

     total cpu time spent up to now is    24686.7 secs

     total energy              =   -2344.10176511 Ry
     estimated scf accuracy    <       0.00000941 Ry

     total magnetization       =     0.00 Bohr mag/cell
     absolute magnetization    =     0.15 Bohr mag/cell

     iteration # 26     ecut=    60.00 Ry     beta= 0.70
     Davidson diagonalization with overlap

---- Real-time Memory Report at c_bands before calling an iterative solver
           880 MiB given to the printing process from OS
             0 MiB allocation reported by mallinfo(arena+hblkhd)
          1699 MiB available memory on the node where the printing process lives
------------------
     ethr =  3.79E-09,  avg # of iterations =  2.4

     total cpu time spent up to now is    25492.2 secs

     total energy              =   -2344.10176579 Ry
     estimated scf accuracy    <       0.00000992 Ry

     total magnetization       =     0.00 Bohr mag/cell
     absolute magnetization    =     0.15 Bohr mag/cell

     iteration # 27     ecut=    60.00 Ry     beta= 0.70
     Davidson diagonalization with overlap

---- Real-time Memory Report at c_bands before calling an iterative solver
           880 MiB given to the printing process from OS
             0 MiB allocation reported by mallinfo(arena+hblkhd)
          1669 MiB available memory on the node where the printing process lives
------------------
     ethr =  3.79E-09,  avg # of iterations =  1.2

     total cpu time spent up to now is    26209.7 secs

     total energy              =   -2344.10176498 Ry
     estimated scf accuracy    <       0.00001051 Ry

     total magnetization       =    -0.00 Bohr mag/cell
     absolute magnetization    =     0.15 Bohr mag/cell

     iteration # 28     ecut=    60.00 Ry     beta= 0.70
     Davidson diagonalization with overlap

---- Real-time Memory Report at c_bands before calling an iterative solver
           880 MiB given to the printing process from OS
             0 MiB allocation reported by mallinfo(arena+hblkhd)
          1684 MiB available memory on the node where the printing process lives
------------------
     ethr =  3.79E-09,  avg # of iterations =  1.4

     total cpu time spent up to now is    26944.0 secs

     total energy              =   -2344.10176396 Ry
     estimated scf accuracy    <       0.00000880 Ry

     total magnetization       =     0.00 Bohr mag/cell
     absolute magnetization    =     0.15 Bohr mag/cell

     iteration # 29     ecut=    60.00 Ry     beta= 0.70
     Davidson diagonalization with overlap

---- Real-time Memory Report at c_bands before calling an iterative solver
           880 MiB given to the printing process from OS
             0 MiB allocation reported by mallinfo(arena+hblkhd)
          1684 MiB available memory on the node where the printing process lives
------------------
     ethr =  3.55E-09,  avg # of iterations =  1.0

     total cpu time spent up to now is    27637.9 secs

     total energy              =   -2344.10176985 Ry
     estimated scf accuracy    <       0.00000873 Ry

     total magnetization       =     0.00 Bohr mag/cell
     absolute magnetization    =     0.15 Bohr mag/cell

     iteration # 30     ecut=    60.00 Ry     beta= 0.70
     Davidson diagonalization with overlap

---- Real-time Memory Report at c_bands before calling an iterative solver
           880 MiB given to the printing process from OS
             0 MiB allocation reported by mallinfo(arena+hblkhd)
          1694 MiB available memory on the node where the printing process lives
------------------
     ethr =  3.52E-09,  avg # of iterations =  2.0

     total cpu time spent up to now is    28532.4 secs

     total energy              =   -2344.10178022 Ry
     estimated scf accuracy    <       0.00001332 Ry

     total magnetization       =    -0.00 Bohr mag/cell
     absolute magnetization    =     0.16 Bohr mag/cell

     iteration # 31     ecut=    60.00 Ry     beta= 0.70
     Davidson diagonalization with overlap

---- Real-time Memory Report at c_bands before calling an iterative solver
           880 MiB given to the printing process from OS
             0 MiB allocation reported by mallinfo(arena+hblkhd)
          1702 MiB available memory on the node where the printing process lives
------------------
     ethr =  3.52E-09,  avg # of iterations =  2.0

     total cpu time spent up to now is    29386.2 secs

     total energy              =   -2344.10176589 Ry
     estimated scf accuracy    <       0.00004080 Ry

     total magnetization       =    -0.00 Bohr mag/cell
     absolute magnetization    =     0.18 Bohr mag/cell

     iteration # 32     ecut=    60.00 Ry     beta= 0.70
     Davidson diagonalization with overlap

---- Real-time Memory Report at c_bands before calling an iterative solver
           880 MiB given to the printing process from OS
             0 MiB allocation reported by mallinfo(arena+hblkhd)
          1687 MiB available memory on the node where the printing process lives
------------------
     ethr =  3.52E-09,  avg # of iterations =  2.0

     total cpu time spent up to now is    30197.4 secs

     total energy              =   -2344.10176255 Ry
     estimated scf accuracy    <       0.00004157 Ry

     total magnetization       =    -0.00 Bohr mag/cell
     absolute magnetization    =     0.16 Bohr mag/cell

     iteration # 33     ecut=    60.00 Ry     beta= 0.70
     Davidson diagonalization with overlap

---- Real-time Memory Report at c_bands before calling an iterative solver
           880 MiB given to the printing process from OS
             0 MiB allocation reported by mallinfo(arena+hblkhd)
          1673 MiB available memory on the node where the printing process lives
------------------
     ethr =  3.52E-09,  avg # of iterations =  2.3

     total cpu time spent up to now is    31001.9 secs

     total energy              =   -2344.10172201 Ry
     estimated scf accuracy    <       0.00005682 Ry

     total magnetization       =     0.00 Bohr mag/cell
     absolute magnetization    =     0.15 Bohr mag/cell

     iteration # 34     ecut=    60.00 Ry     beta= 0.70
     Davidson diagonalization with overlap

---- Real-time Memory Report at c_bands before calling an iterative solver
           880 MiB given to the printing process from OS
             0 MiB allocation reported by mallinfo(arena+hblkhd)
          1677 MiB available memory on the node where the printing process lives
------------------
     ethr =  3.52E-09,  avg # of iterations =  4.6

     total cpu time spent up to now is    31917.3 secs

     total energy              =   -2344.10160056 Ry
     estimated scf accuracy    <       0.00007600 Ry

     total magnetization       =     0.00 Bohr mag/cell
     absolute magnetization    =     0.11 Bohr mag/cell

     iteration # 35     ecut=    60.00 Ry     beta= 0.70
     Davidson diagonalization with overlap

---- Real-time Memory Report at c_bands before calling an iterative solver
           880 MiB given to the printing process from OS
             0 MiB allocation reported by mallinfo(arena+hblkhd)
          1670 MiB available memory on the node where the printing process lives
------------------
     ethr =  3.52E-09,  avg # of iterations =  7.3

     total cpu time spent up to now is    33378.4 secs

     total energy              =   -2344.10145602 Ry
     estimated scf accuracy    <       0.00048856 Ry

     total magnetization       =    -0.00 Bohr mag/cell
     absolute magnetization    =     0.01 Bohr mag/cell

     iteration # 36     ecut=    60.00 Ry     beta= 0.70
     Davidson diagonalization with overlap

---- Real-time Memory Report at c_bands before calling an iterative solver
           880 MiB given to the printing process from OS
             0 MiB allocation reported by mallinfo(arena+hblkhd)
          1677 MiB available memory on the node where the printing process lives
------------------
     ethr =  3.52E-09,  avg # of iterations =  8.0

     total cpu time spent up to now is    34907.1 secs

     total energy              =   -2344.10175375 Ry
     estimated scf accuracy    <       0.00007195 Ry

     total magnetization       =    -0.00 Bohr mag/cell
     absolute magnetization    =     0.14 Bohr mag/cell

     iteration # 37     ecut=    60.00 Ry     beta= 0.70
     Davidson diagonalization with overlap

---- Real-time Memory Report at c_bands before calling an iterative solver
           880 MiB given to the printing process from OS
             0 MiB allocation reported by mallinfo(arena+hblkhd)
          1691 MiB available memory on the node where the printing process lives
------------------
     ethr =  3.52E-09,  avg # of iterations =  2.0

     total cpu time spent up to now is    35705.8 secs

     total energy              =   -2344.10168583 Ry
     estimated scf accuracy    <       0.00008745 Ry

     total magnetization       =     0.00 Bohr mag/cell
     absolute magnetization    =     0.12 Bohr mag/cell

     iteration # 38     ecut=    60.00 Ry     beta= 0.70
     Davidson diagonalization with overlap

---- Real-time Memory Report at c_bands before calling an iterative solver
           880 MiB given to the printing process from OS
             0 MiB allocation reported by mallinfo(arena+hblkhd)
          1699 MiB available memory on the node where the printing process lives
------------------
     ethr =  3.52E-09,  avg # of iterations =  6.3

     total cpu time spent up to now is    36692.2 secs

     total energy              =   -2344.10172552 Ry
     estimated scf accuracy    <       0.00001501 Ry

     total magnetization       =    -0.00 Bohr mag/cell
     absolute magnetization    =     0.07 Bohr mag/cell

     iteration # 39     ecut=    60.00 Ry     beta= 0.70
     Davidson diagonalization with overlap

---- Real-time Memory Report at c_bands before calling an iterative solver
           880 MiB given to the printing process from OS
             0 MiB allocation reported by mallinfo(arena+hblkhd)
          1686 MiB available memory on the node where the printing process lives
------------------
     ethr =  3.52E-09,  avg # of iterations =  1.0

     total cpu time spent up to now is    37385.6 secs

     total energy              =   -2344.10173009 Ry
     estimated scf accuracy    <       0.00003250 Ry

     total magnetization       =    -0.00 Bohr mag/cell
     absolute magnetization    =     0.07 Bohr mag/cell

     iteration # 40     ecut=    60.00 Ry     beta= 0.70
     Davidson diagonalization with overlap

---- Real-time Memory Report at c_bands before calling an iterative solver
           880 MiB given to the printing process from OS
             0 MiB allocation reported by mallinfo(arena+hblkhd)
          1691 MiB available memory on the node where the printing process lives
------------------
     ethr =  3.52E-09,  avg # of iterations =  2.0

     total cpu time spent up to now is    38195.8 secs

     total energy              =   -2344.10168951 Ry
     estimated scf accuracy    <       0.00004137 Ry

     total magnetization       =    -0.00 Bohr mag/cell
     absolute magnetization    =     0.09 Bohr mag/cell

     iteration # 41     ecut=    60.00 Ry     beta= 0.70
     Davidson diagonalization with overlap

---- Real-time Memory Report at c_bands before calling an iterative solver
           880 MiB given to the printing process from OS
             0 MiB allocation reported by mallinfo(arena+hblkhd)
          1703 MiB available memory on the node where the printing process lives
------------------
     ethr =  3.52E-09,  avg # of iterations =  4.6

     total cpu time spent up to now is    39091.5 secs

     total energy              =   -2344.10171696 Ry
     estimated scf accuracy    <       0.00000137 Ry

     total magnetization       =    -0.00 Bohr mag/cell
     absolute magnetization    =     0.04 Bohr mag/cell

     iteration # 42     ecut=    60.00 Ry     beta= 0.70
     Davidson diagonalization with overlap

---- Real-time Memory Report at c_bands before calling an iterative solver
           880 MiB given to the printing process from OS
             0 MiB allocation reported by mallinfo(arena+hblkhd)
          1694 MiB available memory on the node where the printing process lives
------------------
     ethr =  5.54E-10,  avg # of iterations =  5.0

     total cpu time spent up to now is    40008.7 secs

     total energy              =   -2344.10171708 Ry
     estimated scf accuracy    <       0.00001758 Ry

     total magnetization       =     0.00 Bohr mag/cell
     absolute magnetization    =     0.05 Bohr mag/cell

     iteration # 43     ecut=    60.00 Ry     beta= 0.70
     Davidson diagonalization with overlap

---- Real-time Memory Report at c_bands before calling an iterative solver
           880 MiB given to the printing process from OS
             0 MiB allocation reported by mallinfo(arena+hblkhd)
          1696 MiB available memory on the node where the printing process lives
------------------
     ethr =  5.54E-10,  avg # of iterations =  2.3

     total cpu time spent up to now is    40859.7 secs

     total energy              =   -2344.10171508 Ry
     estimated scf accuracy    <       0.00001995 Ry

     total magnetization       =    -0.00 Bohr mag/cell
     absolute magnetization    =     0.04 Bohr mag/cell

     iteration # 44     ecut=    60.00 Ry     beta= 0.70
     Davidson diagonalization with overlap

---- Real-time Memory Report at c_bands before calling an iterative solver
           880 MiB given to the printing process from OS
             0 MiB allocation reported by mallinfo(arena+hblkhd)
          1687 MiB available memory on the node where the printing process lives
------------------
     ethr =  5.54E-10,  avg # of iterations =  2.0

     total cpu time spent up to now is    41704.5 secs

     total energy              =   -2344.10171435 Ry
     estimated scf accuracy    <       0.00001554 Ry

     total magnetization       =     0.00 Bohr mag/cell
     absolute magnetization    =     0.03 Bohr mag/cell

     iteration # 45     ecut=    60.00 Ry     beta= 0.70
     Davidson diagonalization with overlap

---- Real-time Memory Report at c_bands before calling an iterative solver
           880 MiB given to the printing process from OS
             0 MiB allocation reported by mallinfo(arena+hblkhd)
          1695 MiB available memory on the node where the printing process lives
------------------
     ethr =  5.54E-10,  avg # of iterations =  4.5

     total cpu time spent up to now is    42543.2 secs

     total energy              =   -2344.10171064 Ry
     estimated scf accuracy    <       0.00000272 Ry

     total magnetization       =     0.00 Bohr mag/cell
     absolute magnetization    =     0.03 Bohr mag/cell

     iteration # 46     ecut=    60.00 Ry     beta= 0.70
     Davidson diagonalization with overlap

---- Real-time Memory Report at c_bands before calling an iterative solver
           880 MiB given to the printing process from OS
             0 MiB allocation reported by mallinfo(arena+hblkhd)
          1701 MiB available memory on the node where the printing process lives
------------------
     ethr =  5.54E-10,  avg # of iterations =  5.2

     Magnetic moment per site  (integrated on atomic sphere of radius R)
     atom   1 (R=0.212)  charge=  7.4978  magn= -0.0000
     atom   2 (R=0.212)  charge=  7.5000  magn= -0.0000
     atom   3 (R=0.158)  charge=  8.1077  magn=  0.0000
     atom   4 (R=0.158)  charge=  8.1118  magn=  0.0000
     atom   5 (R=0.158)  charge=  8.1046  magn=  0.0000
     atom   6 (R=0.158)  charge=  8.1100  magn=  0.0000
     atom   7 (R=0.125)  charge=  0.5436  magn=  0.0000
     atom   8 (R=0.125)  charge=  0.5436  magn=  0.0000
     atom   9 (R=0.125)  charge=  0.5392  magn=  0.0000
     atom  10 (R=0.125)  charge=  0.5392  magn=  0.0000
     atom  11 (R=0.125)  charge=  0.5364  magn= -0.0000
     atom  12 (R=0.125)  charge=  0.5364  magn= -0.0000
     atom  13 (R=0.134)  charge=  0.3354  magn=  0.0000
     atom  14 (R=0.134)  charge=  0.3354  magn=  0.0000
     atom  15 (R=0.074)  charge=  1.8778  magn= -0.0002
     atom  16 (R=0.074)  charge=  1.8778  magn= -0.0002
     atom  17 (R=0.074)  charge=  1.8821  magn= -0.0001
     atom  18 (R=0.074)  charge=  1.8821  magn= -0.0001
     atom  19 (R=0.074)  charge=  1.8913  magn=  0.0000
     atom  20 (R=0.074)  charge=  1.8913  magn=  0.0000
     atom  21 (R=0.074)  charge=  1.8923  magn= -0.0000
     atom  22 (R=0.074)  charge=  1.8923  magn= -0.0000
     atom  23 (R=0.074)  charge=  1.8945  magn= -0.0000
     atom  24 (R=0.074)  charge=  1.8945  magn= -0.0000
     atom  25 (R=0.074)  charge=  1.9010  magn=  0.0000
     atom  26 (R=0.074)  charge=  1.9010  magn=  0.0000
     atom  27 (R=0.074)  charge=  1.8996  magn= -0.0000
     atom  28 (R=0.074)  charge=  1.8996  magn= -0.0000
     atom  29 (R=0.074)  charge=  1.8990  magn= -0.0000
     atom  30 (R=0.074)  charge=  1.8990  magn= -0.0000
     atom  31 (R=0.074)  charge=  1.8961  magn= -0.0000
     atom  32 (R=0.074)  charge=  1.8961  magn= -0.0000
     atom  33 (R=0.074)  charge=  1.8942  magn=  0.0000
     atom  34 (R=0.074)  charge=  1.8942  magn=  0.0000
     atom  35 (R=0.074)  charge=  1.8965  magn= -0.0000
     atom  36 (R=0.074)  charge=  1.8965  magn= -0.0000
     atom  37 (R=0.074)  charge=  1.8810  magn= -0.0009
     atom  38 (R=0.074)  charge=  1.8810  magn= -0.0009
     atom  39 (R=0.074)  charge=  0.3927  magn=  0.0000
     atom  40 (R=0.074)  charge=  0.3927  magn=  0.0000
     atom  41 (R=0.074)  charge=  0.4073  magn=  0.0000
     atom  42 (R=0.074)  charge=  0.4073  magn=  0.0000
     atom  43 (R=0.157)  charge=  8.6346  magn=  0.0051

     total cpu time spent up to now is    43471.6 secs

     End of self-consistent calculation

 ------ SPIN UP ------------


          k = 0.0000 0.0000 0.0000 ( 25927 PWs)   bands (ev):

   -68.8481 -67.7699 -67.4746 -66.4241 -53.3722 -35.6246 -35.5929 -35.5860
   -34.5324 -34.5177 -34.5110 -34.2482 -34.2145 -34.2121 -33.1876 -33.1795
   -33.1567 -29.6469 -29.5443 -29.5176 -23.5691 -23.1208 -15.2983 -15.0745
   -14.9165 -14.8851 -14.3749 -14.3017 -13.9048 -13.7822 -13.5436 -13.4926
   -13.4671 -13.2199 -13.2049 -13.1887 -12.9457 -12.9190 -12.8801 -12.7303
   -12.7014 -12.6202 -11.4464 -11.1900 -11.0893 -11.0241  -7.1588  -7.0457
    -7.0301  -6.6652  -6.6237  -6.6135  -4.2232  -4.1665  -3.3813  -2.6941
    -2.6537  -2.5776  -1.6985  -1.4378  -1.2484  -1.0201  -1.0129  -0.7479
    -0.7138  -0.6103  -0.3766  -0.2997  -0.1932  -0.1412  -0.0032   0.0589
     0.0788   0.3593   0.3947   0.4756   0.6795   0.7044   0.7915   0.8543
     1.0952   1.1118   1.1294   1.1507   1.2691   1.3535   1.4168   1.4584
     1.5612   1.8274   1.8810   1.9359   2.0044   2.0116   2.1304   2.1630
     2.1707   2.1978   2.2816   2.2878   2.4295   2.4823   2.5341   2.9678
     2.9903   3.0136   3.0367   3.0919   3.1252   3.1678   3.1959   3.3434
     3.3526   3.4749   3.5192   3.6204   4.1255   4.3049   4.4360   4.9705
     4.9799   5.0002   5.5849   5.9091   6.0318   6.2557   6.3452   8.1586
     8.5099   8.7146  10.0762  10.9217  11.4106  11.8373  11.8960  11.9157
    12.1074  12.4699  12.6188  12.8036  12.9393  12.9534  13.0854  13.1237
    13.1966  13.3943  13.6545  13.6787  13.7209

     occupation numbers 
     1.0000   1.0000   1.0000   1.0000   1.0000   1.0000   1.0000   1.0000
     1.0000   1.0000   1.0000   1.0000   1.0000   1.0000   1.0000   1.0000
     1.0000   1.0000   1.0000   1.0000   1.0000   1.0000   1.0000   1.0000
     1.0000   1.0000   1.0000   1.0000   1.0000   1.0000   1.0000   1.0000
     1.0000   1.0000   1.0000   1.0000   1.0000   1.0000   1.0000   1.0000
     1.0000   1.0000   1.0000   1.0000   1.0000   1.0000   1.0000   1.0000
     1.0000   1.0000   1.0000   1.0000   1.0000   1.0000   1.0000   1.0000
     1.0000   1.0000   1.0000   1.0000   1.0000   1.0000   1.0000   1.0000
     1.0000   1.0000   1.0000   1.0000   1.0000   1.0000   1.0000   1.0000
     1.0000   1.0000   1.0000   1.0000   1.0000   1.0000   1.0000   1.0000
     1.0000   1.0000   1.0000   1.0000   1.0000   1.0000   1.0000   1.0000
     1.0000   1.0000   1.0000   1.0000   1.0000   1.0000   1.0000   1.0000
     1.0000   1.0000   1.0000   1.0000   1.0000   1.0000   1.0000   1.0000
     1.0000   1.0000   1.0000   1.0000   1.0000   1.0000   1.0000   1.0000
     1.0000   1.0000   1.0000   1.0000   1.0000   1.0000   1.0000   1.0000
     1.0000   1.0000   1.0000   1.0000   0.0000   0.0000   0.0000   0.0000
     0.0000   0.0000   0.0000   0.0000   0.0000   0.0000   0.0000   0.0000
     0.0000   0.0000   0.0000   0.0000   0.0000   0.0000   0.0000   0.0000
     0.0000   0.0000   0.0000   0.0000   0.0000

          k = 0.0000 0.0000 0.1758 ( 25971 PWs)   bands (ev):

   -68.8481 -67.7699 -67.4746 -66.4241 -53.3722 -35.6246 -35.5929 -35.5861
   -34.5324 -34.5177 -34.5111 -34.2482 -34.2145 -34.2121 -33.1877 -33.1795
   -33.1567 -29.6469 -29.5443 -29.5176 -23.5691 -23.1208 -15.2969 -15.0784
   -14.9095 -14.8899 -14.3583 -14.3205 -13.8951 -13.7998 -13.5314 -13.4899
   -13.4678 -13.2224 -13.2016 -13.1934 -12.9477 -12.9161 -12.8772 -12.7244
   -12.7047 -12.6265 -11.4458 -11.1901 -11.0885 -11.0256  -7.1589  -7.0457
    -7.0300  -6.6653  -6.6236  -6.6135  -4.2236  -4.1666  -3.3748  -2.6935
    -2.6425  -2.5967  -1.6808  -1.4711  -1.1946  -1.0195  -1.0127  -0.7469
    -0.7124  -0.5570  -0.3731  -0.3581  -0.2957  -0.1096  -0.0686   0.0556
     0.0777   0.3694   0.3785   0.5173   0.6842   0.7222   0.7406   0.8365
     1.0346   1.0708   1.1921   1.2453   1.2650   1.3777   1.4681   1.5459
     1.6954   1.7923   1.8492   1.8653   1.9789   2.0394   2.1216   2.1436
     2.1717   2.1737   2.2212   2.3465   2.4023   2.5249   2.6070   2.8375
     2.8832   2.9792   3.0475   3.1035   3.1744   3.2134   3.2622   3.3063
     3.3821   3.4781   3.5151   3.5530   4.1041   4.3172   4.4592   4.9426
     4.9802   5.0192   5.5853   5.9092   6.0323   6.2576   6.3429   8.1523
     8.5176   8.9979   9.6536  11.0031  11.4529  11.7033  11.8525  11.9634
    12.3622  12.5469  12.6231  12.7021  12.9137  12.9556  13.0197  13.1917
    13.2447  13.4455  13.5758  13.6215  13.7518

     occupation numbers 
     1.0000   1.0000   1.0000   1.0000   1.0000   1.0000   1.0000   1.0000
     1.0000   1.0000   1.0000   1.0000   1.0000   1.0000   1.0000   1.0000
     1.0000   1.0000   1.0000   1.0000   1.0000   1.0000   1.0000   1.0000
     1.0000   1.0000   1.0000   1.0000   1.0000   1.0000   1.0000   1.0000
     1.0000   1.0000   1.0000   1.0000   1.0000   1.0000   1.0000   1.0000
     1.0000   1.0000   1.0000   1.0000   1.0000   1.0000   1.0000   1.0000
     1.0000   1.0000   1.0000   1.0000   1.0000   1.0000   1.0000   1.0000
     1.0000   1.0000   1.0000   1.0000   1.0000   1.0000   1.0000   1.0000
     1.0000   1.0000   1.0000   1.0000   1.0000   1.0000   1.0000   1.0000
     1.0000   1.0000   1.0000   1.0000   1.0000   1.0000   1.0000   1.0000
     1.0000   1.0000   1.0000   1.0000   1.0000   1.0000   1.0000   1.0000
     1.0000   1.0000   1.0000   1.0000   1.0000   1.0000   1.0000   1.0000
     1.0000   1.0000   1.0000   1.0000   1.0000   1.0000   1.0000   1.0000
     1.0000   1.0000   1.0000   1.0000   1.0000   1.0000   1.0000   1.0000
     1.0000   1.0000   1.0000   1.0000   1.0000   1.0000   1.0000   1.0000
     1.0000   1.0000   1.0000   1.0000   0.0000   0.0000   0.0000   0.0000
     0.0000   0.0000   0.0000   0.0000   0.0000   0.0000   0.0000   0.0000
     0.0000   0.0000   0.0000   0.0000   0.0000   0.0000   0.0000   0.0000
     0.0000   0.0000   0.0000   0.0000   0.0000

          k = 0.0000 0.1921 0.0000 ( 25933 PWs)   bands (ev):

   -68.8481 -67.7699 -67.4746 -66.4241 -53.3722 -35.6246 -35.5929 -35.5860
   -34.5324 -34.5177 -34.5110 -34.2482 -34.2145 -34.2121 -33.1876 -33.1795
   -33.1567 -29.6469 -29.5443 -29.5176 -23.5691 -23.1208 -15.2904 -15.0674
   -14.9184 -14.8773 -14.4335 -14.3753 -13.7922 -13.6248 -13.5471 -13.4916
   -13.4658 -13.3572 -13.2948 -13.1476 -12.9456 -12.9183 -12.8695 -12.7270
   -12.6867 -12.6250 -11.4450 -11.1901 -11.0891 -11.0234  -7.1589  -7.0458
    -7.0296  -6.6654  -6.6238  -6.6136  -4.1557  -4.0966  -3.3786  -2.9054
    -2.8265  -2.6206  -1.5126  -1.2053  -1.1772  -0.9897  -0.9872  -0.8581
    -0.7904  -0.6276  -0.3850  -0.3102  -0.1864  -0.1000  -0.0314   0.0318
     0.0599   0.3148   0.3777   0.4283   0.6347   0.6672   0.7534   0.8697
     0.9959   1.1109   1.2644   1.2984   1.3989   1.4271   1.5139   1.5368
     1.6030   1.7606   1.8527   1.8804   2.0105   2.0157   2.0353   2.0777
     2.1574   2.2066   2.2369   2.2798   2.4150   2.4679   2.5875   2.9718
     2.9723   3.0246   3.0357   3.1095   3.1242   3.2026   3.2475   3.3361
     3.3740   3.4249   3.4616   3.6164   4.1185   4.3134   4.4185   4.8937
     4.9478   4.9630   5.5879   5.9085   6.0419   6.2647   6.3427   8.1305
     8.5242   9.0135  10.2083  10.3567  11.4318  11.4886  12.0883  12.2346
    12.3310  12.4586  12.6026  12.7595  12.7639  12.9468  13.0713  13.1476
    13.2907  13.2932  13.6211  13.7123  13.9084

     occupation numbers 
     1.0000   1.0000   1.0000   1.0000   1.0000   1.0000   1.0000   1.0000
     1.0000   1.0000   1.0000   1.0000   1.0000   1.0000   1.0000   1.0000
     1.0000   1.0000   1.0000   1.0000   1.0000   1.0000   1.0000   1.0000
     1.0000   1.0000   1.0000   1.0000   1.0000   1.0000   1.0000   1.0000
     1.0000   1.0000   1.0000   1.0000   1.0000   1.0000   1.0000   1.0000
     1.0000   1.0000   1.0000   1.0000   1.0000   1.0000   1.0000   1.0000
     1.0000   1.0000   1.0000   1.0000   1.0000   1.0000   1.0000   1.0000
     1.0000   1.0000   1.0000   1.0000   1.0000   1.0000   1.0000   1.0000
     1.0000   1.0000   1.0000   1.0000   1.0000   1.0000   1.0000   1.0000
     1.0000   1.0000   1.0000   1.0000   1.0000   1.0000   1.0000   1.0000
     1.0000   1.0000   1.0000   1.0000   1.0000   1.0000   1.0000   1.0000
     1.0000   1.0000   1.0000   1.0000   1.0000   1.0000   1.0000   1.0000
     1.0000   1.0000   1.0000   1.0000   1.0000   1.0000   1.0000   1.0000
     1.0000   1.0000   1.0000   1.0000   1.0000   1.0000   1.0000   1.0000
     1.0000   1.0000   1.0000   1.0000   1.0000   1.0000   1.0000   1.0000
     1.0000   1.0000   1.0000   1.0000   0.0000   0.0000   0.0000   0.0000
     0.0000   0.0000   0.0000   0.0000   0.0000   0.0000   0.0000   0.0000
     0.0000   0.0000   0.0000   0.0000   0.0000   0.0000   0.0000   0.0000
     0.0000   0.0000   0.0000   0.0000   0.0000

          k = 0.0000 0.1921 0.1758 ( 25924 PWs)   bands (ev):

   -68.8481 -67.7699 -67.4746 -66.4241 -53.3722 -35.6246 -35.5929 -35.5860
   -34.5324 -34.5177 -34.5110 -34.2482 -34.2145 -34.2121 -33.1876 -33.1795
   -33.1567 -29.6469 -29.5443 -29.5176 -23.5691 -23.1208 -15.2893 -15.0705
   -14.9078 -14.8860 -14.4200 -14.3908 -13.7856 -13.6431 -13.5333 -13.4863
   -13.4675 -13.3716 -13.2762 -13.1555 -12.9477 -12.9157 -12.8654 -12.7215
   -12.6905 -12.6311 -11.4445 -11.1902 -11.0884 -11.0249  -7.1590  -7.0458
    -7.0295  -6.6655  -6.6237  -6.6136  -4.1514  -4.1014  -3.3727  -2.8974
    -2.8336  -2.6286  -1.4967  -1.2078  -1.1544  -0.9904  -0.9870  -0.8330
    -0.8105  -0.5852  -0.3783  -0.3650  -0.2718  -0.0883  -0.0643  -0.0129
     0.0725   0.3377   0.3937   0.4176   0.5399   0.7104   0.8012   0.8650
     1.0030   1.1886   1.2543   1.3066   1.4040   1.4623   1.4774   1.6441
     1.6813   1.7590   1.8158   1.8580   1.9470   2.0194   2.0498   2.0794
     2.1325   2.1782   2.1999   2.3233   2.4127   2.5305   2.6071   2.8639
     2.8933   2.9933   3.0802   3.1200   3.1481   3.2131   3.2790   3.3432
     3.3948   3.4236   3.4479   3.5511   4.0975   4.3251   4.4458   4.9148
     4.9436   4.9482   5.5884   5.9090   6.0431   6.2665   6.3401   8.1189
     8.5267   9.2619   9.8347  10.5418  11.1528  11.4616  12.1571  12.3735
    12.4462  12.5045  12.6374  12.7423  12.8254  12.9364  13.0035  13.2478
    13.2785  13.3418  13.5355  13.7087  13.7864

     occupation numbers 
     1.0000   1.0000   1.0000   1.0000   1.0000   1.0000   1.0000   1.0000
     1.0000   1.0000   1.0000   1.0000   1.0000   1.0000   1.0000   1.0000
     1.0000   1.0000   1.0000   1.0000   1.0000   1.0000   1.0000   1.0000
     1.0000   1.0000   1.0000   1.0000   1.0000   1.0000   1.0000   1.0000
     1.0000   1.0000   1.0000   1.0000   1.0000   1.0000   1.0000   1.0000
     1.0000   1.0000   1.0000   1.0000   1.0000   1.0000   1.0000   1.0000
     1.0000   1.0000   1.0000   1.0000   1.0000   1.0000   1.0000   1.0000
     1.0000   1.0000   1.0000   1.0000   1.0000   1.0000   1.0000   1.0000
     1.0000   1.0000   1.0000   1.0000   1.0000   1.0000   1.0000   1.0000
     1.0000   1.0000   1.0000   1.0000   1.0000   1.0000   1.0000   1.0000
     1.0000   1.0000   1.0000   1.0000   1.0000   1.0000   1.0000   1.0000
     1.0000   1.0000   1.0000   1.0000   1.0000   1.0000   1.0000   1.0000
     1.0000   1.0000   1.0000   1.0000   1.0000   1.0000   1.0000   1.0000
     1.0000   1.0000   1.0000   1.0000   1.0000   1.0000   1.0000   1.0000
     1.0000   1.0000   1.0000   1.0000   1.0000   1.0000   1.0000   1.0000
     1.0000   1.0000   1.0000   1.0000   0.0000   0.0000   0.0000   0.0000
     0.0000   0.0000   0.0000   0.0000   0.0000   0.0000   0.0000   0.0000
     0.0000   0.0000   0.0000   0.0000   0.0000   0.0000   0.0000   0.0000
     0.0000   0.0000   0.0000   0.0000   0.0000

          k = 0.1667 0.0000 0.0301 ( 25941 PWs)   bands (ev):

   -68.8481 -67.7699 -67.4746 -66.4241 -53.3722 -35.6246 -35.5929 -35.5861
   -34.5324 -34.5177 -34.5110 -34.2482 -34.2145 -34.2121 -33.1876 -33.1795
   -33.1567 -29.6471 -29.5442 -29.5176 -23.5689 -23.1207 -15.2753 -15.0662
   -14.8709 -14.8428 -14.3444 -14.2811 -13.9575 -13.8621 -13.6203 -13.4862
   -13.4234 -13.2354 -13.2190 -13.2004 -13.0009 -12.9533 -12.8638 -12.7120
   -12.6920 -12.6165 -11.4347 -11.1940 -11.0994 -11.0195  -7.1617  -7.0424
    -7.0295  -6.6665  -6.6229  -6.6118  -4.0688  -4.0105  -3.3613  -2.6861
    -2.5716  -2.5107  -1.8470  -1.6627  -1.3009  -0.9911  -0.8932  -0.6769
    -0.6582  -0.5792  -0.4284  -0.2943  -0.2090  -0.1218  -0.0220   0.0349
     0.1111   0.2423   0.3773   0.5522   0.6669   0.6980   0.8202   0.8991
     0.9831   1.0559   1.0959   1.1503   1.3080   1.3666   1.4324   1.5733
     1.5994   1.7246   1.8394   1.9198   1.9976   2.0296   2.1091   2.1477
     2.1840   2.2415   2.2994   2.3545   2.3896   2.4433   2.4880   2.8610
     2.8885   2.9591   3.0092   3.0301   3.0998   3.1371   3.2710   3.3068
     3.3577   3.4259   3.4644   3.6266   4.1273   4.2963   4.4606   4.9341
     5.0165   5.0771   5.5281   5.8471   6.0564   6.2596   6.3136   8.1584
     8.4721   9.0122  10.2240  11.0047  11.5322  11.8883  11.9242  12.0390
    12.1918  12.3753  12.4917  12.7611  12.8781  13.0226  13.1465  13.2430
    13.3161  13.4300  13.5305  13.6785  13.8379

     occupation numbers 
     1.0000   1.0000   1.0000   1.0000   1.0000   1.0000   1.0000   1.0000
     1.0000   1.0000   1.0000   1.0000   1.0000   1.0000   1.0000   1.0000
     1.0000   1.0000   1.0000   1.0000   1.0000   1.0000   1.0000   1.0000
     1.0000   1.0000   1.0000   1.0000   1.0000   1.0000   1.0000   1.0000
     1.0000   1.0000   1.0000   1.0000   1.0000   1.0000   1.0000   1.0000
     1.0000   1.0000   1.0000   1.0000   1.0000   1.0000   1.0000   1.0000
     1.0000   1.0000   1.0000   1.0000   1.0000   1.0000   1.0000   1.0000
     1.0000   1.0000   1.0000   1.0000   1.0000   1.0000   1.0000   1.0000
     1.0000   1.0000   1.0000   1.0000   1.0000   1.0000   1.0000   1.0000
     1.0000   1.0000   1.0000   1.0000   1.0000   1.0000   1.0000   1.0000
     1.0000   1.0000   1.0000   1.0000   1.0000   1.0000   1.0000   1.0000
     1.0000   1.0000   1.0000   1.0000   1.0000   1.0000   1.0000   1.0000
     1.0000   1.0000   1.0000   1.0000   1.0000   1.0000   1.0000   1.0000
     1.0000   1.0000   1.0000   1.0000   1.0000   1.0000   1.0000   1.0000
     1.0000   1.0000   1.0000   1.0000   1.0000   1.0000   1.0000   1.0000
     1.0000   1.0000   1.0000   1.0000   0.0000   0.0000   0.0000   0.0000
     0.0000   0.0000   0.0000   0.0000   0.0000   0.0000   0.0000   0.0000
     0.0000   0.0000   0.0000   0.0000   0.0000   0.0000   0.0000   0.0000
     0.0000   0.0000   0.0000   0.0000   0.0000

          k = 0.1667 0.0000 0.2059 ( 25961 PWs)   bands (ev):

   -68.8481 -67.7699 -67.4746 -66.4241 -53.3722 -35.6246 -35.5929 -35.5861
   -34.5324 -34.5177 -34.5111 -34.2482 -34.2145 -34.2121 -33.1876 -33.1795
   -33.1567 -29.6471 -29.5442 -29.5176 -23.5689 -23.1207 -15.2742 -15.0683
   -14.8706 -14.8424 -14.3237 -14.3038 -13.9415 -13.8857 -13.6067 -13.5031
   -13.4038 -13.2381 -13.2251 -13.1988 -12.9868 -12.9684 -12.8581 -12.7041
   -12.6963 -12.6241 -11.4342 -11.1939 -11.0991 -11.0208  -7.1618  -7.0424
    -7.0294  -6.6665  -6.6229  -6.6117  -4.0741  -4.0056  -3.3543  -2.6913
    -2.5586  -2.5269  -1.8157  -1.7025  -1.2672  -0.9933  -0.8716  -0.6647
    -0.6629  -0.5265  -0.4792  -0.2972  -0.2617  -0.1918  -0.0180   0.0367
     0.0992   0.2327   0.4107   0.5565   0.6644   0.7090   0.7347   0.9059
     0.9774   1.0080   1.1359   1.2290   1.3001   1.4561   1.4885   1.5853
     1.6872   1.7578   1.8199   1.8831   1.9148   2.0335   2.0743   2.1586
     2.1954   2.2031   2.2308   2.3422   2.4315   2.4872   2.5722   2.7841
     2.8337   2.9306   2.9652   3.0620   3.1386   3.1830   3.2321   3.3040
     3.4084   3.4407   3.4573   3.5600   4.0965   4.3158   4.4787   4.9324
     5.0126   5.0813   5.5270   5.8508   6.0576   6.2598   6.3115   8.1538
     8.4682   9.3585   9.7486  11.0680  11.5743  11.7872  11.9333  11.9669
    12.2630  12.4973  12.5755  12.7833  12.8546  13.0094  13.1206  13.2724
    13.3538  13.4138  13.5676  13.6293  13.7032

     occupation numbers 
     1.0000   1.0000   1.0000   1.0000   1.0000   1.0000   1.0000   1.0000
     1.0000   1.0000   1.0000   1.0000   1.0000   1.0000   1.0000   1.0000
     1.0000   1.0000   1.0000   1.0000   1.0000   1.0000   1.0000   1.0000
     1.0000   1.0000   1.0000   1.0000   1.0000   1.0000   1.0000   1.0000
[...]
     atom    4 type  5   force =     0.00000000    0.00025967    0.00000000
     atom    5 type  5   force =    -0.00000000    0.00080374    0.00000000
     atom    6 type  5   force =     0.00000000   -0.00136776    0.00000000
     atom    7 type  7   force =     0.00250204    0.01143610   -0.00249604
     atom    8 type  7   force =    -0.00250208    0.01143610    0.00249610
     atom    9 type  7   force =    -0.00226762   -0.00345817   -0.02619765
     atom   10 type  7   force =     0.00226762   -0.00345817    0.02619765
     atom   11 type  7   force =    -0.00141311   -0.00990488    0.01124928
     atom   12 type  7   force =     0.00141312   -0.00990488   -0.01124932
     atom   13 type  1   force =    -0.00118742   -0.00133917    0.00015756
     atom   14 type  1   force =     0.00118742   -0.00133917   -0.00015756
     atom   15 type  6   force =     0.00007795   -0.00175850    0.00596280
     atom   16 type  6   force =    -0.00007797   -0.00175849   -0.00596279
     atom   17 type  6   force =    -0.00004439    0.00101230   -0.00828694
     atom   18 type  6   force =     0.00004439    0.00101230    0.00828694
     atom   19 type  6   force =     0.00015009    0.00036888    0.00694384
     atom   20 type  6   force =    -0.00015009    0.00036888   -0.00694384
     atom   21 type  6   force =     0.00106176    0.00013496   -0.00230104
     atom   22 type  6   force =    -0.00106176    0.00013496    0.00230104
     atom   23 type  6   force =     0.00452863   -0.00189283   -0.00616255
     atom   24 type  6   force =    -0.00452864   -0.00189283    0.00616253
     atom   25 type  6   force =    -0.00393375   -0.00020064   -0.00615628
     atom   26 type  6   force =     0.00393376   -0.00020064    0.00615626
     atom   27 type  6   force =    -0.00128571    0.00256843    0.00789916
     atom   28 type  6   force =     0.00128571    0.00256843   -0.00789916
     atom   29 type  6   force =     0.00119329   -0.00182987   -0.00764937
     atom   30 type  6   force =    -0.00119329   -0.00182987    0.00764937
     atom   31 type  6   force =    -0.00277806   -0.00292192   -0.00629448
     atom   32 type  6   force =     0.00277804   -0.00292192    0.00629450
     atom   33 type  6   force =     0.00088772    0.00411577    0.00680901
     atom   34 type  6   force =    -0.00088772    0.00411577   -0.00680901
     atom   35 type  6   force =     0.00047308    0.00225615    0.01117241
     atom   36 type  6   force =    -0.00047307    0.00225616   -0.01117241
     atom   37 type  6   force =    -0.00069827   -0.00139043    0.01173805
     atom   38 type  6   force =     0.00069826   -0.00139042   -0.01173802
     atom   39 type  3   force =     0.00000000    0.00000000    0.00000000
     atom   40 type  3   force =     0.00000000    0.00000000    0.00000000
     atom   41 type  3   force =     0.00000000    0.00000000    0.00000000
     atom   42 type  3   force =     0.00000000    0.00000000    0.00000000
     atom   43 type  2   force =    -0.00000000    0.00120941   -0.00000000
     The Hubbard contrib.    to forces
     atom    1 type  4   force =     0.00000000    0.00000000    0.00000000
     atom    2 type  4   force =     0.00000000    0.00000000    0.00000000
     atom    3 type  5   force =     0.00000000    0.00000000    0.00000000
     atom    4 type  5   force =     0.00000000    0.00000000    0.00000000
     atom    5 type  5   force =     0.00000000    0.00000000    0.00000000
     atom    6 type  5   force =     0.00000000    0.00000000    0.00000000
     atom    7 type  7   force =     0.00000000    0.00000000    0.00000000
     atom    8 type  7   force =     0.00000000    0.00000000    0.00000000
     atom    9 type  7   force =     0.00000000    0.00000000    0.00000000
     atom   10 type  7   force =     0.00000000    0.00000000    0.00000000
     atom   11 type  7   force =     0.00000000    0.00000000    0.00000000
     atom   12 type  7   force =     0.00000000    0.00000000    0.00000000
     atom   13 type  1   force =     0.00000000    0.00000000    0.00000000
     atom   14 type  1   force =     0.00000000    0.00000000    0.00000000
     atom   15 type  6   force =     0.00000000    0.00000000    0.00000000
     atom   16 type  6   force =     0.00000000    0.00000000    0.00000000
     atom   17 type  6   force =     0.00000000    0.00000000    0.00000000
     atom   18 type  6   force =     0.00000000    0.00000000    0.00000000
     atom   19 type  6   force =     0.00000000    0.00000000    0.00000000
     atom   20 type  6   force =     0.00000000    0.00000000    0.00000000
     atom   21 type  6   force =     0.00000000    0.00000000    0.00000000
     atom   22 type  6   force =     0.00000000    0.00000000    0.00000000
     atom   23 type  6   force =     0.00000000    0.00000000    0.00000000
     atom   24 type  6   force =     0.00000000    0.00000000    0.00000000
     atom   25 type  6   force =     0.00000000    0.00000000    0.00000000
     atom   26 type  6   force =     0.00000000    0.00000000    0.00000000
     atom   27 type  6   force =     0.00000000    0.00000000    0.00000000
     atom   28 type  6   force =     0.00000000    0.00000000    0.00000000
     atom   29 type  6   force =     0.00000000    0.00000000    0.00000000
     atom   30 type  6   force =     0.00000000    0.00000000    0.00000000
     atom   31 type  6   force =     0.00000000    0.00000000    0.00000000
     atom   32 type  6   force =     0.00000000    0.00000000    0.00000000
     atom   33 type  6   force =     0.00000000    0.00000000    0.00000000
     atom   34 type  6   force =     0.00000000    0.00000000    0.00000000
     atom   35 type  6   force =     0.00000000    0.00000000    0.00000000
     atom   36 type  6   force =     0.00000000    0.00000000    0.00000000
     atom   37 type  6   force =     0.00000000    0.00000000    0.00000000
     atom   38 type  6   force =     0.00000000    0.00000000    0.00000000
     atom   39 type  3   force =     0.00000000    0.00000000    0.00000000
     atom   40 type  3   force =     0.00000000    0.00000000    0.00000000
     atom   41 type  3   force =     0.00000000    0.00000000    0.00000000
     atom   42 type  3   force =     0.00000000    0.00000000    0.00000000
     atom   43 type  2   force =     0.00000000    0.00000000    0.00000000
     The SCF correction term to forces
     atom    1 type  4   force =     0.00000000    0.00001534    0.00000000
     atom    2 type  4   force =    -0.00000000   -0.00005045   -0.00000000
     atom    3 type  5   force =    -0.00000000   -0.00009288   -0.00000000
     atom    4 type  5   force =     0.00000000   -0.00001794    0.00000000
     atom    5 type  5   force =     0.00000000   -0.00014804    0.00000000
     atom    6 type  5   force =     0.00000000    0.00010762    0.00000000
     atom    7 type  7   force =    -0.00000233    0.00001024   -0.00000472
     atom    8 type  7   force =     0.00000233    0.00001024    0.00000472
     atom    9 type  7   force =     0.00000210   -0.00001584   -0.00000709
     atom   10 type  7   force =    -0.00000210   -0.00001584    0.00000709
     atom   11 type  7   force =    -0.00000126   -0.00001849    0.00001610
     atom   12 type  7   force =     0.00000126   -0.00001849   -0.00001610
     atom   13 type  1   force =     0.00000215    0.00001356   -0.00001886
     atom   14 type  1   force =    -0.00000215    0.00001356    0.00001886
     atom   15 type  6   force =     0.00001982    0.00001412   -0.00004187
     atom   16 type  6   force =    -0.00001982    0.00001412    0.00004187
     atom   17 type  6   force =    -0.00001861   -0.00003859   -0.00000708
     atom   18 type  6   force =     0.00001861   -0.00003859    0.00000708
     atom   19 type  6   force =    -0.00001098   -0.00006581    0.00002160
     atom   20 type  6   force =     0.00001098   -0.00006581   -0.00002160
     atom   21 type  6   force =     0.00005461    0.00006940    0.00002579
     atom   22 type  6   force =    -0.00005461    0.00006940   -0.00002579
     atom   23 type  6   force =     0.00001460    0.00003548    0.00001456
     atom   24 type  6   force =    -0.00001460    0.00003548   -0.00001456
     atom   25 type  6   force =    -0.00000915   -0.00000451   -0.00000762
     atom   26 type  6   force =     0.00000915   -0.00000451    0.00000762
     atom   27 type  6   force =    -0.00000225   -0.00001999    0.00001035
     atom   28 type  6   force =     0.00000225   -0.00001999   -0.00001035
     atom   29 type  6   force =    -0.00000258   -0.00001405    0.00001163
     atom   30 type  6   force =     0.00000258   -0.00001405   -0.00001163
     atom   31 type  6   force =    -0.00001253   -0.00000483    0.00006197
     atom   32 type  6   force =     0.00001253   -0.00000483   -0.00006197
     atom   33 type  6   force =     0.00000753    0.00001559   -0.00000995
     atom   34 type  6   force =    -0.00000753    0.00001559    0.00000995
     atom   35 type  6   force =     0.00001290    0.00001304    0.00002081
     atom   36 type  6   force =    -0.00001290    0.00001304   -0.00002081
     atom   37 type  6   force =     0.00004577    0.00000037   -0.00000714
     atom   38 type  6   force =    -0.00004577    0.00000037    0.00000714
     atom   39 type  3   force =     0.00000203    0.00000267    0.00000711
     atom   40 type  3   force =    -0.00000203    0.00000267   -0.00000711
     atom   41 type  3   force =     0.00000422    0.00000123   -0.00001177
     atom   42 type  3   force =    -0.00000422    0.00000123    0.00001177
     atom   43 type  2   force =     0.00000000    0.00022865    0.00000000

     DFT-D3 dispersion contribution to forces:
     atom    1 type  4   force =    -0.00000000    0.00031192    0.00000000
     atom    2 type  4   force =     0.00000000   -0.00011324    0.00000000
     atom    3 type  5   force =    -0.00000000    0.00019524   -0.00000000
     atom    4 type  5   force =     0.00000000    0.00017563    0.00000000
     atom    5 type  5   force =    -0.00000000    0.00227483   -0.00000000
     atom    6 type  5   force =     0.00000000   -0.00188550   -0.00000000
     atom    7 type  7   force =    -0.00054890   -0.00025614    0.00050472
     atom    8 type  7   force =     0.00054890   -0.00025614   -0.00050472
     atom    9 type  7   force =     0.00061169    0.00031542   -0.00062553
     atom   10 type  7   force =    -0.00061169    0.00031542    0.00062553
     atom   11 type  7   force =    -0.00005990   -0.00051950   -0.00074126
     atom   12 type  7   force =     0.00005990   -0.00051950    0.00074126
     atom   13 type  1   force =     0.00015453    0.00055617   -0.00055601
     atom   14 type  1   force =    -0.00015453    0.00055617    0.00055601
     atom   15 type  6   force =    -0.00002632   -0.00034382    0.00046187
     atom   16 type  6   force =     0.00002632   -0.00034382   -0.00046187
     atom   17 type  6   force =     0.00033734    0.00024300   -0.00047927
     atom   18 type  6   force =    -0.00033734    0.00024300    0.00047927
     atom   19 type  6   force =     0.00000054   -0.00025190    0.00027199
     atom   20 type  6   force =    -0.00000054   -0.00025190   -0.00027199
     atom   21 type  6   force =     0.00021055    0.00011296    0.00029328
     atom   22 type  6   force =    -0.00021055    0.00011296   -0.00029328
     atom   23 type  6   force =    -0.00016018    0.00111648    0.00013601
     atom   24 type  6   force =     0.00016018    0.00111648   -0.00013601
     atom   25 type  6   force =     0.00079297    0.00007461    0.00032864
     atom   26 type  6   force =    -0.00079297    0.00007461   -0.00032864
     atom   27 type  6   force =     0.00031271   -0.00051948   -0.00025815
     atom   28 type  6   force =    -0.00031271   -0.00051948    0.00025815
     atom   29 type  6   force =    -0.00027209    0.00027293    0.00031240
     atom   30 type  6   force =     0.00027209    0.00027293   -0.00031240
     atom   31 type  6   force =     0.00087120   -0.00045221    0.00036019
     atom   32 type  6   force =    -0.00087120   -0.00045221   -0.00036019
     atom   33 type  6   force =     0.00071317   -0.00055564   -0.00003977
     atom   34 type  6   force =    -0.00071317   -0.00055564    0.00003977
     atom   35 type  6   force =     0.00019622    0.00026525   -0.00074492
     atom   36 type  6   force =    -0.00019622    0.00026525    0.00074492
     atom   37 type  6   force =     0.00054719   -0.00009280   -0.00026716
     atom   38 type  6   force =    -0.00054719   -0.00009280    0.00026716
     atom   39 type  3   force =     0.00009386    0.00028552   -0.00029919
     atom   40 type  3   force =    -0.00009387    0.00028552    0.00029919
     atom   41 type  3   force =     0.00055780   -0.00028880    0.00003385
     atom   42 type  3   force =    -0.00055780   -0.00028880   -0.00003385
     atom   43 type  2   force =     0.00000000   -0.00088296   -0.00000000

     Total force =     0.010028     Total SCF correction =     0.000395

     DFT-D3 dispersion Force =     0.005487
     Energy error            =      1.7E-04 Ry
     Gradient error          =      2.8E-03 Ry/Bohr

     number of scf cycles    =  17
     number of bfgs steps    =  16

     energy             old  =   -2344.3066898939 Ry
     energy             new  =   -2344.3068594645 Ry

     CASE: energy            _new < energy            _old

     new trust radius        =       0.0224305958 bohr
     new conv_thr            =       0.0000000170 Ry


ATOMIC_POSITIONS (crystal)
K                0.0000000000        0.5062837908        0.0000000000
K                0.5000000000       -0.0048136595        0.0000000000
Mg              -0.0000000000        0.6764236763        0.5000000000
Mg               0.5000000000        0.5035374532        0.5000000000
Mg               0.5000000000        0.8440474364        0.5000000000
Mg               0.5000000000        0.1571389275        0.5000000000
Si               0.0820844929        0.1671615929        0.2175605150
Si               0.9179154931        0.1671615929        0.7824395150
Si               0.9281153236        0.8321767844        0.7691326026
Si               0.0718846764        0.8321767844        0.2308673974
Si               0.5639236004        0.6697335020        0.2237369187
Si               0.4360763996        0.6697335020        0.7762630663
Al               0.4174240344        0.3318638853        0.7820028350
Al               0.5825759656        0.3318638853        0.2179971650
O                0.1286345954        0.1895639885        0.3809083166
O                0.8713653746        0.1895639885        0.6190917124
O                0.8588865860        0.8141971425        0.6131736583
O                0.1411134140        0.8141971425        0.3868263417
O                0.6244420496        0.6656427667        0.3854186260
O                0.3755579504        0.6656427667        0.6145813740
O                0.3451651601        0.3329503335        0.6040514747
O                0.6548348399        0.3329503335        0.3959485253
O                0.3384312734        0.2075862607        0.1596525794
O                0.6615687266        0.2075862607        0.8403473906
O                0.9997586834        0.9983908300        0.1742087215
O                0.0002413166        0.9983908300        0.8257912635
O                0.6841945563        0.7752265719        0.8392572661
O                0.3158054437        0.7752265719        0.1607427339
O                0.8155456097        0.7339143250        0.1644861847
O                0.1844543903        0.7339143250        0.8355138153
O                0.4957282675        0.5085623880        0.1612606647
O                0.5042717025        0.5085623880        0.8387393503
O                0.1469460469        0.2770145209        0.8463037625
O                0.8530539681        0.2770145209        0.1536962375
O                0.1254177909        0.4933649988        0.4005227092
O                0.8745822241        0.4933649988        0.5994772908
O                0.5860691076        1.0030420928        0.3839841869
O                0.4139308924        1.0030420928        0.6160157831
H                0.0892523989        0.4886168819        0.3042022123
H                0.9107476311        0.4886168819        0.6957977877
H                0.5979310623        0.0106114441        0.2915359618
H                0.4020689377        0.0106114441        0.7084640382
Ti              -0.0000000000        0.3142348083        0.5000000000



     Writing config-only to output data dir ./temp/phl-ti1-ti2-v1.save/ :
     XML data file
     NEW-OLD atomic charge density approx. for the potential

     Check: negative core charge=   -0.000004
     Generating pointlists ...

     total cpu time spent up to now is   223009.2 secs

     Self-consistent Calculation

     iteration #  1     ecut=    60.00 Ry     beta= 0.70
     Davidson diagonalization with overlap

---- Real-time Memory Report at c_bands before calling an iterative solver
           883 MiB given to the printing process from OS
             0 MiB allocation reported by mallinfo(arena+hblkhd)
          1797 MiB available memory on the node where the printing process lives
------------------
     ethr =  1.00E-06,  avg # of iterations =  7.0

     Threshold (ethr) on eigenvalues was too large:
     Diagonalizing with lowered threshold

     Davidson diagonalization with overlap

---- Real-time Memory Report at c_bands before calling an iterative solver
           883 MiB given to the printing process from OS
             0 MiB allocation reported by mallinfo(arena+hblkhd)
          1880 MiB available memory on the node where the printing process lives
------------------
     ethr =  7.73E-08,  avg # of iterations =  8.2

     total cpu time spent up to now is   225590.1 secs

     total energy              =   -2344.30696006 Ry
     estimated scf accuracy    <       0.00020849 Ry

     total magnetization       =    -0.00 Bohr mag/cell
     absolute magnetization    =     0.00 Bohr mag/cell

     iteration #  2     ecut=    60.00 Ry     beta= 0.70
     Davidson diagonalization with overlap

---- Real-time Memory Report at c_bands before calling an iterative solver
           883 MiB given to the printing process from OS
             0 MiB allocation reported by mallinfo(arena+hblkhd)
          1739 MiB available memory on the node where the printing process lives
------------------
     ethr =  8.41E-08,  avg # of iterations =  4.0

     total cpu time spent up to now is   226542.1 secs

     total energy              =   -2344.30696914 Ry
     estimated scf accuracy    <       0.00009344 Ry

     total magnetization       =     0.00 Bohr mag/cell
     absolute magnetization    =     0.00 Bohr mag/cell

     iteration #  3     ecut=    60.00 Ry     beta= 0.70
     Davidson diagonalization with overlap

---- Real-time Memory Report at c_bands before calling an iterative solver
           883 MiB given to the printing process from OS
             0 MiB allocation reported by mallinfo(arena+hblkhd)
          1743 MiB available memory on the node where the printing process lives
------------------
     ethr =  3.77E-08,  avg # of iterations =  2.0

     total cpu time spent up to now is   227437.8 secs

     total energy              =   -2344.30698807 Ry
     estimated scf accuracy    <       0.00014980 Ry

     total magnetization       =     0.00 Bohr mag/cell
     absolute magnetization    =     0.00 Bohr mag/cell

     iteration #  4     ecut=    60.00 Ry     beta= 0.70
     Davidson diagonalization with overlap

---- Real-time Memory Report at c_bands before calling an iterative solver
           883 MiB given to the printing process from OS
             0 MiB allocation reported by mallinfo(arena+hblkhd)
          1742 MiB available memory on the node where the printing process lives
------------------
