 INFO
nunit      1    1    1
unit   cell
celltype   primcell
shape   parapipedal
 END_INFO
 DIM-GROUP
           3           1
 PRIMVEC
   10.6565528030    0.0000000000    0.0000000000
    0.0000000000    9.2658797100    0.0000000000
   -1.9232434140    0.0000000000   10.2480602960
 CONVVEC
   10.6565528030    0.0000000000    0.0000000000
    0.0000000000    9.2658797100    0.0000000000
   -1.9232434140    0.0000000000   10.2480602960
 PRIMCOORD
          88           1
 19      0.0000000000     4.5434409710     0.0000000000     0.0000000000     0.0000717100     0.0000000000
 19      5.3282771250     4.5434238760     0.0000000000     0.0000000000    -0.0000369200     0.0000000000
 19      2.6641503110     0.0526913770    -0.0000005180    -0.0000487100    -0.0001343600     0.0000765000
 19      7.9924052190     0.0526913770     0.0000005180     0.0000487100    -0.0001343600    -0.0000765000
 12     -0.9616212340     0.0570938730     5.1240311820     0.0000000000    -0.0000892000     0.0000000000
 12      4.3666558910     0.0570870730     5.1240311820     0.0000000000     0.0000137400     0.0000000000
 12     -0.9616212340     6.1824333410     5.1240311820     0.0000000000    -0.0000720200     0.0000000000
 12      4.3666558910     6.1824134260     5.1240311820     0.0000000000    -0.0005050600     0.0000000000
 12      1.7025577310     4.5948827100     5.1239953660     0.0028050300    -0.0012412400    -0.0014210900
 12      7.0307569070     4.5948827100     5.1240669980    -0.0028050300    -0.0012412400     0.0014210900
 12      1.7025751490     7.7416576300     5.1240209540    -0.0000029000     0.0000346000    -0.0004101600
 12      7.0307394890     7.7416576300     5.1240414090     0.0000029000     0.0000346000     0.0004101600
 12      1.7025728580     1.5794697030     5.1240251310     0.0027340400     0.0012394400    -0.0012609300
 12      7.0307417800     1.5794697030     5.1240372320    -0.0027340400     0.0012394400     0.0012609300
 14      0.0368600490     1.5121668350     2.3077691660    -0.0000948200    -0.0001929100    -0.0000419600
 14      5.3651198210     1.5121800060     2.3077925770    -0.0023166500     0.0013934200    -0.0023299400
 14      3.3681950770     1.5121800060     7.9402701040     0.0023166500     0.0013934200     0.0023299400
 14      8.6964548810     1.5121668350     7.9402935160     0.0000948200    -0.0001929100     0.0000419600
 14      3.5133710980     7.7297185990     7.8638504500     0.0003246000    -0.0002336900     0.0003000500
 14      8.8416391620     7.7297044080     7.8638897020    -0.0002221200    -0.0000359100    -0.0000393200
 14     -0.1083242800     7.7297044080     2.3841726720     0.0002221200    -0.0000359100     0.0000393200
 14      5.2199441780     7.7297185990     2.3842119240    -0.0003246000    -0.0002336900    -0.0003000500
 14      2.5556724840     6.1769387000     2.3695793780    -0.0001766400    -0.0007567300     0.0005135300
 14      7.8839355490     6.1769650740     2.3695649880     0.0004140500     0.0000921700    -0.0001068800
 14      0.8493794070     6.1769650740     7.8784973860    -0.0004140500     0.0000921700     0.0001068800
 14      6.1776424720     6.1769387000     7.8784829960     0.0001766400    -0.0007567300    -0.0005135300
 13      0.7018390340     3.0644924000     7.9101081820    -0.0003858400     0.0000769100    -0.0002277500
 13      6.0301126530     3.0644894590     7.9101020170    -0.0028690100     0.0003064000    -0.0020680400
 13      2.7032026510     3.0644894590     2.3379602030     0.0028690100     0.0003064000     0.0020680400
 13      8.0314761100     3.0644924000     2.3379540390     0.0003858400     0.0000769100     0.0002277500
  8     -0.0181497020     1.4610473010     3.9366676120    -0.0000357300     0.0002249000    -0.0001703500
  8      5.3100479700     1.4610589300     3.9366878360    -0.0038833800     0.0067039700     0.0073009300
  8      3.4232668710     1.4610589300     6.3113751530     0.0038833800     0.0067039700    -0.0073009300
  8      8.7514647880     1.4610473010     6.3113953770     0.0000357300     0.0002249000     0.0001703500
  8      3.4935402340     7.7331976750     6.2432805630    -0.0001443100    -0.0001039600     0.0000310400
  8      8.8217851000     7.7331993320     6.2433171660     0.0000950100     0.0000008100    -0.0000788600
  8     -0.0884695710     7.7331993320     4.0047455050    -0.0000950100     0.0000008100     0.0000788600
  8      5.2397749860     7.7331976750     4.0047821080     0.0001443100    -0.0001039600    -0.0000310400
  8      2.5845408990     6.2063546940     3.9979935930     0.0001681700     0.0006001700     0.0000563900
  8      7.9127891750     6.2063636100     3.9979814960    -0.0002275700    -0.0000178400    -0.0002157100
  8      0.8205252450     6.2063636100     6.2500811750     0.0002275700    -0.0000178400     0.0002157100
  8      6.1487736810     6.2063546940     6.2500690790    -0.0001681700     0.0006001700    -0.0000563900
  8      0.7662288090     3.0880348480     6.1632354770    -0.0002868200    -0.0000078100     0.0005194700
  8      6.0944635900     3.0880656520     6.1632441750    -0.0106851500     0.0007906600    -0.0078535000
  8      2.6388518010     3.0880656520     4.0848175840     0.0106851500     0.0007906600     0.0078535000
  8      7.9670861020     3.0880348480     4.0848262820     0.0002868200    -0.0000078100    -0.0005194700
  8      1.5134631710     1.8991433550     1.7312494970    -0.0003920200     0.0004764600     0.0002888100
  8      6.8417153960     1.8991461810     1.7312591300    -0.0003366500    -0.0003933600     0.0006561100
  8      1.8915999950     1.8991461810     8.5168026290     0.0003366500    -0.0003933600    -0.0006561100
  8      7.2198517410     1.8991433550     8.5168122620     0.0003920200     0.0004764600    -0.0002888100
  8     -0.3077110040     9.2323559480     1.7390835220    -0.0000797600     0.0000550400    -0.0000876800
  8      5.0205844850     9.2323672140     1.7391416160     0.0003768300     0.0001467700     0.0003586500
  8      3.7127307920     9.2323672140     8.5089207470    -0.0003768300     0.0001467700    -0.0003586500
  8      9.0410265590     9.2323559480     8.5089788410     0.0000797600     0.0000550400     0.0000876800
  8      2.0897413380     7.1307298260     8.4638232270     0.0001073200    -0.0000432100    -0.0000426700
  8      7.4179991200     7.1306932520     8.4638190940     0.0001913100     0.0001354700     0.0000982700
  8      1.3153161260     7.1306932520     1.7842434330    -0.0001913100     0.0001354700    -0.0000982700
  8      6.6435735890     7.1307298260     1.7842393000    -0.0001073200    -0.0000432100     0.0000426700
  8      3.9718980850     6.8296887650     1.7729300570     0.0002755900     0.0002474000    -0.0000240900
  8      9.3001778860     6.8296769670     1.7728806560    -0.0001994200    -0.0000255200     0.0000595900
  8     -0.5668628550     6.8296769670     8.4751817180     0.0001994200    -0.0000255200    -0.0000595900
  8      4.7614168710     6.8296887650     8.4751323170    -0.0002755900     0.0002474000     0.0000240900
  8      2.3718260000     4.7014810260     1.7222473540    -0.0003349200     0.0002431100    -0.0007095300
  8      7.7001169050     4.7014964780     1.7222219700    -0.0003112300    -0.0000277500     0.0001104200
  8      1.0331982390     4.7014964780     8.5258402500     0.0003112300    -0.0000277500    -0.0001104200
  8      6.3614886650     4.7014810260     8.5258148660     0.0003349200     0.0002431100     0.0007095300
  8     -0.8576128600     2.5406370690     8.5593116860     0.0000764700     0.0000955200     0.0000266700
  8      4.4706776360     2.5406248240     8.5592941890    -0.0006691100    -0.0003202200     0.0005259100
  8      4.2626376010     2.5406248240     1.6887683390     0.0006691100    -0.0003202200    -0.0005259100
  8      9.5909277870     2.5406370690     1.6887508420    -0.0000764700     0.0000955200    -0.0000266700
  8     -0.0358079850     4.7408945580     4.0325081010    -0.0000589100    -0.0001978500    -0.0001283300
  8      5.2924293700     4.7409220270     4.0325446460    -0.0023915600    -0.0088862300     0.0063158300
  8      3.4408855280     4.7409220270     6.2155180350     0.0023915600    -0.0088862300    -0.0063158300
  8      8.7691228830     4.7408945580     6.2155545800     0.0000589100    -0.0001978500     0.0001283300
  8      2.6063432770     9.2614243090     4.0919019890     0.0001493700    -0.0006132100     0.0001613100
  8      7.9345534400     9.2614417750     4.0918791600    -0.0000891300    -0.0000032900    -0.0001600500
  8      0.7987623040     9.2614417750     6.1561832140     0.0000891300    -0.0000032900     0.0001600500
  8      6.1269719990     9.2614243090     6.1561603850    -0.0001493700    -0.0006132100    -0.0001613100
  1     -0.0280114050     4.5615544350     3.0831944590    -0.0000264400     0.0001084300    -0.0001081700
  1      5.3003148570     4.5615669180     3.0832319480    -0.0031080000    -0.0000566400    -0.0005330000
  1      3.4330006810     4.5615669180     7.1648307330     0.0031080000    -0.0000566400     0.0005330000
  1      8.7613266660     4.5615544350     7.1648682220     0.0000264400     0.0001084300     0.0001081700
  1      2.5736277750     0.1242395770     3.1345234950     0.0000212400     0.0001426700     0.0001498500
  1      7.9018942410     0.1242288510     3.1345133940     0.0001058600    -0.0000726700    -0.0000545200
  1      0.8314205660     0.1242288510     7.1135489800    -0.0001058600    -0.0000726700     0.0000545200
  1      6.1596874900     0.1242395770     7.1135388780    -0.0000212400     0.0001426700    -0.0001498500
 26     -0.9616212340     3.1093817820     5.1240311820     0.0000000000     0.0000502500     0.0000000000
 26      4.3666558910     3.1093530900     5.1240311820     0.0000000000     0.0010676700     0.0000000000
 CONVCOORD
          88           1
 19      0.0000000000     4.5434409710     0.0000000000
 19      5.3282771250     4.5434238760     0.0000000000
 19      2.6641503110     0.0526913770    -0.0000005180
 19      7.9924052190     0.0526913770     0.0000005180
 12     -0.9616212340     0.0570938730     5.1240311820
 12      4.3666558910     0.0570870730     5.1240311820
 12     -0.9616212340     6.1824333410     5.1240311820
 12      4.3666558910     6.1824134260     5.1240311820
 12      1.7025577310     4.5948827100     5.1239953660
 12      7.0307569070     4.5948827100     5.1240669980
 12      1.7025751490     7.7416576300     5.1240209540
 12      7.0307394890     7.7416576300     5.1240414090
 12      1.7025728580     1.5794697030     5.1240251310
 12      7.0307417800     1.5794697030     5.1240372320
 14      0.0368600490     1.5121668350     2.3077691660
 14      5.3651198210     1.5121800060     2.3077925770
 14      3.3681950770     1.5121800060     7.9402701040
 14      8.6964548810     1.5121668350     7.9402935160
 14      3.5133710980     7.7297185990     7.8638504500
 14      8.8416391620     7.7297044080     7.8638897020
 14     -0.1083242800     7.7297044080     2.3841726720
 14      5.2199441780     7.7297185990     2.3842119240
 14      2.5556724840     6.1769387000     2.3695793780
 14      7.8839355490     6.1769650740     2.3695649880
 14      0.8493794070     6.1769650740     7.8784973860
 14      6.1776424720     6.1769387000     7.8784829960
 13      0.7018390340     3.0644924000     7.9101081820
 13      6.0301126530     3.0644894590     7.9101020170
 13      2.7032026510     3.0644894590     2.3379602030
 13      8.0314761100     3.0644924000     2.3379540390
  8     -0.0181497020     1.4610473010     3.9366676120
  8      5.3100479700     1.4610589300     3.9366878360
  8      3.4232668710     1.4610589300     6.3113751530
  8      8.7514647880     1.4610473010     6.3113953770
  8      3.4935402340     7.7331976750     6.2432805630
  8      8.8217851000     7.7331993320     6.2433171660
  8     -0.0884695710     7.7331993320     4.0047455050
  8      5.2397749860     7.7331976750     4.0047821080
  8      2.5845408990     6.2063546940     3.9979935930
  8      7.9127891750     6.2063636100     3.9979814960
  8      0.8205252450     6.2063636100     6.2500811750
  8      6.1487736810     6.2063546940     6.2500690790
  8      0.7662288090     3.0880348480     6.1632354770
  8      6.0944635900     3.0880656520     6.1632441750
  8      2.6388518010     3.0880656520     4.0848175840
  8      7.9670861020     3.0880348480     4.0848262820
  8      1.5134631710     1.8991433550     1.7312494970
  8      6.8417153960     1.8991461810     1.7312591300
  8      1.8915999950     1.8991461810     8.5168026290
  8      7.2198517410     1.8991433550     8.5168122620
  8     -0.3077110040     9.2323559480     1.7390835220
  8      5.0205844850     9.2323672140     1.7391416160
  8      3.7127307920     9.2323672140     8.5089207470
  8      9.0410265590     9.2323559480     8.5089788410
  8      2.0897413380     7.1307298260     8.4638232270
  8      7.4179991200     7.1306932520     8.4638190940
  8      1.3153161260     7.1306932520     1.7842434330
  8      6.6435735890     7.1307298260     1.7842393000
  8      3.9718980850     6.8296887650     1.7729300570
  8      9.3001778860     6.8296769670     1.7728806560
  8     -0.5668628550     6.8296769670     8.4751817180
  8      4.7614168710     6.8296887650     8.4751323170
  8      2.3718260000     4.7014810260     1.7222473540
  8      7.7001169050     4.7014964780     1.7222219700
  8      1.0331982390     4.7014964780     8.5258402500
  8      6.3614886650     4.7014810260     8.5258148660
  8     -0.8576128600     2.5406370690     8.5593116860
  8      4.4706776360     2.5406248240     8.5592941890
  8      4.2626376010     2.5406248240     1.6887683390
  8      9.5909277870     2.5406370690     1.6887508420
  8     -0.0358079850     4.7408945580     4.0325081010
  8      5.2924293700     4.7409220270     4.0325446460
  8      3.4408855280     4.7409220270     6.2155180350
  8      8.7691228830     4.7408945580     6.2155545800
  8      2.6063432770     9.2614243090     4.0919019890
  8      7.9345534400     9.2614417750     4.0918791600
  8      0.7987623040     9.2614417750     6.1561832140
  8      6.1269719990     9.2614243090     6.1561603850
  1     -0.0280114050     4.5615544350     3.0831944590
  1      5.3003148570     4.5615669180     3.0832319480
  1      3.4330006810     4.5615669180     7.1648307330
  1      8.7613266660     4.5615544350     7.1648682220
  1      2.5736277750     0.1242395770     3.1345234950
  1      7.9018942410     0.1242288510     3.1345133940
  1      0.8314205660     0.1242288510     7.1135489800
  1      6.1596874900     0.1242395770     7.1135388780
 26     -0.9616212340     3.1093817820     5.1240311820
 26      4.3666558910     3.1093530900     5.1240311820
 RECIP-PRIMVEC
    0.0938389757   -0.0000000000    0.0176106684

    0.0000000000    0.1079228342   -0.0000000000

    0.0000000000    0.0000000000    0.0975794415

 RECIP-CONVVEC
    0.0938389757   -0.0000000000    0.0176106684

    0.0000000000    0.1079228342   -0.0000000000

    0.0000000000    0.0000000000    0.0975794415

 WIGNER-SEITZ-PRIMCELL
           6
 -0.5328276E+01 -0.4632940E+01  0.4304544E+01  -0.8791849E-16 -0.1000000E+01 -0.1072849E-15
 -0.5328276E+01 -0.4632940E+01 -0.4304544E+01  -0.8791849E-16 -0.1000000E+01 -0.1072849E-15
 -0.3405033E+01 -0.4632940E+01 -0.5943516E+01  -0.8791849E-16 -0.1000000E+01 -0.1072849E-15
  0.5328276E+01 -0.4632940E+01 -0.4304544E+01  -0.8791849E-16 -0.1000000E+01 -0.1072849E-15
  0.5328276E+01 -0.4632940E+01  0.4304544E+01  -0.8791849E-16 -0.1000000E+01 -0.1072849E-15
  0.3405033E+01 -0.4632940E+01  0.5943516E+01  -0.8791849E-16 -0.1000000E+01 -0.1072849E-15
           4
  0.3405033E+01 -0.4632940E+01  0.5943516E+01   0.6486162E+00 -0.2142672E-17  0.7611156E+00
  0.5328276E+01 -0.4632940E+01  0.4304544E+01   0.6486162E+00 -0.2142672E-17  0.7611156E+00
  0.5328276E+01  0.4632940E+01  0.4304544E+01   0.6486162E+00 -0.2142672E-17  0.7611156E+00
  0.3405033E+01  0.4632940E+01  0.5943516E+01   0.6486162E+00 -0.2142672E-17  0.7611156E+00
           4
 -0.5328276E+01  0.4632940E+01  0.4304544E+01  -0.1844490E+00 -0.0000000E+00  0.9828421E+00
 -0.5328276E+01 -0.4632940E+01  0.4304544E+01  -0.1844490E+00 -0.0000000E+00  0.9828421E+00
  0.3405033E+01 -0.4632940E+01  0.5943516E+01  -0.1844490E+00 -0.0000000E+00  0.9828421E+00
  0.3405033E+01  0.4632940E+01  0.5943516E+01  -0.1844490E+00 -0.0000000E+00  0.9828421E+00
           4
  0.5328276E+01  0.4632940E+01  0.4304544E+01   0.1000000E+01 -0.9585473E-16 -0.1031675E-15
  0.5328276E+01 -0.4632940E+01  0.4304544E+01   0.1000000E+01 -0.9585473E-16 -0.1031675E-15
  0.5328276E+01 -0.4632940E+01 -0.4304544E+01   0.1000000E+01 -0.9585473E-16 -0.1031675E-15
  0.5328276E+01  0.4632940E+01 -0.4304544E+01   0.1000000E+01 -0.9585473E-16 -0.1031675E-15
           4
 -0.5328276E+01  0.4632940E+01 -0.4304544E+01  -0.1000000E+01 -0.9585473E-16 -0.1031675E-15
 -0.5328276E+01 -0.4632940E+01 -0.4304544E+01  -0.1000000E+01 -0.9585473E-16 -0.1031675E-15
 -0.5328276E+01 -0.4632940E+01  0.4304544E+01  -0.1000000E+01 -0.9585473E-16 -0.1031675E-15
 -0.5328276E+01  0.4632940E+01  0.4304544E+01  -0.1000000E+01 -0.9585473E-16 -0.1031675E-15
           4
  0.5328276E+01  0.4632940E+01 -0.4304544E+01   0.1844490E+00  0.0000000E+00 -0.9828421E+00
  0.5328276E+01 -0.4632940E+01 -0.4304544E+01   0.1844490E+00  0.0000000E+00 -0.9828421E+00
 -0.3405033E+01 -0.4632940E+01 -0.5943516E+01   0.1844490E+00  0.0000000E+00 -0.9828421E+00
 -0.3405033E+01  0.4632940E+01 -0.5943516E+01   0.1844490E+00  0.0000000E+00 -0.9828421E+00
           4
 -0.3405033E+01  0.4632940E+01 -0.5943516E+01  -0.6486162E+00 -0.1517365E-15 -0.7611156E+00
 -0.3405033E+01 -0.4632940E+01 -0.5943516E+01  -0.6486162E+00 -0.1517365E-15 -0.7611156E+00
 -0.5328276E+01 -0.4632940E+01 -0.4304544E+01  -0.6486162E+00 -0.1517365E-15 -0.7611156E+00
 -0.5328276E+01  0.4632940E+01 -0.4304544E+01  -0.6486162E+00 -0.1517365E-15 -0.7611156E+00
           6
  0.3405033E+01  0.4632940E+01  0.5943516E+01   0.0000000E+00  0.1000000E+01  0.0000000E+00
  0.5328276E+01  0.4632940E+01  0.4304544E+01   0.0000000E+00  0.1000000E+01  0.0000000E+00
  0.5328276E+01  0.4632940E+01 -0.4304544E+01   0.0000000E+00  0.1000000E+01  0.0000000E+00
 -0.3405033E+01  0.4632940E+01 -0.5943516E+01   0.0000000E+00  0.1000000E+01  0.0000000E+00
 -0.5328276E+01  0.4632940E+01 -0.4304544E+01   0.0000000E+00  0.1000000E+01  0.0000000E+00
 -0.5328276E+01  0.4632940E+01  0.4304544E+01   0.0000000E+00  0.1000000E+01  0.0000000E+00
 WIGNER-SEITZ-PRIMCELL_END
 WIGNER-SEITZ-CONVCELL
           6
 -0.5328276E+01 -0.4632940E+01  0.4304544E+01  -0.8791849E-16 -0.1000000E+01 -0.1072849E-15
 -0.5328276E+01 -0.4632940E+01 -0.4304544E+01  -0.8791849E-16 -0.1000000E+01 -0.1072849E-15
 -0.3405033E+01 -0.4632940E+01 -0.5943516E+01  -0.8791849E-16 -0.1000000E+01 -0.1072849E-15
  0.5328276E+01 -0.4632940E+01 -0.4304544E+01  -0.8791849E-16 -0.1000000E+01 -0.1072849E-15
  0.5328276E+01 -0.4632940E+01  0.4304544E+01  -0.8791849E-16 -0.1000000E+01 -0.1072849E-15
  0.3405033E+01 -0.4632940E+01  0.5943516E+01  -0.8791849E-16 -0.1000000E+01 -0.1072849E-15
           4
  0.3405033E+01 -0.4632940E+01  0.5943516E+01   0.6486162E+00 -0.2142672E-17  0.7611156E+00
  0.5328276E+01 -0.4632940E+01  0.4304544E+01   0.6486162E+00 -0.2142672E-17  0.7611156E+00
  0.5328276E+01  0.4632940E+01  0.4304544E+01   0.6486162E+00 -0.2142672E-17  0.7611156E+00
  0.3405033E+01  0.4632940E+01  0.5943516E+01   0.6486162E+00 -0.2142672E-17  0.7611156E+00
           4
 -0.5328276E+01  0.4632940E+01  0.4304544E+01  -0.1844490E+00 -0.0000000E+00  0.9828421E+00
 -0.5328276E+01 -0.4632940E+01  0.4304544E+01  -0.1844490E+00 -0.0000000E+00  0.9828421E+00
  0.3405033E+01 -0.4632940E+01  0.5943516E+01  -0.1844490E+00 -0.0000000E+00  0.9828421E+00
  0.3405033E+01  0.4632940E+01  0.5943516E+01  -0.1844490E+00 -0.0000000E+00  0.9828421E+00
           4
  0.5328276E+01  0.4632940E+01  0.4304544E+01   0.1000000E+01 -0.9585473E-16 -0.1031675E-15
  0.5328276E+01 -0.4632940E+01  0.4304544E+01   0.1000000E+01 -0.9585473E-16 -0.1031675E-15
  0.5328276E+01 -0.4632940E+01 -0.4304544E+01   0.1000000E+01 -0.9585473E-16 -0.1031675E-15
  0.5328276E+01  0.4632940E+01 -0.4304544E+01   0.1000000E+01 -0.9585473E-16 -0.1031675E-15
           4
 -0.5328276E+01  0.4632940E+01 -0.4304544E+01  -0.1000000E+01 -0.9585473E-16 -0.1031675E-15
 -0.5328276E+01 -0.4632940E+01 -0.4304544E+01  -0.1000000E+01 -0.9585473E-16 -0.1031675E-15
 -0.5328276E+01 -0.4632940E+01  0.4304544E+01  -0.1000000E+01 -0.9585473E-16 -0.1031675E-15
 -0.5328276E+01  0.4632940E+01  0.4304544E+01  -0.1000000E+01 -0.9585473E-16 -0.1031675E-15
           4
  0.5328276E+01  0.4632940E+01 -0.4304544E+01   0.1844490E+00  0.0000000E+00 -0.9828421E+00
  0.5328276E+01 -0.4632940E+01 -0.4304544E+01   0.1844490E+00  0.0000000E+00 -0.9828421E+00
 -0.3405033E+01 -0.4632940E+01 -0.5943516E+01   0.1844490E+00  0.0000000E+00 -0.9828421E+00
 -0.3405033E+01  0.4632940E+01 -0.5943516E+01   0.1844490E+00  0.0000000E+00 -0.9828421E+00
           4
 -0.3405033E+01  0.4632940E+01 -0.5943516E+01  -0.6486162E+00 -0.1517365E-15 -0.7611156E+00
 -0.3405033E+01 -0.4632940E+01 -0.5943516E+01  -0.6486162E+00 -0.1517365E-15 -0.7611156E+00
 -0.5328276E+01 -0.4632940E+01 -0.4304544E+01  -0.6486162E+00 -0.1517365E-15 -0.7611156E+00
 -0.5328276E+01  0.4632940E+01 -0.4304544E+01  -0.6486162E+00 -0.1517365E-15 -0.7611156E+00
           6
  0.3405033E+01  0.4632940E+01  0.5943516E+01   0.0000000E+00  0.1000000E+01  0.0000000E+00
  0.5328276E+01  0.4632940E+01  0.4304544E+01   0.0000000E+00  0.1000000E+01  0.0000000E+00
  0.5328276E+01  0.4632940E+01 -0.4304544E+01   0.0000000E+00  0.1000000E+01  0.0000000E+00
 -0.3405033E+01  0.4632940E+01 -0.5943516E+01   0.0000000E+00  0.1000000E+01  0.0000000E+00
 -0.5328276E+01  0.4632940E+01 -0.4304544E+01   0.0000000E+00  0.1000000E+01  0.0000000E+00
 -0.5328276E+01  0.4632940E+01  0.4304544E+01   0.0000000E+00  0.1000000E+01  0.0000000E+00
 WIGNER-SEITZ-CONVCELL_END
 BRILLOUIN-ZONE-PRIMCELL
           4
 -0.5442332E-01  0.5396142E-01  0.3117905E-01  -0.9828421E+00 -0.2097302E-15 -0.1844490E+00
 -0.3941566E-01  0.5396142E-01 -0.4878972E-01  -0.9828421E+00 -0.2097302E-15 -0.1844490E+00
 -0.3941566E-01 -0.5396142E-01 -0.4878972E-01  -0.9828421E+00 -0.2097302E-15 -0.1844490E+00
 -0.5442332E-01 -0.5396142E-01  0.3117905E-01  -0.9828421E+00 -0.2097302E-15 -0.1844490E+00
           4
 -0.5442332E-01  0.5396142E-01  0.3117905E-01  -0.7611156E+00 -0.1302546E-15  0.6486162E+00
 -0.5442332E-01 -0.5396142E-01  0.3117905E-01  -0.7611156E+00 -0.1302546E-15  0.6486162E+00
 -0.3941566E-01 -0.5396142E-01  0.4878972E-01  -0.7611156E+00 -0.1302546E-15  0.6486162E+00
 -0.3941566E-01  0.5396142E-01  0.4878972E-01  -0.7611156E+00 -0.1302546E-15  0.6486162E+00
           6
  0.3941566E-01 -0.5396142E-01  0.4878972E-01   0.0000000E+00 -0.1000000E+01 -0.6247779E-15
 -0.3941566E-01 -0.5396142E-01  0.4878972E-01   0.0000000E+00 -0.1000000E+01 -0.6247779E-15
 -0.5442332E-01 -0.5396142E-01  0.3117905E-01   0.0000000E+00 -0.1000000E+01 -0.6247779E-15
 -0.3941566E-01 -0.5396142E-01 -0.4878972E-01   0.0000000E+00 -0.1000000E+01 -0.6247779E-15
  0.3941566E-01 -0.5396142E-01 -0.4878972E-01   0.0000000E+00 -0.1000000E+01 -0.6247779E-15
  0.5442332E-01 -0.5396142E-01 -0.3117905E-01   0.0000000E+00 -0.1000000E+01 -0.6247779E-15
           4
 -0.3941566E-01 -0.5396142E-01 -0.4878972E-01   0.7958596E-16  0.1019502E-15 -0.1000000E+01
 -0.3941566E-01  0.5396142E-01 -0.4878972E-01   0.7958596E-16  0.1019502E-15 -0.1000000E+01
  0.3941566E-01  0.5396142E-01 -0.4878972E-01   0.7958596E-16  0.1019502E-15 -0.1000000E+01
  0.3941566E-01 -0.5396142E-01 -0.4878972E-01   0.7958596E-16  0.1019502E-15 -0.1000000E+01
           4
  0.3941566E-01 -0.5396142E-01  0.4878972E-01  -0.0000000E+00 -0.0000000E+00  0.1000000E+01
  0.3941566E-01  0.5396142E-01  0.4878972E-01  -0.0000000E+00 -0.0000000E+00  0.1000000E+01
 -0.3941566E-01  0.5396142E-01  0.4878972E-01  -0.0000000E+00 -0.0000000E+00  0.1000000E+01
 -0.3941566E-01 -0.5396142E-01  0.4878972E-01  -0.0000000E+00 -0.0000000E+00  0.1000000E+01
           6
  0.5442332E-01  0.5396142E-01 -0.3117905E-01  -0.0000000E+00  0.1000000E+01 -0.0000000E+00
  0.3941566E-01  0.5396142E-01 -0.4878972E-01  -0.0000000E+00  0.1000000E+01 -0.0000000E+00
 -0.3941566E-01  0.5396142E-01 -0.4878972E-01  -0.0000000E+00  0.1000000E+01 -0.0000000E+00
 -0.5442332E-01  0.5396142E-01  0.3117905E-01  -0.0000000E+00  0.1000000E+01 -0.0000000E+00
 -0.3941566E-01  0.5396142E-01  0.4878972E-01  -0.0000000E+00  0.1000000E+01 -0.0000000E+00
  0.3941566E-01  0.5396142E-01  0.4878972E-01  -0.0000000E+00  0.1000000E+01 -0.0000000E+00
           4
  0.5442332E-01 -0.5396142E-01 -0.3117905E-01   0.7611156E+00 -0.1971469E-18 -0.6486162E+00
  0.3941566E-01 -0.5396142E-01 -0.4878972E-01   0.7611156E+00 -0.1971469E-18 -0.6486162E+00
  0.3941566E-01  0.5396142E-01 -0.4878972E-01   0.7611156E+00 -0.1971469E-18 -0.6486162E+00
  0.5442332E-01  0.5396142E-01 -0.3117905E-01   0.7611156E+00 -0.1971469E-18 -0.6486162E+00
           4
  0.5442332E-01 -0.5396142E-01 -0.3117905E-01   0.9828421E+00 -0.3704090E-16  0.1844490E+00
  0.5442332E-01  0.5396142E-01 -0.3117905E-01   0.9828421E+00 -0.3704090E-16  0.1844490E+00
  0.3941566E-01  0.5396142E-01  0.4878972E-01   0.9828421E+00 -0.3704090E-16  0.1844490E+00
  0.3941566E-01 -0.5396142E-01  0.4878972E-01   0.9828421E+00 -0.3704090E-16  0.1844490E+00
 BRILLOUIN-ZONE-PRIMCELL_END
 BRILLOUIN-ZONE-CONVCELL
           4
 -0.5442332E-01  0.5396142E-01  0.3117905E-01  -0.9828421E+00 -0.2097302E-15 -0.1844490E+00
 -0.3941566E-01  0.5396142E-01 -0.4878972E-01  -0.9828421E+00 -0.2097302E-15 -0.1844490E+00
 -0.3941566E-01 -0.5396142E-01 -0.4878972E-01  -0.9828421E+00 -0.2097302E-15 -0.1844490E+00
 -0.5442332E-01 -0.5396142E-01  0.3117905E-01  -0.9828421E+00 -0.2097302E-15 -0.1844490E+00
           4
 -0.5442332E-01  0.5396142E-01  0.3117905E-01  -0.7611156E+00 -0.1302546E-15  0.6486162E+00
 -0.5442332E-01 -0.5396142E-01  0.3117905E-01  -0.7611156E+00 -0.1302546E-15  0.6486162E+00
 -0.3941566E-01 -0.5396142E-01  0.4878972E-01  -0.7611156E+00 -0.1302546E-15  0.6486162E+00
 -0.3941566E-01  0.5396142E-01  0.4878972E-01  -0.7611156E+00 -0.1302546E-15  0.6486162E+00
           6
  0.3941566E-01 -0.5396142E-01  0.4878972E-01   0.0000000E+00 -0.1000000E+01 -0.6247779E-15
 -0.3941566E-01 -0.5396142E-01  0.4878972E-01   0.0000000E+00 -0.1000000E+01 -0.6247779E-15
 -0.5442332E-01 -0.5396142E-01  0.3117905E-01   0.0000000E+00 -0.1000000E+01 -0.6247779E-15
 -0.3941566E-01 -0.5396142E-01 -0.4878972E-01   0.0000000E+00 -0.1000000E+01 -0.6247779E-15
  0.3941566E-01 -0.5396142E-01 -0.4878972E-01   0.0000000E+00 -0.1000000E+01 -0.6247779E-15
  0.5442332E-01 -0.5396142E-01 -0.3117905E-01   0.0000000E+00 -0.1000000E+01 -0.6247779E-15
           4
 -0.3941566E-01 -0.5396142E-01 -0.4878972E-01   0.7958596E-16  0.1019502E-15 -0.1000000E+01
 -0.3941566E-01  0.5396142E-01 -0.4878972E-01   0.7958596E-16  0.1019502E-15 -0.1000000E+01
  0.3941566E-01  0.5396142E-01 -0.4878972E-01   0.7958596E-16  0.1019502E-15 -0.1000000E+01
  0.3941566E-01 -0.5396142E-01 -0.4878972E-01   0.7958596E-16  0.1019502E-15 -0.1000000E+01
           4
  0.3941566E-01 -0.5396142E-01  0.4878972E-01  -0.0000000E+00 -0.0000000E+00  0.1000000E+01
  0.3941566E-01  0.5396142E-01  0.4878972E-01  -0.0000000E+00 -0.0000000E+00  0.1000000E+01
 -0.3941566E-01  0.5396142E-01  0.4878972E-01  -0.0000000E+00 -0.0000000E+00  0.1000000E+01
 -0.3941566E-01 -0.5396142E-01  0.4878972E-01  -0.0000000E+00 -0.0000000E+00  0.1000000E+01
           6
  0.5442332E-01  0.5396142E-01 -0.3117905E-01  -0.0000000E+00  0.1000000E+01 -0.0000000E+00
  0.3941566E-01  0.5396142E-01 -0.4878972E-01  -0.0000000E+00  0.1000000E+01 -0.0000000E+00
 -0.3941566E-01  0.5396142E-01 -0.4878972E-01  -0.0000000E+00  0.1000000E+01 -0.0000000E+00
 -0.5442332E-01  0.5396142E-01  0.3117905E-01  -0.0000000E+00  0.1000000E+01 -0.0000000E+00
 -0.3941566E-01  0.5396142E-01  0.4878972E-01  -0.0000000E+00  0.1000000E+01 -0.0000000E+00
  0.3941566E-01  0.5396142E-01  0.4878972E-01  -0.0000000E+00  0.1000000E+01 -0.0000000E+00
           4
  0.5442332E-01 -0.5396142E-01 -0.3117905E-01   0.7611156E+00 -0.1971469E-18 -0.6486162E+00
  0.3941566E-01 -0.5396142E-01 -0.4878972E-01   0.7611156E+00 -0.1971469E-18 -0.6486162E+00
  0.3941566E-01  0.5396142E-01 -0.4878972E-01   0.7611156E+00 -0.1971469E-18 -0.6486162E+00
  0.5442332E-01  0.5396142E-01 -0.3117905E-01   0.7611156E+00 -0.1971469E-18 -0.6486162E+00
           4
  0.5442332E-01 -0.5396142E-01 -0.3117905E-01   0.9828421E+00 -0.3704090E-16  0.1844490E+00
  0.5442332E-01  0.5396142E-01 -0.3117905E-01   0.9828421E+00 -0.3704090E-16  0.1844490E+00
  0.3941566E-01  0.5396142E-01  0.4878972E-01   0.9828421E+00 -0.3704090E-16  0.1844490E+00
  0.3941566E-01 -0.5396142E-01  0.4878972E-01   0.9828421E+00 -0.3704090E-16  0.1844490E+00
 BRILLOUIN-ZONE-CONVCELL_END
 ATOMS
   19    0.0000000000    4.5434409710    0.0000000000    0.0000000000    0.0000717100    0.0000000000
   19    5.3282771250    4.5434238760    0.0000000000    0.0000000000   -0.0000369200    0.0000000000
   19    2.6641503110    0.0526913770   -0.0000005180   -0.0000487100   -0.0001343600    0.0000765000
   19    7.9924052190    0.0526913770    0.0000005180    0.0000487100   -0.0001343600   -0.0000765000
   12   -0.9616212340    0.0570938730    5.1240311820    0.0000000000   -0.0000892000    0.0000000000
   12    4.3666558910    0.0570870730    5.1240311820    0.0000000000    0.0000137400    0.0000000000
   12   -0.9616212340    6.1824333410    5.1240311820    0.0000000000   -0.0000720200    0.0000000000
   12    4.3666558910    6.1824134260    5.1240311820    0.0000000000   -0.0005050600    0.0000000000
   12    1.7025577310    4.5948827100    5.1239953660    0.0028050300   -0.0012412400   -0.0014210900