
     Program PWSCF v.7.3.1 starts on 10Feb2025 at 12:22: 0 

     This program is part of the open-source Quantum ESPRESSO suite
     for quantum simulation of materials; please cite
         "P. Giannozzi et al., J. Phys.:Condens. Matter 21 395502 (2009);
         "P. Giannozzi et al., J. Phys.:Condens. Matter 29 465901 (2017);
         "P. Giannozzi et al., J. Chem. Phys. 152 154105 (2020);
          URL http://www.quantum-espresso.org", 
     in publications or presentations arising from this work. More details at
     http://www.quantum-espresso.org/quote

     Parallel version (MPI), running on     6 processors

     MPI processes distributed on     1 nodes
     13041 MiB available memory on the printing compute node when the environment starts

     Reading input from vc_relax.in

     Current dimensions of program PWSCF are:
     Max number of different atomic species (ntypx) = 10
     Max number of k-points (npk) =  40000
     Max angular momentum in pseudopotentials (lmaxx) =  4
     file Al.pbe-n-kjpaw_psl.1.0.0.UPF: wavefunction(s)  3S 3P renormalized
     file Fe.pbe-spn-kjpaw_psl.1.0.0.UPF: wavefunction(s)  3P 3D renormalized
     file Fe.pbe-spn-kjpaw_psl.1.0.0.UPF: wavefunction(s)  3P 3D renormalized
     file H.pbe-kjpaw_psl.1.0.0.UPF: wavefunction(s)  1S renormalized
     file K.pbe-spn-kjpaw_psl.1.0.0.UPF: wavefunction(s)  3S renormalized
     file Mg.pbe-spnl-kjpaw_psl.1.0.0.UPF: wavefunction(s)  2P renormalized
     file O.pbe-n-kjpaw_psl.1.0.0.UPF: wavefunction(s)  2S 2P renormalized
     file Si.pbe-n-kjpaw_psl.1.0.0.UPF: wavefunction(s)  3S 3P renormalized

     R & G space division:  proc/nbgrp/npool/nimage =       6
     Subspace diagonalization in iterative solution of the eigenvalue problem:
     one sub-group per band group will be used
     custom distributed-memory algorithm (size of sub-group:  2*  2 procs)


     Parallelization info
     --------------------
     sticks:   dense  smooth     PW     G-vecs:    dense   smooth      PW
     Min        2245    1122    295               202075    71450    9650
     Max        2246    1123    296               202076    71451    9652
     Sum       13475    6737   1775              1212455   428701   57909

     Using Slab Decomposition



     bravais-lattice index     =          -12
     lattice parameter (alat)  =      20.1351  a.u.
     unit-cell volume          =    6828.4878 (a.u.)^3
     number of atoms/cell      =           88
     number of atomic types    =            8
     number of electrons       =       524.00
     number of Kohn-Sham states=          314
     kinetic-energy cutoff     =      60.0000  Ry
     charge density cutoff     =     480.0000  Ry
     scf convergence threshold =      1.0E-06
     mixing beta               =       0.7000
     number of iterations used =            8  plain     mixing
     energy convergence thresh.=      1.0E-06
     force convergence thresh. =      1.0E-03
     press convergence thresh. =      5.0E-01
     Exchange-correlation= SLA  PW   PBX  PBC
                           (   1   4   3   4   0   0   0)
     nstep                     =           50


     celldm(1)=  20.135087  celldm(2)=   0.869801  celldm(3)=   0.977339
     celldm(4)=   0.000000  celldm(5)=  -0.178119  celldm(6)=   0.000000

     crystal axes: (cart. coord. in units of alat)
               a(1) = (   1.000000   0.000000   0.000000 )  
               a(2) = (   0.000000   0.869801   0.000000 )  
               a(3) = (  -0.174083   0.000000   0.961710 )  

     reciprocal axes: (cart. coord. in units 2 pi/alat)
               b(1) = (  1.000000 -0.000000  0.181014 )  
               b(2) = (  0.000000  1.149688 -0.000000 )  
               b(3) = (  0.000000  0.000000  1.039814 )  


     PseudoPot. # 1 for Al read from file:
     ./../../../pseudos/Al.pbe-n-kjpaw_psl.1.0.0.UPF
     MD5 check sum: 502b6b27b9c6270cab5dd1084b96fa6d
     Pseudo is Projector augmented-wave + core cor, Zval =  3.0
     Generated using &quot;atomic&quot; code by A. Dal Corso  v.6.3
     Shape of augmentation charge: PSQ
     Using radial grid of 1135 points,  6 beta functions with: 
                l(1) =   0
                l(2) =   0
                l(3) =   1
                l(4) =   1
                l(5) =   2
                l(6) =   2
     Q(r) pseudized with 0 coefficients 


     PseudoPot. # 2 for Fe read from file:
     ./../../../pseudos/Fe.pbe-spn-kjpaw_psl.1.0.0.UPF
     MD5 check sum: fc81f059e5c5069939230b1155715ae8
     Pseudo is Projector augmented-wave + core cor, Zval = 16.0
     Generated using &quot;atomic&quot; code by A. Dal Corso  v.6.3
     Shape of augmentation charge: PSQ
     Using radial grid of 1191 points,  6 beta functions with: 
                l(1) =   0
                l(2) =   0
                l(3) =   1
                l(4) =   1
                l(5) =   2
                l(6) =   2
     Q(r) pseudized with 0 coefficients 


     PseudoPot. # 3 for Fe read from file:
     ./../../../pseudos/Fe.pbe-spn-kjpaw_psl.1.0.0.UPF
     MD5 check sum: fc81f059e5c5069939230b1155715ae8
     Pseudo is Projector augmented-wave + core cor, Zval = 16.0
     Generated using &quot;atomic&quot; code by A. Dal Corso  v.6.3
     Shape of augmentation charge: PSQ
     Using radial grid of 1191 points,  6 beta functions with: 
                l(1) =   0
                l(2) =   0
                l(3) =   1
                l(4) =   1
                l(5) =   2
                l(6) =   2
     Q(r) pseudized with 0 coefficients 


     PseudoPot. # 4 for H  read from file:
     ./../../../pseudos/H.pbe-kjpaw_psl.1.0.0.UPF
     MD5 check sum: d81a744832360e4a8af0b0b5b123bc2a
     Pseudo is Projector augmented-wave, Zval =  1.0
     Generated using &quot;atomic&quot; code by A. Dal Corso  v.6.3MaX
     Shape of augmentation charge: PSQ
     Using radial grid of  929 points,  2 beta functions with: 
                l(1) =   0
                l(2) =   0
     Q(r) pseudized with 0 coefficients 


     PseudoPot. # 5 for K  read from file:
     ./../../../pseudos/K.pbe-spn-kjpaw_psl.1.0.0.UPF
     MD5 check sum: 34cc42130a09071ebe376fd42eb21491
     Pseudo is Projector augmented-wave + core cor, Zval =  9.0
     Generated using &quot;atomic&quot; code by A. Dal Corso  v.6.2.2
     Shape of augmentation charge: PSQ
     Using radial grid of 1165 points,  6 beta functions with: 
                l(1) =   0
                l(2) =   0
                l(3) =   1
                l(4) =   1
                l(5) =   2
                l(6) =   2
     Q(r) pseudized with 0 coefficients 


     PseudoPot. # 6 for Mg read from file:
     ./../../../pseudos/Mg.pbe-spnl-kjpaw_psl.1.0.0.UPF
     MD5 check sum: fda14e0d92a6a9a5ebed782e5a4b3067
     Pseudo is Projector augmented-wave + core cor, Zval = 10.0
     Generated using &quot;atomic&quot; code by A. Dal Corso  v.6.3
     Shape of augmentation charge: PSQ
     Using radial grid of 1129 points,  4 beta functions with: 
                l(1) =   0
                l(2) =   0
                l(3) =   1
                l(4) =   1
     Q(r) pseudized with 0 coefficients 


     PseudoPot. # 7 for O  read from file:
     ./../../../pseudos/O.pbe-n-kjpaw_psl.1.0.0.UPF
     MD5 check sum: e99d9cef9b487d1ca56f5b95ecd0fd7a
     Pseudo is Projector augmented-wave + core cor, Zval =  6.0
     Generated using &quot;atomic&quot; code by A. Dal Corso  v.6.3
     Shape of augmentation charge: PSQ
     Using radial grid of 1095 points,  4 beta functions with: 
                l(1) =   0
                l(2) =   0
                l(3) =   1
                l(4) =   1
     Q(r) pseudized with 0 coefficients 


     PseudoPot. # 8 for Si read from file:
     ./../../../pseudos/Si.pbe-n-kjpaw_psl.1.0.0.UPF
     MD5 check sum: c39c59da582df4a0d9f10159256ea34e
     Pseudo is Projector augmented-wave + core cor, Zval =  4.0
     Generated using &quot;atomic&quot; code by A. Dal Corso  v.6.3
     Shape of augmentation charge: PSQ
     Using radial grid of 1141 points,  6 beta functions with: 
                l(1) =   0
                l(2) =   0
                l(3) =   1
                l(4) =   1
                l(5) =   2
                l(6) =   2
     Q(r) pseudized with 0 coefficients 


     atomic species   valence    mass     pseudopotential
     Al                3.00    26.98154     Al( 1.00)
     Fe1              16.00    55.84500     Fe( 1.00)
     Fe2              16.00    55.84500     Fe( 1.00)
     H                 1.00     1.00794     H ( 1.00)
     K                 9.00    39.09830     K ( 1.00)
     Mg               10.00    24.30500     Mg( 1.00)
     O                 6.00    15.99940     O ( 1.00)
     Si                4.00    28.08550     Si( 1.00)

     Starting magnetic structure 
     atomic species   magnetization
     Al              0.000
     Fe1             0.300
     Fe2             0.300
     H               0.000
     K               0.000
     Mg              0.000
     O               0.000
     Si              0.000

      2 Sym. Ops. (no inversion) found


                                    s                        frac. trans.

      isym =  1     identity                                     

 cryst.   s( 1) = (     1          0          0      )
                  (     0          1          0      )
                  (     0          0          1      )

 cart.    s( 1) = (  1.0000000  0.0000000  0.0000000 )
                  (  0.0000000  1.0000000  0.0000000 )
                  (  0.0000000  0.0000000  1.0000000 )


      isym =  2     180 deg rotation - cart. axis [0,1,0]        

 cryst.   s( 2) = (    -1          0          0      )
                  (     0          1          0      )
                  (     0          0         -1      )

 cart.    s( 2) = ( -1.0000000  0.0000000  0.0000000 )
                  (  0.0000000  1.0000000  0.0000000 )
                  (  0.0000000  0.0000000 -1.0000000 )


     point group C_2  (2)   
     there are  2 classes
     the character table:

       E     C2   
A      1.00  1.00
B      1.00 -1.00

     the symmetry operations in each class and the name of the first element:

     E        1
          identity                                               
     C2       2
          180 deg rotation - cart. axis [0,1,0]                  

   Cartesian axes

     site n.     atom                  positions (alat units)
         1        K      tau(   1) = (   0.0000000   0.4296389   0.0000000  )
         2        K      tau(   2) = (   0.5000000   0.4296389   0.0000000  )
         3        K      tau(   3) = (   0.2500001   0.0024501   0.0000000  )
         4        K      tau(   4) = (   0.7500001   0.0024501   0.0000000  )
         5        Mg     tau(   5) = (  -0.0870414   0.0055279   0.4808550  )
         6        Mg     tau(   6) = (   0.4129586   0.0055279   0.4808550  )
         7        Mg     tau(   7) = (  -0.0870414   0.5801280   0.4808550  )
         8        Mg     tau(   8) = (   0.4129586   0.5801280   0.4808550  )
         9        Mg     tau(   9) = (   0.1629587   0.4310949   0.4808550  )
        10        Mg     tau(  10) = (   0.6629587   0.4310949   0.4808550  )
        11        Mg     tau(  11) = (   0.1629587   0.7269300   0.4808550  )
        12        Mg     tau(  12) = (   0.6629587   0.7269300   0.4808550  )
        13        Mg     tau(  13) = (   0.1629587   0.1482588   0.4808550  )
        14        Mg     tau(  14) = (   0.6629587   0.1482588   0.4808550  )
        15        Si     tau(  15) = (   0.0074326   0.1420119   0.2164892  )
        16        Si     tau(  16) = (   0.5074326   0.1420119   0.2164892  )
        17        Si     tau(  17) = (   0.3184849   0.1420119   0.7452208  )
        18        Si     tau(  18) = (   0.8184849   0.1420119   0.7452208  )
        19        Si     tau(  19) = (   0.3331608   0.7257911   0.7377580  )
        20        Si     tau(  20) = (   0.8331608   0.7257911   0.7377580  )
        21        Si     tau(  21) = (  -0.0072433   0.7257911   0.2239520  )
        22        Si     tau(  22) = (   0.4927567   0.7257911   0.2239520  )
        23        Si     tau(  23) = (   0.2427667   0.5796705   0.2225784  )
        24        Si     tau(  24) = (   0.7427667   0.5796705   0.2225784  )
        25        Si     tau(  25) = (   0.0831508   0.5796705   0.7391315  )
        26        Si     tau(  26) = (   0.5831508   0.5796705   0.7391315  )
        27        Al     tau(  27) = (   0.0682443   0.2875617   0.7425041  )
        28        Al     tau(  28) = (   0.5682443   0.2875617   0.7425041  )
        29        Al     tau(  29) = (   0.2576732   0.2875617   0.2192058  )
        30        Al     tau(  30) = (   0.7576731   0.2875617   0.2192058  )
        31        O      tau(  31) = (   0.0017352   0.1371008   0.3693886  )
        32        O      tau(  32) = (   0.5017352   0.1371008   0.3693886  )
        33        O      tau(  33) = (   0.3241823   0.1371008   0.5923214  )
        34        O      tau(  34) = (   0.8241823   0.1371008   0.5923214  )
        35        O      tau(  35) = (   0.3309875   0.7260882   0.5856762  )
        36        O      tau(  36) = (   0.8309875   0.7260882   0.5856762  )
        37        O      tau(  37) = (  -0.0050700   0.7260882   0.3760337  )
        38        O      tau(  38) = (   0.4949300   0.7260882   0.3760337  )
        39        O      tau(  39) = (   0.2456591   0.5824087   0.3753945  )
        40        O      tau(  40) = (   0.7456591   0.5824087   0.3753945  )
        41        O      tau(  41) = (   0.0802583   0.5824087   0.5863155  )
        42        O      tau(  42) = (   0.5802583   0.5824087   0.5863155  )
        43        O      tau(  43) = (   0.0748950   0.2898192   0.5784747  )
        44        O      tau(  44) = (   0.5748950   0.2898192   0.5784747  )
        45        O      tau(  45) = (   0.2510225   0.2898192   0.3832352  )
        46        O      tau(  46) = (   0.7510224   0.2898192   0.3832352  )
        47        O      tau(  47) = (   0.1463863   0.1775489   0.1626707  )
        48        O      tau(  48) = (   0.6463863   0.1775489   0.1626707  )
        49        O      tau(  49) = (   0.1795312   0.1775489   0.7990392  )
        50        O      tau(  50) = (   0.6795312   0.1775489   0.7990392  )
        51        O      tau(  51) = (  -0.0250455   0.8667889   0.1630411  )
        52        O      tau(  52) = (   0.4749545   0.8667889   0.1630411  )
        53        O      tau(  53) = (   0.3509630   0.8667889   0.7986688  )
        54        O      tau(  54) = (   0.8509630   0.8667889   0.7986688  )
        55        O      tau(  55) = (   0.2001651   0.6682872   0.7942782  )
        56        O      tau(  56) = (   0.7001651   0.6682872   0.7942782  )
        57        O      tau(  57) = (   0.1257524   0.6682872   0.1674318  )
        58        O      tau(  58) = (   0.6257524   0.6682872   0.1674318  )
        59        O      tau(  59) = (   0.3751016   0.6421235   0.1665090  )
        60        O      tau(  60) = (   0.8751016   0.6421235   0.1665090  )
        61        O      tau(  61) = (  -0.0491842   0.6421235   0.7952009  )
        62        O      tau(  62) = (   0.4508158   0.6421235   0.7952009  )
        63        O      tau(  63) = (   0.2267361   0.4412388   0.1614261  )
        64        O      tau(  64) = (   0.7267362   0.4412388   0.1614261  )
        65        O      tau(  65) = (   0.0991813   0.4412388   0.8002838  )
        66        O      tau(  66) = (   0.5991813   0.4412388   0.8002838  )
        67        O      tau(  67) = (  -0.0785908   0.2392057   0.8031981  )
        68        O      tau(  68) = (   0.4214092   0.2392057   0.8031981  )
        69        O      tau(  69) = (   0.4045083   0.2392057   0.1585119  )
        70        O      tau(  70) = (   0.9045082   0.2392057   0.1585119  )
        71        O      tau(  71) = (  -0.0000042   0.4450115   0.3781135  )
        72        O      tau(  72) = (   0.4999958   0.4450115   0.3781135  )
        73        O      tau(  73) = (   0.3259217   0.4450115   0.5835965  )
        74        O      tau(  74) = (   0.8259217   0.4450115   0.5835965  )
        75        O      tau(  75) = (   0.2478596   0.8693925   0.3836472  )
        76        O      tau(  76) = (   0.7478596   0.8693925   0.3836472  )
        77        O      tau(  77) = (   0.0780579   0.8693925   0.5780627  )
        78        O      tau(  78) = (   0.5780579   0.8693925   0.5780627  )
        79        H      tau(  79) = (   0.0004471   0.4269259   0.2892434  )
        80        H      tau(  80) = (   0.5004471   0.4269259   0.2892434  )
        81        H      tau(  81) = (   0.3254704   0.4269259   0.6724666  )
        82        H      tau(  82) = (   0.8254704   0.4269259   0.6724666  )
        83        H      tau(  83) = (   0.2447352   0.0128545   0.2939423  )
        84        H      tau(  84) = (   0.7447351   0.0128545   0.2939423  )
        85        H      tau(  85) = (   0.0811823   0.0128545   0.6677677  )
        86        H      tau(  86) = (   0.5811823   0.0128545   0.6677677  )
        87        Fe1    tau(  87) = (  -0.0870414   0.2919251   0.4808550  )
        88        Fe2    tau(  88) = (   0.4129586   0.2919251   0.4808550  )

     --------------------------------------------
     DFT-D3 Dispersion Correction (3-body terms):
     --------------------------------------------
       Reference C6 values for interpolation: 

         atom   Coordination number   C6
         H          0.912             6.05
         H          0.000            15.18
         O          0.000            31.01
         O          0.993            25.63
         O          1.989            20.74
         Mg         0.000          1366.75
         Mg         0.963           902.54
         Mg         1.950           351.12
         Al         0.000          1081.08
         Al         0.965           875.51
         Al         1.931           513.50
         Al         2.915           307.19
         Si         0.000           635.71
         Si         0.951           540.53
         Si         1.944           466.25
         Si         2.941           443.01
         Si         3.868           299.55
         K          0.000          9967.00
         K          0.977           676.04
         Fe1        0.000           982.67
         Fe1        1.648           409.99
         Fe1        9.138           219.01
         Fe2        0.000           982.67
         Fe2        1.648           409.99
         Fe2        9.138           219.01

       Values used:

         atom   Coordination number  R0_AB[au]  C6      C8
         K         11.877            4.007    676.04 129074.98
         K         11.877            4.007    676.04 129074.98
         K         12.270            4.007    676.04 129074.98
         K         12.270            4.007    676.04 129074.98
         Mg        11.314            3.292    351.12  31436.69
         Mg        11.314            3.292    351.12  31436.69
         Mg        11.299            3.292    351.12  31436.69
         Mg        11.299            3.292    351.12  31436.69
         Mg        11.204            3.292    351.12  31436.69
         Mg        11.204            3.292    351.12  31436.69
         Mg        11.573            3.292    351.12  31436.69
         Mg        11.573            3.292    351.12  31436.69
         Mg        11.383            3.292    351.12  31436.69
         Mg        11.383            3.292    351.12  31436.69
         Si         6.519            3.583    299.55  21425.58
         Si         6.519            3.583    299.55  21425.58
         Si         6.519            3.583    299.55  21425.58
         Si         6.519            3.583    299.55  21425.58
         Si         6.299            3.583    299.55  21425.58
         Si         6.299            3.583    299.55  21425.58
         Si         6.299            3.583    299.55  21425.58
         Si         6.299            3.583    299.55  21425.58
         Si         6.332            3.583    299.55  21425.58
         Si         6.332            3.583    299.55  21425.58
         Si         6.332            3.583    299.55  21425.58
         Si         6.332            3.583    299.55  21425.58
         Al         7.195            3.789    307.19  29441.29
         Al         7.195            3.789    307.19  29441.29
         Al         7.195            3.789    307.19  29441.29
         Al         7.195            3.789    307.19  29441.29
         O          3.463            2.345     20.74    418.58
         O          3.463            2.345     20.74    418.58
         O          3.463            2.345     20.74    418.58
         O          3.463            2.345     20.74    418.58
         O          3.908            2.345     20.74    418.58
         O          3.908            2.345     20.74    418.58
         O          3.908            2.345     20.74    418.58
         O          3.908            2.345     20.74    418.58
         O          3.897            2.345     20.74    418.58
         O          3.897            2.345     20.74    418.58
         O          3.897            2.345     20.74    418.58
         O          3.897            2.345     20.74    418.58
         O          3.833            2.345     20.74    418.58
         O          3.833            2.345     20.74    418.58
         O          3.833            2.345     20.74    418.58
         O          3.833            2.345     20.74    418.58
         O          3.114            2.345     20.74    418.58
         O          3.114            2.345     20.74    418.58
         O          3.114            2.345     20.74    418.58
         O          3.114            2.345     20.74    418.58
         O          3.077            2.345     20.74    418.58
         O          3.077            2.345     20.74    418.58
         O          3.077            2.345     20.74    418.58
         O          3.077            2.345     20.74    418.58
         O          2.927            2.345     20.74    418.58
         O          2.927            2.345     20.74    418.58
         O          2.927            2.345     20.74    418.58
         O          2.927            2.345     20.74    418.58
         O          2.924            2.345     20.74    418.58
         O          2.924            2.345     20.74    418.58
         O          2.924            2.345     20.74    418.58
         O          2.924            2.345     20.74    418.58
         O          3.084            2.345     20.74    418.58
         O          3.084            2.345     20.74    418.58
         O          3.084            2.345     20.74    418.58
         O          3.084            2.345     20.74    418.58
         O          3.139            2.345     20.74    418.58
         O          3.139            2.345     20.74    418.58
         O          3.139            2.345     20.74    418.58
         O          3.139            2.345     20.74    418.58
         O          3.632            2.345     20.74    418.58
         O          3.632            2.345     20.74    418.58
         O          3.632            2.345     20.74    418.58
         O          3.632            2.345     20.74    418.58
         O          3.981            2.345     20.74    418.58
         O          3.981            2.345     20.74    418.58
         O          3.981            2.345     20.74    418.58
         O          3.981            2.345     20.74    418.58
         H          1.231            2.062      6.08     73.47
         H          1.231            2.062      6.08     73.47
         H          1.231            2.062      6.08     73.47
         H          1.231            2.062      6.08     73.47
         H          1.237            2.062      6.08     73.45
         H          1.237            2.062      6.08     73.45
         H          1.237            2.062      6.08     73.45
         H          1.237            2.062      6.08     73.45
         Fe1        7.261            3.252    219.01  20487.87
         Fe2        7.261            3.252    219.01  20487.87

         Molecular C6 ( Ry / a.u.^6 ) =    661236.15


   Crystallographic axes

     site n.     atom                  positions (cryst. coord.)
         1        K      tau(   1) = (  0.0000000  0.4939509  0.0000000  )
         2        K      tau(   2) = (  0.5000000  0.4939509  0.0000000  )
         3        K      tau(   3) = (  0.2500001  0.0028168  0.0000000  )
         4        K      tau(   4) = (  0.7500001  0.0028168  0.0000000  )
         5        Mg     tau(   5) = (  0.0000000  0.0063553  0.4999999  )
         6        Mg     tau(   6) = (  0.5000000  0.0063553  0.4999999  )
         7        Mg     tau(   7) = (  0.0000000  0.6669664  0.4999999  )
         8        Mg     tau(   8) = (  0.5000000  0.6669664  0.4999999  )
         9        Mg     tau(   9) = (  0.2500001  0.4956248  0.4999999  )
        10        Mg     tau(  10) = (  0.7500001  0.4956248  0.4999999  )
        11        Mg     tau(  11) = (  0.2500001  0.8357430  0.4999999  )
        12        Mg     tau(  12) = (  0.7500001  0.8357430  0.4999999  )
        13        Mg     tau(  13) = (  0.2500001  0.1704514  0.4999999  )
        14        Mg     tau(  14) = (  0.7500001  0.1704514  0.4999999  )
        15        Si     tau(  15) = (  0.0466201  0.1632694  0.2251086  )
        16        Si     tau(  16) = (  0.5466201  0.1632694  0.2251086  )
        17        Si     tau(  17) = (  0.4533802  0.1632694  0.7748913  )
        18        Si     tau(  18) = (  0.9533802  0.1632694  0.7748913  )
        19        Si     tau(  19) = (  0.4667052  0.8344337  0.7671314  )
        20        Si     tau(  20) = (  0.9667052  0.8344337  0.7671314  )
        21        Si     tau(  21) = (  0.0332951  0.8344337  0.2328685  )
        22        Si     tau(  22) = (  0.5332951  0.8344337  0.2328685  )
        23        Si     tau(  23) = (  0.2830564  0.6664404  0.2314402  )
        24        Si     tau(  24) = (  0.7830564  0.6664404  0.2314402  )
        25        Si     tau(  25) = (  0.2169439  0.6664404  0.7685596  )
        26        Si     tau(  26) = (  0.7169439  0.6664404  0.7685596  )
        27        Al     tau(  27) = (  0.2026479  0.3306063  0.7720665  )
        28        Al     tau(  28) = (  0.7026479  0.3306063  0.7720665  )
        29        Al     tau(  29) = (  0.2973525  0.3306063  0.2279334  )
        30        Al     tau(  30) = (  0.7973524  0.3306063  0.2279334  )
        31        O      tau(  31) = (  0.0685997  0.1576232  0.3840956  )
        32        O      tau(  32) = (  0.5685996  0.1576232  0.3840956  )
        33        O      tau(  33) = (  0.4314007  0.1576232  0.6159044  )
        34        O      tau(  34) = (  0.9314007  0.1576232  0.6159044  )
        35        O      tau(  35) = (  0.4370030  0.8347753  0.6089946  )
        36        O      tau(  36) = (  0.9370030  0.8347753  0.6089946  )
        37        O      tau(  37) = (  0.0629973  0.8347753  0.3910053  )
        38        O      tau(  38) = (  0.5629973  0.8347753  0.3910053  )
        39        O      tau(  39) = (  0.3136107  0.6695885  0.3903406  )
        40        O      tau(  40) = (  0.8136107  0.6695885  0.3903406  )
        41        O      tau(  41) = (  0.1863896  0.6695885  0.6096593  )
        42        O      tau(  42) = (  0.6863896  0.6695885  0.6096593  )
        43        O      tau(  43) = (  0.1796070  0.3332018  0.6015063  )
        44        O      tau(  44) = (  0.6796070  0.3332018  0.6015063  )
        45        O      tau(  45) = (  0.3203934  0.3332018  0.3984935  )
        46        O      tau(  46) = (  0.8203933  0.3332018  0.3984935  )
        47        O      tau(  47) = (  0.1758320  0.2041259  0.1691474  )
        48        O      tau(  48) = (  0.6758320  0.2041259  0.1691474  )
        49        O      tau(  49) = (  0.3241684  0.2041259  0.8308524  )
        50        O      tau(  50) = (  0.8241683  0.2041259  0.8308524  )
        51        O      tau(  51) = (  0.0044672  0.9965371  0.1695325  )
        52        O      tau(  52) = (  0.5044672  0.9965371  0.1695325  )
        53        O      tau(  53) = (  0.4955331  0.9965371  0.8304673  )
        54        O      tau(  54) = (  0.9955331  0.9965371  0.8304673  )
        55        O      tau(  55) = (  0.3439404  0.7683221  0.8259019  )
        56        O      tau(  56) = (  0.8439404  0.7683221  0.8259019  )
        57        O      tau(  57) = (  0.1560599  0.7683221  0.1740980  )
        58        O      tau(  58) = (  0.6560599  0.7683221  0.1740980  )
        59        O      tau(  59) = (  0.4052421  0.7382420  0.1731385  )
        60        O      tau(  60) = (  0.9052421  0.7382420  0.1731385  )
        61        O      tau(  61) = (  0.0947582  0.7382420  0.8268614  )
        62        O      tau(  62) = (  0.5947582  0.7382420  0.8268614  )
        63        O      tau(  63) = (  0.2559565  0.5072872  0.1678532  )
        64        O      tau(  64) = (  0.7559565  0.5072872  0.1678532  )
        65        O      tau(  65) = (  0.2440438  0.5072872  0.8321466  )
        66        O      tau(  66) = (  0.7440438  0.5072872  0.8321466  )
        67        O      tau(  67) = (  0.0667992  0.2750120  0.8351769  )
        68        O      tau(  68) = (  0.5667992  0.2750120  0.8351769  )
        69        O      tau(  69) = (  0.4332011  0.2750120  0.1648230  )
        70        O      tau(  70) = (  0.9332011  0.2750120  0.1648230  )
        71        O      tau(  71) = (  0.0684395  0.5116246  0.3931678  )
        72        O      tau(  72) = (  0.5684395  0.5116246  0.3931678  )
        73        O      tau(  73) = (  0.4315608  0.5116246  0.6068321  )
        74        O      tau(  74) = (  0.9315608  0.5116246  0.6068321  )
        75        O      tau(  75) = (  0.3173051  0.9995306  0.3989219  )
        76        O      tau(  76) = (  0.8173051  0.9995306  0.3989219  )
        77        O      tau(  77) = (  0.1826953  0.9995306  0.6010780  )
        78        O      tau(  78) = (  0.6826953  0.9995306  0.6010780  )
        79        H      tau(  79) = (  0.0528041  0.4908318  0.3007595  )
        80        H      tau(  80) = (  0.5528042  0.4908318  0.3007595  )
        81        H      tau(  81) = (  0.4471962  0.4908318  0.6992404  )
        82        H      tau(  82) = (  0.9471962  0.4908318  0.6992404  )
        83        H      tau(  83) = (  0.2979428  0.0147786  0.3056454  )
        84        H      tau(  84) = (  0.7979428  0.0147786  0.3056454  )
        85        H      tau(  85) = (  0.2020575  0.0147786  0.6943545  )
        86        H      tau(  86) = (  0.7020575  0.0147786  0.6943545  )
        87        Fe1    tau(  87) = (  0.0000000  0.3356230  0.4999999  )
        88        Fe2    tau(  88) = (  0.5000000  0.3356230  0.4999999  )

     number of k points=    10  Gaussian smearing, width (Ry)=  0.0010
                       cart. coord. in units 2pi/alat
        k(    1) = (   0.0000000   0.0000000   0.0000000), wk =   0.0370370
        k(    2) = (   0.0000000   0.0000000   0.3466048), wk =   0.0740741
        k(    3) = (   0.0000000   0.3832295   0.0000000), wk =   0.0740741
        k(    4) = (   0.0000000   0.3832295   0.3466048), wk =   0.1481481
        k(    5) = (   0.3333333   0.0000000   0.0603380), wk =   0.0740741
        k(    6) = (   0.3333333   0.0000000   0.4069428), wk =   0.0740741
        k(    7) = (   0.3333333   0.0000000  -0.2862669), wk =   0.0740741
        k(    8) = (   0.3333333   0.3832295   0.0603380), wk =   0.1481481
        k(    9) = (   0.3333333   0.3832295   0.4069428), wk =   0.1481481
        k(   10) = (   0.3333333   0.3832295  -0.2862669), wk =   0.1481481

                       cryst. coord.
        k(    1) = (   0.0000000   0.0000000   0.0000000), wk =   0.0370370
        k(    2) = (   0.0000000   0.0000000   0.3333333), wk =   0.0740741
        k(    3) = (   0.0000000   0.3333333   0.0000000), wk =   0.0740741
        k(    4) = (   0.0000000   0.3333333   0.3333333), wk =   0.1481481
        k(    5) = (   0.3333333   0.0000000   0.0000000), wk =   0.0740741
        k(    6) = (   0.3333333   0.0000000   0.3333333), wk =   0.0740741
        k(    7) = (   0.3333333   0.0000000  -0.3333333), wk =   0.0740741
        k(    8) = (   0.3333333   0.3333333   0.0000000), wk =   0.1481481
        k(    9) = (   0.3333333   0.3333333   0.3333333), wk =   0.1481481
        k(   10) = (   0.3333333   0.3333333  -0.3333333), wk =   0.1481481

     Dense  grid:  1212455 G-vectors     FFT dimensions: ( 144, 125, 144)

     Smooth grid:   428701 G-vectors     FFT dimensions: ( 100,  90, 100)

     Dynamical RAM for                 wfc:      42.80 MB

     Dynamical RAM for     wfc (w. buffer):     898.71 MB

     Dynamical RAM for           str. fact:      24.67 MB

     Dynamical RAM for           local pot:       0.00 MB

     Dynamical RAM for          nlocal pot:     119.39 MB

     Dynamical RAM for                qrad:      28.13 MB

     Dynamical RAM for          rho,v,vnew:      38.28 MB

     Dynamical RAM for               rhoin:      12.76 MB

     Dynamical RAM for            rho*nmix:      98.67 MB

     Dynamical RAM for           G-vectors:      12.11 MB

     Dynamical RAM for          h,s,v(r/c):       4.51 MB

     Dynamical RAM for          <psi|beta>:       4.20 MB

     Dynamical RAM for                 psi:      85.59 MB

     Dynamical RAM for                hpsi:      85.59 MB

     Dynamical RAM for                spsi:      85.59 MB

     Dynamical RAM for      wfcinit/wfcrot:      87.85 MB

     Dynamical RAM for           addusdens:     724.61 MB

     Dynamical RAM for          addusforce:    1014.83 MB

     Dynamical RAM for         addusstress:     624.40 MB

     Estimated static dynamical RAM per process >       1.15 GB

     Estimated max dynamical RAM per process >       2.24 GB

     Estimated total dynamical RAM >      13.45 GB

     Atomic positions and unit cell read from directory:
     ./temp/phl-fe1-fe2x2.save/
     Atomic positions from file used, from input discarded


     Check: negative core charge=   -0.000004
     Generating pointlists ...
     new r_m :   0.0677 (alat units)  1.3632 (a.u.) for type    1
     new r_m :   0.0780 (alat units)  1.5710 (a.u.) for type    2
     new r_m :   0.0780 (alat units)  1.5709 (a.u.) for type    3
     new r_m :   0.0374 (alat units)  0.7531 (a.u.) for type    4
     new r_m :   0.1074 (alat units)  2.1630 (a.u.) for type    5
     new r_m :   0.0786 (alat units)  1.5834 (a.u.) for type    6
     new r_m :   0.0374 (alat units)  0.7531 (a.u.) for type    7
     new r_m :   0.0627 (alat units)  1.2632 (a.u.) for type    8

     The initial density is read from file :
     ./temp/phl-fe1-fe2x2.save/charge-density


     starting charge     523.9089, renormalised to     524.0000

     negative rho (up, down):  0.000E+00 7.600E-04
     Cannot read wfcs: file not found
     Starting wfcs are  366 randomized atomic wfcs
     Checking if some PAW data can be deallocated... 
       PAW data deallocated on    5 nodes for type:  1
       PAW data deallocated on    5 nodes for type:  2
       PAW data deallocated on    5 nodes for type:  3
       PAW data deallocated on    5 nodes for type:  4
       PAW data deallocated on    5 nodes for type:  5
       PAW data deallocated on    5 nodes for type:  6
       PAW data deallocated on    2 nodes for type:  7
       PAW data deallocated on    4 nodes for type:  8

     total cpu time spent up to now is      621.0 secs

     Self-consistent Calculation

     iteration #  1     ecut=    60.00 Ry     beta= 0.70
     Davidson diagonalization with overlap

---- Real-time Memory Report at c_bands before calling an iterative solver
          1297 MiB given to the printing process from OS
             0 MiB allocation reported by mallinfo(arena+hblkhd)
          5597 MiB available memory on the node where the printing process lives
------------------
     c_bands:  5 eigenvalues not converged
     c_bands:  2 eigenvalues not converged
     c_bands:  3 eigenvalues not converged
     c_bands:  4 eigenvalues not converged
     c_bands:  2 eigenvalues not converged
     c_bands:  3 eigenvalues not converged
     c_bands:  4 eigenvalues not converged
     c_bands:  4 eigenvalues not converged
     c_bands:  4 eigenvalues not converged
     c_bands:  3 eigenvalues not converged
     c_bands:  4 eigenvalues not converged
     c_bands:  4 eigenvalues not converged
     c_bands:  4 eigenvalues not converged
     c_bands:  5 eigenvalues not converged
     c_bands:  2 eigenvalues not converged
     c_bands:  3 eigenvalues not converged
     c_bands:  5 eigenvalues not converged
     c_bands:  5 eigenvalues not converged
     c_bands:  3 eigenvalues not converged
     ethr =  1.00E-05,  avg # of iterations = 40.0

     Threshold (ethr) on eigenvalues was too large:
     Diagonalizing with lowered threshold

     Davidson diagonalization with overlap

---- Real-time Memory Report at c_bands before calling an iterative solver
          1881 MiB given to the printing process from OS
             0 MiB allocation reported by mallinfo(arena+hblkhd)
          5022 MiB available memory on the node where the printing process lives
------------------
     c_bands:  1 eigenvalues not converged
     c_bands:  1 eigenvalues not converged
     c_bands:  1 eigenvalues not converged
     c_bands:  1 eigenvalues not converged
     ethr =  4.25E-07,  avg # of iterations =  9.4

     negative rho (up, down):  0.000E+00 7.617E-04

     total cpu time spent up to now is    18764.9 secs

     total energy              =   -5262.52817314 Ry
     estimated scf accuracy    <       0.00222048 Ry

     total magnetization       =     8.00 Bohr mag/cell
     absolute magnetization    =     8.09 Bohr mag/cell

     iteration #  2     ecut=    60.00 Ry     beta= 0.70
     Davidson diagonalization with overlap

---- Real-time Memory Report at c_bands before calling an iterative solver
          1906 MiB given to the printing process from OS
             0 MiB allocation reported by mallinfo(arena+hblkhd)
          4437 MiB available memory on the node where the printing process lives
------------------
     c_bands:  1 eigenvalues not converged
     c_bands:  1 eigenvalues not converged
     c_bands:  1 eigenvalues not converged
     c_bands:  1 eigenvalues not converged
     c_bands:  1 eigenvalues not converged
     ethr =  4.24E-07,  avg # of iterations =  9.9

     negative rho (up, down):  0.000E+00 7.595E-04

     total cpu time spent up to now is    20781.5 secs

     total energy              =   -5262.52864433 Ry
     estimated scf accuracy    <       0.00022539 Ry

     total magnetization       =     8.00 Bohr mag/cell
     absolute magnetization    =     8.09 Bohr mag/cell

     iteration #  3     ecut=    60.00 Ry     beta= 0.70
     Davidson diagonalization with overlap

---- Real-time Memory Report at c_bands before calling an iterative solver
          1911 MiB given to the printing process from OS
             0 MiB allocation reported by mallinfo(arena+hblkhd)
          4496 MiB available memory on the node where the printing process lives
------------------
     ethr =  4.30E-08,  avg # of iterations =  9.1

     negative rho (up, down):  0.000E+00 7.614E-04

     total cpu time spent up to now is    24581.4 secs

     total energy              =   -5262.52886463 Ry
     estimated scf accuracy    <       0.00011792 Ry

     total magnetization       =     8.00 Bohr mag/cell
     absolute magnetization    =     8.09 Bohr mag/cell

     iteration #  4     ecut=    60.00 Ry     beta= 0.70
     Davidson diagonalization with overlap

---- Real-time Memory Report at c_bands before calling an iterative solver
          1916 MiB given to the printing process from OS
             0 MiB allocation reported by mallinfo(arena+hblkhd)
          4425 MiB available memory on the node where the printing process lives
------------------
     ethr =  2.25E-08,  avg # of iterations =  5.8

     negative rho (up, down):  0.000E+00 7.607E-04

     total cpu time spent up to now is    26405.5 secs

     total energy              =   -5262.52889819 Ry
     estimated scf accuracy    <       0.00001649 Ry

     total magnetization       =     8.00 Bohr mag/cell
     absolute magnetization    =     8.09 Bohr mag/cell

     iteration #  5     ecut=    60.00 Ry     beta= 0.70
     Davidson diagonalization with overlap

---- Real-time Memory Report at c_bands before calling an iterative solver
          1920 MiB given to the printing process from OS
             0 MiB allocation reported by mallinfo(arena+hblkhd)
          4314 MiB available memory on the node where the printing process lives
------------------
     ethr =  3.15E-09,  avg # of iterations =  9.2

     negative rho (up, down):  0.000E+00 7.609E-04

     total cpu time spent up to now is    30757.5 secs

     total energy              =   -5262.52891881 Ry
     estimated scf accuracy    <       0.00000857 Ry

     total magnetization       =     8.00 Bohr mag/cell
     absolute magnetization    =     8.09 Bohr mag/cell

     iteration #  6     ecut=    60.00 Ry     beta= 0.70
     Davidson diagonalization with overlap

---- Real-time Memory Report at c_bands before calling an iterative solver
          1925 MiB given to the printing process from OS
             0 MiB allocation reported by mallinfo(arena+hblkhd)
          4284 MiB available memory on the node where the printing process lives
------------------
     ethr =  1.64E-09,  avg # of iterations =  3.4

     negative rho (up, down):  0.000E+00 7.610E-04

     total cpu time spent up to now is    32475.7 secs

     total energy              =   -5262.52891949 Ry
     estimated scf accuracy    <       0.00000145 Ry

     total magnetization       =     8.00 Bohr mag/cell
     absolute magnetization    =     8.09 Bohr mag/cell

     iteration #  7     ecut=    60.00 Ry     beta= 0.70
     Davidson diagonalization with overlap

---- Real-time Memory Report at c_bands before calling an iterative solver
          1930 MiB given to the printing process from OS
             0 MiB allocation reported by mallinfo(arena+hblkhd)
          4332 MiB available memory on the node where the printing process lives
------------------
     ethr =  2.77E-10,  avg # of iterations =  8.7

     negative rho (up, down):  0.000E+00 7.610E-04

     total cpu time spent up to now is    37111.7 secs

     total energy              =   -5262.52892164 Ry
     estimated scf accuracy    <       0.00000115 Ry

     total magnetization       =     8.00 Bohr mag/cell
     absolute magnetization    =     8.09 Bohr mag/cell

     iteration #  8     ecut=    60.00 Ry     beta= 0.70
     Davidson diagonalization with overlap

---- Real-time Memory Report at c_bands before calling an iterative solver
          1935 MiB given to the printing process from OS
             0 MiB allocation reported by mallinfo(arena+hblkhd)
          4438 MiB available memory on the node where the printing process lives
------------------
     ethr =  2.19E-10,  avg # of iterations =  1.9

     negative rho (up, down):  0.000E+00 7.610E-04

     Magnetic moment per site  (integrated on atomic sphere of radius R)
     atom   1 (R=0.107)  charge=  7.5395  magn=  0.0001
     atom   2 (R=0.107)  charge=  7.5395  magn=  0.0001
     atom   3 (R=0.107)  charge=  7.5435  magn=  0.0001
     atom   4 (R=0.107)  charge=  7.5435  magn=  0.0001
     atom   5 (R=0.079)  charge=  8.1102  magn= -0.0002
     atom   6 (R=0.079)  charge=  8.1102  magn= -0.0002
     atom   7 (R=0.079)  charge=  8.1066  magn= -0.0000
     atom   8 (R=0.079)  charge=  8.1066  magn= -0.0000
     atom   9 (R=0.079)  charge=  8.1094  magn=  0.0007
     atom  10 (R=0.079)  charge=  8.1094  magn=  0.0007
     atom  11 (R=0.079)  charge=  8.1055  magn= -0.0000
     atom  12 (R=0.079)  charge=  8.1055  magn= -0.0000
     atom  13 (R=0.079)  charge=  8.1127  magn=  0.0006
     atom  14 (R=0.079)  charge=  8.1127  magn=  0.0006
     atom  15 (R=0.063)  charge=  0.5511  magn=  0.0008
     atom  16 (R=0.063)  charge=  0.5511  magn=  0.0008
     atom  17 (R=0.063)  charge=  0.5511  magn=  0.0008
     atom  18 (R=0.063)  charge=  0.5511  magn=  0.0008
     atom  19 (R=0.063)  charge=  0.5435  magn= -0.0000
     atom  20 (R=0.063)  charge=  0.5435  magn= -0.0000
     atom  21 (R=0.063)  charge=  0.5435  magn= -0.0000
     atom  22 (R=0.063)  charge=  0.5435  magn= -0.0000
     atom  23 (R=0.063)  charge=  0.5432  magn=  0.0000
     atom  24 (R=0.063)  charge=  0.5432  magn=  0.0000
     atom  25 (R=0.063)  charge=  0.5432  magn=  0.0000
     atom  26 (R=0.063)  charge=  0.5432  magn=  0.0000
     atom  27 (R=0.068)  charge=  0.3430  magn=  0.0014
     atom  28 (R=0.068)  charge=  0.3431  magn=  0.0014
     atom  29 (R=0.068)  charge=  0.3431  magn=  0.0014
     atom  30 (R=0.068)  charge=  0.3430  magn=  0.0014
     atom  31 (R=0.037)  charge=  1.9372  magn=  0.0156
     atom  32 (R=0.037)  charge=  1.9372  magn=  0.0156
     atom  33 (R=0.037)  charge=  1.9372  magn=  0.0156
     atom  34 (R=0.037)  charge=  1.9372  magn=  0.0156
     atom  35 (R=0.037)  charge=  1.9411  magn=  0.0004
     atom  36 (R=0.037)  charge=  1.9411  magn=  0.0004
     atom  37 (R=0.037)  charge=  1.9411  magn=  0.0004
     atom  38 (R=0.037)  charge=  1.9411  magn=  0.0004
     atom  39 (R=0.037)  charge=  1.9402  magn=  0.0004
     atom  40 (R=0.037)  charge=  1.9402  magn=  0.0004
     atom  41 (R=0.037)  charge=  1.9402  magn=  0.0004
     atom  42 (R=0.037)  charge=  1.9402  magn=  0.0004
     atom  43 (R=0.037)  charge=  1.9322  magn=  0.0276
     atom  44 (R=0.037)  charge=  1.9322  magn=  0.0276
     atom  45 (R=0.037)  charge=  1.9322  magn=  0.0276
     atom  46 (R=0.037)  charge=  1.9322  magn=  0.0276
     atom  47 (R=0.037)  charge=  1.9412  magn=  0.0009
     atom  48 (R=0.037)  charge=  1.9412  magn=  0.0009
     atom  49 (R=0.037)  charge=  1.9412  magn=  0.0009
     atom  50 (R=0.037)  charge=  1.9412  magn=  0.0009
     atom  51 (R=0.037)  charge=  1.9429  magn=  0.0008
     atom  52 (R=0.037)  charge=  1.9429  magn=  0.0008
     atom  53 (R=0.037)  charge=  1.9429  magn=  0.0008
     atom  54 (R=0.037)  charge=  1.9429  magn=  0.0008
     atom  55 (R=0.037)  charge=  1.9461  magn=  0.0001
     atom  56 (R=0.037)  charge=  1.9461  magn=  0.0001
     atom  57 (R=0.037)  charge=  1.9461  magn=  0.0001
     atom  58 (R=0.037)  charge=  1.9461  magn=  0.0001
     atom  59 (R=0.037)  charge=  1.9461  magn=  0.0001
     atom  60 (R=0.037)  charge=  1.9461  magn=  0.0001
     atom  61 (R=0.037)  charge=  1.9461  magn=  0.0001
     atom  62 (R=0.037)  charge=  1.9461  magn=  0.0001
     atom  63 (R=0.037)  charge=  1.9396  magn=  0.0005
     atom  64 (R=0.037)  charge=  1.9396  magn=  0.0005
     atom  65 (R=0.037)  charge=  1.9396  magn=  0.0005
     atom  66 (R=0.037)  charge=  1.9396  magn=  0.0005
     atom  67 (R=0.037)  charge=  1.9405  magn= -0.0000
     atom  68 (R=0.037)  charge=  1.9405  magn= -0.0000
     atom  69 (R=0.037)  charge=  1.9405  magn= -0.0000
     atom  70 (R=0.037)  charge=  1.9405  magn= -0.0000
     atom  71 (R=0.037)  charge=  1.9378  magn=  0.0211
     atom  72 (R=0.037)  charge=  1.9378  magn=  0.0211
     atom  73 (R=0.037)  charge=  1.9378  magn=  0.0211
     atom  74 (R=0.037)  charge=  1.9378  magn=  0.0211
     atom  75 (R=0.037)  charge=  1.9432  magn=  0.0003
     atom  76 (R=0.037)  charge=  1.9432  magn=  0.0003
     atom  77 (R=0.037)  charge=  1.9432  magn=  0.0003
     atom  78 (R=0.037)  charge=  1.9432  magn=  0.0003
     atom  79 (R=0.037)  charge=  0.3997  magn=  0.0001
     atom  80 (R=0.037)  charge=  0.3997  magn=  0.0001
     atom  81 (R=0.037)  charge=  0.3997  magn=  0.0001
     atom  82 (R=0.037)  charge=  0.3997  magn=  0.0001
     atom  83 (R=0.037)  charge=  0.4002  magn=  0.0000
     atom  84 (R=0.037)  charge=  0.4002  magn=  0.0000
     atom  85 (R=0.037)  charge=  0.4002  magn=  0.0000
     atom  86 (R=0.037)  charge=  0.4002  magn=  0.0000
     atom  87 (R=0.078)  charge= 13.2597  magn=  3.2758
     atom  88 (R=0.078)  charge= 13.2595  magn=  3.2756

     total cpu time spent up to now is    38646.0 secs

     End of self-consistent calculation

 ------ SPIN UP ------------


          k = 0.0000 0.0000 0.0000 ( 53617 PWs)   bands (ev):

   -81.5307 -81.5304 -67.8843 -67.8842 -67.8616 -67.8616 -67.6704 -67.6704
   -67.5361 -67.5361 -67.3671 -67.3671 -48.5294 -48.5291 -47.2143 -47.2139
   -47.0169 -47.0166 -34.6536 -34.6519 -34.6369 -34.6324 -34.6292 -34.6256
   -34.6200 -34.6182 -34.6173 -34.6160 -34.5966 -34.5963 -34.4358 -34.4357
   -34.4258 -34.4257 -34.4054 -34.4053 -34.2959 -34.2957 -34.2877 -34.2876
   -34.2797 -34.2796 -34.1301 -34.1299 -34.1174 -34.1172 -34.1098 -34.1096
   -23.4688 -23.4683 -23.4470 -23.4465 -15.2323 -15.1879 -14.8603 -14.8273
   -14.6058 -14.5760 -14.3174 -14.2786 -14.0520 -14.0264 -13.7855 -13.7700
   -13.6213 -13.5079 -13.4391 -13.3487 -13.3229 -13.3147 -13.2278 -13.2174
   -13.1609 -13.1446 -13.1191 -13.1025 -13.0933 -13.0701 -13.0470 -13.0355
   -12.9497 -12.9315 -12.8676 -12.8288 -12.7933 -12.7719 -12.7044 -12.6786
   -12.6440 -12.5971 -12.5323 -12.5140 -12.4456 -12.3998 -12.3472 -12.3283
   -11.7988 -11.7200 -11.5912 -11.5112  -7.0236  -7.0166  -6.9947  -6.9876
    -6.9401  -6.9373  -6.9373  -6.9276  -6.9274  -6.9261  -6.9194  -6.9172
    -4.4918  -4.4504  -3.5272  -3.4688  -3.0235  -2.9620  -2.6195  -2.5371
    -2.0156  -1.9383  -1.8612  -1.5460  -1.5103  -1.4340  -1.3877  -1.3532
    -1.2641  -1.2090  -1.1230  -1.1201  -0.9653  -0.9042  -0.8599  -0.8394
    -0.7755  -0.5869  -0.5524  -0.5138  -0.4567  -0.4133  -0.3678  -0.3115
    -0.2020  -0.1991  -0.1851  -0.1143  -0.0090   0.1749   0.1756   0.2071
     0.2602   0.2928   0.3273   0.3447   0.4627   0.4834   0.4919   0.5499
     0.6945   0.6963   0.7701   0.8317   0.8552   0.8633   0.8826   1.0015
     1.1316   1.1956   1.2443   1.2493   1.2509   1.2608   1.3009   1.3921
     1.4223   1.4658   1.4920   1.5648   1.5822   1.6178   1.6342   1.8379
     1.8696   1.8905   1.8986   1.9088   1.9173   2.0173   2.0182   2.0904
     2.1424   2.1917   2.2566   2.2783   2.2799   2.3754   2.3868   2.3907
     2.4026   2.4168   2.4491   2.4798   2.5272   2.5614   2.5695   2.5855
     2.6209   2.6236   2.6293   2.7093   2.7735   2.7898   2.8018   2.8361
     2.8505   2.8533   2.8814   2.9377   2.9397   2.9604   2.9677   3.0265
     3.0557   3.1112   3.1166   3.1330   3.1610   3.1747   3.1932   3.2102
     3.2135   3.2205   3.2611   3.2959   3.3066   3.3117   3.3396   3.3887
     3.4426   3.4726   3.4993   3.5143   3.5214   3.5979   3.6080   3.6289
     3.6423   3.6606   3.6968   3.7208   3.8421   3.9227   4.0388   4.0827
     4.8907   5.0486   5.0869   5.1858   6.0218   6.0345   6.4795   6.4812
     6.7117   6.7373   8.7277  10.2205  10.6699  10.7718  10.8665  11.1692
    11.2658  11.3857  11.5453  11.5873  11.6108  11.6719  11.8156  12.1045
    12.1096  12.1731  12.2476  12.3361  12.4328  12.6101  12.6290  12.7284
    12.7630  12.7976  12.8141  12.8291  12.9512  12.9964  13.0936  13.1025
    13.1563  13.2242  13.2560  13.3871  13.4404  13.4507  13.4808  13.5265
    13.5424  13.5544  13.5601  13.6453  13.6614  13.6703  13.7167  13.8544
    13.9585  14.0164

     occupation numbers 
     1.0000   1.0000   1.0000   1.0000   1.0000   1.0000   1.0000   1.0000
     1.0000   1.0000   1.0000   1.0000   1.0000   1.0000   1.0000   1.0000
     1.0000   1.0000   1.0000   1.0000   1.0000   1.0000   1.0000   1.0000
     1.0000   1.0000   1.0000   1.0000   1.0000   1.0000   1.0000   1.0000
     1.0000   1.0000   1.0000   1.0000   1.0000   1.0000   1.0000   1.0000
     1.0000   1.0000   1.0000   1.0000   1.0000   1.0000   1.0000   1.0000
     1.0000   1.0000   1.0000   1.0000   1.0000   1.0000   1.0000   1.0000
     1.0000   1.0000   1.0000   1.0000   1.0000   1.0000   1.0000   1.0000
     1.0000   1.0000   1.0000   1.0000   1.0000   1.0000   1.0000   1.0000
     1.0000   1.0000   1.0000   1.0000   1.0000   1.0000   1.0000   1.0000
     1.0000   1.0000   1.0000   1.0000   1.0000   1.0000   1.0000   1.0000
     1.0000   1.0000   1.0000   1.0000   1.0000   1.0000   1.0000   1.0000
     1.0000   1.0000   1.0000   1.0000   1.0000   1.0000   1.0000   1.0000
     1.0000   1.0000   1.0000   1.0000   1.0000   1.0000   1.0000   1.0000
     1.0000   1.0000   1.0000   1.0000   1.0000   1.0000   1.0000   1.0000
     1.0000   1.0000   1.0000   1.0000   1.0000   1.0000   1.0000   1.0000
     1.0000   1.0000   1.0000   1.0000   1.0000   1.0000   1.0000   1.0000
     1.0000   1.0000   1.0000   1.0000   1.0000   1.0000   1.0000   1.0000
     1.0000   1.0000   1.0000   1.0000   1.0000   1.0000   1.0000   1.0000
     1.0000   1.0000   1.0000   1.0000   1.0000   1.0000   1.0000   1.0000
     1.0000   1.0000   1.0000   1.0000   1.0000   1.0000   1.0000   1.0000
     1.0000   1.0000   1.0000   1.0000   1.0000   1.0000   1.0000   1.0000
     1.0000   1.0000   1.0000   1.0000   1.0000   1.0000   1.0000   1.0000
     1.0000   1.0000   1.0000   1.0000   1.0000   1.0000   1.0000   1.0000
     1.0000   1.0000   1.0000   1.0000   1.0000   1.0000   1.0000   1.0000
     1.0000   1.0000   1.0000   1.0000   1.0000   1.0000   1.0000   1.0000
     1.0000   1.0000   1.0000   1.0000   1.0000   1.0000   1.0000   1.0000
     1.0000   1.0000   1.0000   1.0000   1.0000   1.0000   1.0000   1.0000
     1.0000   1.0000   1.0000   1.0000   1.0000   1.0000   1.0000   1.0000
     1.0000   1.0000   1.0000   1.0000   1.0000   1.0000   1.0000   1.0000
     1.0000   1.0000   1.0000   1.0000   1.0000   1.0000   1.0000   1.0000
     1.0000   1.0000   1.0000   1.0000   1.0000   1.0000   1.0000   1.0000
     1.0000   1.0000   1.0000   1.0000   1.0000   1.0000   1.0000   1.0000
     1.0000   1.0000   0.0000   0.0000   0.0000   0.0000   0.0000   0.0000
     0.0000   0.0000   0.0000   0.0000   0.0000   0.0000   0.0000   0.0000
     0.0000   0.0000   0.0000   0.0000   0.0000   0.0000   0.0000   0.0000
     0.0000   0.0000   0.0000   0.0000   0.0000   0.0000   0.0000   0.0000
     0.0000   0.0000   0.0000   0.0000   0.0000   0.0000   0.0000   0.0000
     0.0000   0.0000   0.0000   0.0000   0.0000   0.0000   0.0000   0.0000
     0.0000   0.0000

          k = 0.0000 0.0000 0.3467 ( 53576 PWs)   bands (ev):

   -81.5307 -81.5304 -67.8843 -67.8842 -67.8616 -67.8616 -67.6704 -67.6704
   -67.5361 -67.5361 -67.3671 -67.3671 -48.5294 -48.5291 -47.2143 -47.2139
   -47.0168 -47.0166 -34.6535 -34.6519 -34.6369 -34.6324 -34.6292 -34.6255
   -34.6200 -34.6182 -34.6173 -34.6160 -34.5965 -34.5963 -34.4358 -34.4357
   -34.4258 -34.4257 -34.4054 -34.4053 -34.2958 -34.2957 -34.2877 -34.2876
   -34.2796 -34.2796 -34.1301 -34.1299 -34.1174 -34.1172 -34.1098 -34.1095
   -23.4688 -23.4683 -23.4470 -23.4465 -15.2224 -15.1983 -14.8534 -14.8346
   -14.5991 -14.5827 -14.3079 -14.2886 -14.0489 -14.0296 -13.7859 -13.7696
   -13.6133 -13.5219 -13.4339 -13.3490 -13.3219 -13.3115 -13.2235 -13.2144
   -13.1643 -13.1572 -13.1197 -13.0998 -13.0876 -13.0721 -13.0476 -13.0353
   -12.9487 -12.9272 -12.8663 -12.8315 -12.7917 -12.7791 -12.6996 -12.6666
   -12.6487 -12.6061 -12.5346 -12.5113 -12.4411 -12.3935 -12.3520 -12.3341
   -11.7985 -11.7191 -11.5921 -11.5118  -7.0237  -7.0166  -6.9947  -6.9875
    -6.9400  -6.9373  -6.9373  -6.9276  -6.9274  -6.9260  -6.9193  -6.9171
    -4.4885  -4.4540  -3.5128  -3.4835  -3.0094  -2.9779  -2.6004  -2.5591
    -1.9914  -1.9274  -1.8734  -1.5367  -1.5043  -1.4365  -1.3833  -1.3570
    -1.2616  -1.2210  -1.1228  -1.1104  -0.9490  -0.9078  -0.8673  -0.8194
    -0.7902  -0.5980  -0.5321  -0.5067  -0.4578  -0.4538  -0.3855  -0.3403
    -0.2433  -0.2223  -0.1536  -0.1013  -0.0520   0.1628   0.1665   0.2059
     0.2537   0.2708   0.3233   0.3349   0.4587   0.5112   0.5168   0.5352
     0.7070   0.7362   0.7876   0.8429   0.8593   0.9125   0.9194   0.9609
     1.1248   1.1647   1.1831   1.2631   1.2751   1.2913   1.3641   1.3667
     1.3856   1.4440   1.5541   1.6023   1.6321   1.6326   1.7173   1.8439
     1.8779   1.8928   1.9008   1.9068   1.9266   1.9873   2.0612   2.0765
     2.1213   2.1830   2.2126   2.2489   2.2746   2.2948   2.3083   2.3741
     2.3903   2.4109   2.4570   2.5022   2.5287   2.5371   2.5498   2.5585
     2.5833   2.6488   2.6519   2.7574   2.7831   2.7929   2.7972   2.8381
     2.8451   2.8846   2.8910   2.9254   2.9519   2.9575   2.9968   3.0311
     3.0741   3.1077   3.1304   3.1388   3.1529   3.1683   3.1743   3.2113
     3.2200   3.2264   3.2779   3.2826   3.3050   3.3289   3.3316   3.3869
     3.4053   3.4317   3.4433   3.5229   3.5245   3.5588   3.5902   3.6515
     3.6637   3.6848   3.6944   3.7328   3.8814   3.9271   4.0401   4.0786
     4.8918   5.0526   5.0818   5.1818   6.0216   6.0337   6.4779   6.4815
     6.7144   6.7393   9.0293   9.7382  10.6514  10.8872  10.9666  11.0864
    11.2133  11.3561  11.3779  11.6961  11.6973  11.7356  11.7457  12.1533
    12.1818  12.2010  12.2916  12.3244  12.4380  12.6210  12.6778  12.6996
    12.7820  12.8350  12.8950  12.8954  12.9091  12.9804  13.0253  13.1017
    13.1204  13.1706  13.2995  13.3118  13.3320  13.4437  13.4723  13.4750
    13.5332  13.5597  13.5605  13.6095  13.7390  13.7403  13.7642  13.8052
    13.9100  13.9642

     occupation numbers 
     1.0000   1.0000   1.0000   1.0000   1.0000   1.0000   1.0000   1.0000
     1.0000   1.0000   1.0000   1.0000   1.0000   1.0000   1.0000   1.0000
     1.0000   1.0000   1.0000   1.0000   1.0000   1.0000   1.0000   1.0000
     1.0000   1.0000   1.0000   1.0000   1.0000   1.0000   1.0000   1.0000
     1.0000   1.0000   1.0000   1.0000   1.0000   1.0000   1.0000   1.0000
     1.0000   1.0000   1.0000   1.0000   1.0000   1.0000   1.0000   1.0000
     1.0000   1.0000   1.0000   1.0000   1.0000   1.0000   1.0000   1.0000
     1.0000   1.0000   1.0000   1.0000   1.0000   1.0000   1.0000   1.0000
     1.0000   1.0000   1.0000   1.0000   1.0000   1.0000   1.0000   1.0000
     1.0000   1.0000   1.0000   1.0000   1.0000   1.0000   1.0000   1.0000
     1.0000   1.0000   1.0000   1.0000   1.0000   1.0000   1.0000   1.0000
     1.0000   1.0000   1.0000   1.0000   1.0000   1.0000   1.0000   1.0000
     1.0000   1.0000   1.0000   1.0000   1.0000   1.0000   1.0000   1.0000
     1.0000   1.0000   1.0000   1.0000   1.0000   1.0000   1.0000   1.0000
     1.0000   1.0000   1.0000   1.0000   1.0000   1.0000   1.0000   1.0000
     1.0000   1.0000   1.0000   1.0000   1.0000   1.0000   1.0000   1.0000
     1.0000   1.0000   1.0000   1.0000   1.0000   1.0000   1.0000   1.0000
     1.0000   1.0000   1.0000   1.0000   1.0000   1.0000   1.0000   1.0000
     1.0000   1.0000   1.0000   1.0000   1.0000   1.0000   1.0000   1.0000
     1.0000   1.0000   1.0000   1.0000   1.0000   1.0000   1.0000   1.0000
     1.0000   1.0000   1.0000   1.0000   1.0000   1.0000   1.0000   1.0000
     1.0000   1.0000   1.0000   1.0000   1.0000   1.0000   1.0000   1.0000
     1.0000   1.0000   1.0000   1.0000   1.0000   1.0000   1.0000   1.0000
     1.0000   1.0000   1.0000   1.0000   1.0000   1.0000   1.0000   1.0000
     1.0000   1.0000   1.0000   1.0000   1.0000   1.0000   1.0000   1.0000
     1.0000   1.0000   1.0000   1.0000   1.0000   1.0000   1.0000   1.0000
     1.0000   1.0000   1.0000   1.0000   1.0000   1.0000   1.0000   1.0000
     1.0000   1.0000   1.0000   1.0000   1.0000   1.0000   1.0000   1.0000
     1.0000   1.0000   1.0000   1.0000   1.0000   1.0000   1.0000   1.0000
     1.0000   1.0000   1.0000   1.0000   1.0000   1.0000   1.0000   1.0000
     1.0000   1.0000   1.0000   1.0000   1.0000   1.0000   1.0000   1.0000
     1.0000   1.0000   1.0000   1.0000   1.0000   1.0000   1.0000   1.0000
     1.0000   1.0000   1.0000   1.0000   1.0000   1.0000   1.0000   1.0000
     1.0000   1.0000   0.0000   0.0000   0.0000   0.0000   0.0000   0.0000
     0.0000   0.0000   0.0000   0.0000   0.0000   0.0000   0.0000   0.0000
     0.0000   0.0000   0.0000   0.0000   0.0000   0.0000   0.0000   0.0000
     0.0000   0.0000   0.0000   0.0000   0.0000   0.0000   0.0000   0.0000
     0.0000   0.0000   0.0000   0.0000   0.0000   0.0000   0.0000   0.0000
     0.0000   0.0000   0.0000   0.0000   0.0000   0.0000   0.0000   0.0000
     0.0000   0.0000

          k = 0.0000 0.3834 0.0000 ( 53603 PWs)   bands (ev):

   -81.5307 -81.5304 -67.8843 -67.8842 -67.8616 -67.8616 -67.6704 -67.6704
   -67.5361 -67.5361 -67.3671 -67.3671 -48.5294 -48.5291 -47.2143 -47.2139
   -47.0169 -47.0166 -34.6536 -34.6519 -34.6369 -34.6324 -34.6292 -34.6255
   -34.6200 -34.6182 -34.6173 -34.6159 -34.5966 -34.5963 -34.4358 -34.4357
   -34.4258 -34.4257 -34.4054 -34.4053 -34.2958 -34.2957 -34.2877 -34.2876
   -34.2796 -34.2796 -34.1301 -34.1299 -34.1174 -34.1172 -34.1098 -34.1095
   -23.4687 -23.4683 -23.4470 -23.4465 -15.2270 -15.1828 -14.8593 -14.8260
   -14.6054 -14.5755 -14.3533 -14.3101 -14.0564 -14.0314 -13.7856 -13.7701
   -13.5309 -13.4306 -13.4026 -13.3404 -13.3262 -13.3152 -13.2503 -13.2068
   -13.1629 -13.1530 -13.1485 -13.1264 -13.1128 -13.0948 -13.0813 -13.0596
   -12.9425 -12.9354 -12.8558 -12.8252 -12.8028 -12.7691 -12.6930 -12.6831
   -12.6398 -12.6020 -12.5319 -12.5138 -12.4400 -12.3989 -12.3431 -12.3282
   -11.7968 -11.7199 -11.5914 -11.5105  -7.0243  -7.0151  -6.9949  -6.9893
    -6.9389  -6.9370  -6.9361  -6.9290  -6.9273  -6.9260  -6.9202  -6.9171
    -4.4511  -4.4084  -3.5387  -3.4780  -3.0377  -2.9750  -2.7733  -2.6879
    -1.9581  -1.9129  -1.8383  -1.6177  -1.5057  -1.4188  -1.2583  -1.2548
    -1.1877  -1.1469  -1.1406  -1.1263  -0.9074  -0.8965  -0.8693  -0.8530
    -0.8291  -0.5373  -0.5061  -0.5043  -0.4503  -0.4219  -0.3462  -0.3260
    -0.2857  -0.2144  -0.2124  -0.0564  -0.0015   0.1194   0.1689   0.2019
     0.2839   0.2843   0.3061   0.3064   0.3555   0.4490   0.5045   0.5888
     0.6483   0.6668   0.7296   0.7856   0.8803   0.9596   0.9607   0.9635
     1.1227   1.1255   1.2162   1.2717   1.2864   1.3075   1.3329   1.3599
     1.4379   1.4560   1.4822   1.5081   1.5711   1.6407   1.7319   1.8429
     1.8508   1.8892   1.9145   1.9241   1.9926   2.1018   2.1052   2.1653
     2.1706   2.2026   2.2181   2.2232   2.2286   2.2886   2.3137   2.3437
     2.3993   2.4098   2.5012   2.5236   2.5309   2.5622   2.5743   2.5806
     2.6037   2.6755   2.6861   2.7152   2.7532   2.7596   2.7741   2.7886
     2.8359   2.8790   2.8914   2.8925   2.9242   2.9761   2.9940   3.0339
     3.0610   3.0959   3.1154   3.1618   3.1757   3.1871   3.2069   3.2165
     3.2484   3.2485   3.2802   3.2938   3.2994   3.3338   3.3476   3.3603
     3.3737   3.4304   3.5059   3.5141   3.5264   3.5659   3.5968   3.6499
     3.6677   3.6703   3.6708   3.7650   3.8608   3.8664   3.8740   4.0188
     4.8921   5.0381   5.0862   5.1771   6.0301   6.0408   6.4499   6.4584
     6.7254   6.7505   9.1243  10.0447  10.4673  10.7714  10.9073  11.0422
    11.3415  11.3733  11.4338  11.4523  11.5289  11.8417  11.9953  11.9981
    12.1429  12.1954  12.2430  12.3013  12.3070  12.5169  12.6940  12.7025
    12.7586  12.8346  12.8576  12.9037  12.9684  13.0471  13.0602  13.1325
    13.1448  13.2003  13.2508  13.3023  13.3532  13.3638  13.4155  13.5014
    13.5309  13.6645  13.7230  13.7808  13.8536  13.8613  13.9062  13.9428
    13.9817  13.9862

     occupation numbers 
     1.0000   1.0000   1.0000   1.0000   1.0000   1.0000   1.0000   1.0000
     1.0000   1.0000   1.0000   1.0000   1.0000   1.0000   1.0000   1.0000
     1.0000   1.0000   1.0000   1.0000   1.0000   1.0000   1.0000   1.0000
     1.0000   1.0000   1.0000   1.0000   1.0000   1.0000   1.0000   1.0000
     1.0000   1.0000   1.0000   1.0000   1.0000   1.0000   1.0000   1.0000
     1.0000   1.0000   1.0000   1.0000   1.0000   1.0000   1.0000   1.0000
     1.0000   1.0000   1.0000   1.0000   1.0000   1.0000   1.0000   1.0000
     1.0000   1.0000   1.0000   1.0000   1.0000   1.0000   1.0000   1.0000
     1.0000   1.0000   1.0000   1.0000   1.0000   1.0000   1.0000   1.0000
     1.0000   1.0000   1.0000   1.0000   1.0000   1.0000   1.0000   1.0000
     1.0000   1.0000   1.0000   1.0000   1.0000   1.0000   1.0000   1.0000
     1.0000   1.0000   1.0000   1.0000   1.0000   1.0000   1.0000   1.0000
     1.0000   1.0000   1.0000   1.0000   1.0000   1.0000   1.0000   1.0000
     1.0000   1.0000   1.0000   1.0000   1.0000   1.0000   1.0000   1.0000
     1.0000   1.0000   1.0000   1.0000   1.0000   1.0000   1.0000   1.0000
     1.0000   1.0000   1.0000   1.0000   1.0000   1.0000   1.0000   1.0000
     1.0000   1.0000   1.0000   1.0000   1.0000   1.0000   1.0000   1.0000
     1.0000   1.0000   1.0000   1.0000   1.0000   1.0000   1.0000   1.0000
     1.0000   1.0000   1.0000   1.0000   1.0000   1.0000   1.0000   1.0000
     1.0000   1.0000   1.0000   1.0000   1.0000   1.0000   1.0000   1.0000
     1.0000   1.0000   1.0000   1.0000   1.0000   1.0000   1.0000   1.0000
     1.0000   1.0000   1.0000   1.0000   1.0000   1.0000   1.0000   1.0000
     1.0000   1.0000   1.0000   1.0000   1.0000   1.0000   1.0000   1.0000
     1.0000   1.0000   1.0000   1.0000   1.0000   1.0000   1.0000   1.0000
     1.0000   1.0000   1.0000   1.0000   1.0000   1.0000   1.0000   1.0000
     1.0000   1.0000   1.0000   1.0000   1.0000   1.0000   1.0000   1.0000
     1.0000   1.0000   1.0000   1.0000   1.0000   1.0000   1.0000   1.0000
     1.0000   1.0000   1.0000   1.0000   1.0000   1.0000   1.0000   1.0000
     1.0000   1.0000   1.0000   1.0000   1.0000   1.0000   1.0000   1.0000
     1.0000   1.0000   1.0000   1.0000   1.0000   1.0000   1.0000   1.0000
     1.0000   1.0000   1.0000   1.0000   1.0000   1.0000   1.0000   1.0000
     1.0000   1.0000   1.0000   1.0000   1.0000   1.0000   1.0000   1.0000
     1.0000   1.0000   1.0000   1.0000   1.0000   1.0000   1.0000   1.0000
     1.0000   1.0000   0.0000   0.0000   0.0000   0.0000   0.0000   0.0000
     0.0000   0.0000   0.0000   0.0000   0.0000   0.0000   0.0000   0.0000
     0.0000   0.0000   0.0000   0.0000   0.0000   0.0000   0.0000   0.0000
     0.0000   0.0000   0.0000   0.0000   0.0000   0.0000   0.0000   0.0000
     0.0000   0.0000   0.0000   0.0000   0.0000   0.0000   0.0000   0.0000
     0.0000   0.0000   0.0000   0.0000   0.0000   0.0000   0.0000   0.0000
     0.0000   0.0000

          k = 0.0000 0.3834 0.3467 ( 53607 PWs)   bands (ev):

   -81.5307 -81.5304 -67.8843 -67.8842 -67.8616 -67.8616 -67.6704 -67.6704
   -67.5361 -67.5361 -67.3671 -67.3671 -48.5294 -48.5291 -47.2143 -47.2139
   -47.0169 -47.0166 -34.6536 -34.6519 -34.6369 -34.6324 -34.6292 -34.6255
   -34.6200 -34.6182 -34.6173 -34.6159 -34.5965 -34.5963 -34.4358 -34.4357
   -34.4258 -34.4257 -34.4054 -34.4053 -34.2958 -34.2957 -34.2877 -34.2876
   -34.2796 -34.2796 -34.1301 -34.1299 -34.1174 -34.1172 -34.1098 -34.1096
   -23.4687 -23.4683 -23.4470 -23.4465 -15.2170 -15.1935 -14.8526 -14.8331
   -14.5988 -14.5823 -14.3434 -14.3207 -14.0522 -14.0357 -13.7860 -13.7697
   -13.5255 -13.4271 -13.4153 -13.3411 -13.3185 -13.3136 -13.2467 -13.2085
   -13.1709 -13.1584 -13.1526 -13.1200 -13.1040 -13.0965 -13.0806 -13.0608
   -12.9405 -12.9347 -12.8545 -12.8280 -12.7984 -12.7793 -12.6883 -12.6712
   -12.6444 -12.6104 -12.5344 -12.5111 -12.4353 -12.3927 -12.3478 -12.3339
   -11.7966 -11.7190 -11.5922 -11.5111  -7.0244  -7.0151  -6.9950  -6.9893
    -6.9389  -6.9369  -6.9361  -6.9290  -6.9273  -6.9260  -6.9201  -6.9171
    -4.4453  -4.4144  -3.5240  -3.4932  -3.0231  -2.9913  -2.7532  -2.7099
    -1.9370  -1.9032  -1.8483  -1.6095  -1.5016  -1.4209  -1.2580  -1.2530
    -1.1817  -1.1567  -1.1333  -1.1166  -0.9051  -0.8975  -0.8718  -0.8458
    -0.8351  -0.5704  -0.4927  -0.4771  -0.4434  -0.4196  -0.3965  -0.3564
    -0.2629  -0.2457  -0.2317  -0.0650  -0.0506   0.1296   0.1685   0.1756
     0.2757   0.2765   0.2859   0.3148   0.3566   0.4537   0.5371   0.5832
     0.6435   0.6828   0.7669   0.7969   0.8340   0.9680   1.0085   1.0183
     1.1207   1.1757   1.1816   1.2620   1.2867   1.3255   1.3701   1.3708
     1.3923   1.4438   1.5460   1.5768   1.6104   1.6215   1.7720   1.8190
     1.8571   1.8822   1.9026   1.9255   2.0061   2.0885   2.1274   2.1300
     2.1469   2.1891   2.1921   2.2326   2.2372   2.2390   2.2981   2.3417
     2.3543   2.3954   2.5040   2.5042   2.5255   2.5422   2.5514   2.5822
     2.6026   2.6756   2.6866   2.7239   2.7408   2.7707   2.7822   2.8011
     2.8204   2.8712   2.8979   2.8994   2.9484   2.9726   2.9993   3.0481
     3.0600   3.0892   3.1145   3.1528   3.1727   3.1820   3.2160   3.2357
     3.2588   3.2601   3.2884   3.3070   3.3095   3.3249   3.3347   3.3636
     3.3682   3.4213   3.4446   3.4874   3.5315   3.5602   3.5876   3.6545
     3.6617   3.6684   3.6844   3.7894   3.8639   3.8783   3.9054   4.0213
     4.8933   5.0423   5.0812   5.1723   6.0300   6.0402   6.4460   6.4574
     6.7276   6.7519   9.3886  10.0315  10.2301  10.7311  10.7957  10.9916
    11.2201  11.4312  11.4428  11.4433  11.4726  11.8407  11.9045  11.9424
    12.1835  12.2426  12.3624  12.3796  12.5464  12.6418  12.6953  12.7148
    12.7539  12.8423  12.9221  12.9247  13.0234  13.0768  13.0773  13.1686
    13.1976  13.2193  13.2428  13.3091  13.3809  13.4310  13.4441  13.4630
    13.5463  13.5840  13.6416  13.6976  13.7249  13.7389  13.8254  13.9068
    13.9151  13.9652

     occupation numbers 
     1.0000   1.0000   1.0000   1.0000   1.0000   1.0000   1.0000   1.0000
     1.0000   1.0000   1.0000   1.0000   1.0000   1.0000   1.0000   1.0000
     1.0000   1.0000   1.0000   1.0000   1.0000   1.0000   1.0000   1.0000
     1.0000   1.0000   1.0000   1.0000   1.0000   1.0000   1.0000   1.0000
     1.0000   1.0000   1.0000   1.0000   1.0000   1.0000   1.0000   1.0000
     1.0000   1.0000   1.0000   1.0000   1.0000   1.0000   1.0000   1.0000
     1.0000   1.0000   1.0000   1.0000   1.0000   1.0000   1.0000   1.0000
     1.0000   1.0000   1.0000   1.0000   1.0000   1.0000   1.0000   1.0000
     1.0000   1.0000   1.0000   1.0000   1.0000   1.0000   1.0000   1.0000
     1.0000   1.0000   1.0000   1.0000   1.0000   1.0000   1.0000   1.0000
     1.0000   1.0000   1.0000   1.0000   1.0000   1.0000   1.0000   1.0000
     1.0000   1.0000   1.0000   1.0000   1.0000   1.0000   1.0000   1.0000
     1.0000   1.0000   1.0000   1.0000   1.0000   1.0000   1.0000   1.0000
     1.0000   1.0000   1.0000   1.0000   1.0000   1.0000   1.0000   1.0000
     1.0000   1.0000   1.0000   1.0000   1.0000   1.0000   1.0000   1.0000
     1.0000   1.0000   1.0000   1.0000   1.0000   1.0000   1.0000   1.0000
     1.0000   1.0000   1.0000   1.0000   1.0000   1.0000   1.0000   1.0000
     1.0000   1.0000   1.0000   1.0000   1.0000   1.0000   1.0000   1.0000
     1.0000   1.0000   1.0000   1.0000   1.0000   1.0000   1.0000   1.0000
     1.0000   1.0000   1.0000   1.0000   1.0000   1.0000   1.0000   1.0000
     1.0000   1.0000   1.0000   1.0000   1.0000   1.0000   1.0000   1.0000
     1.0000   1.0000   1.0000   1.0000   1.0000   1.0000   1.0000   1.0000
     1.0000   1.0000   1.0000   1.0000   1.0000   1.0000   1.0000   1.0000
     1.0000   1.0000   1.0000   1.0000   1.0000   1.0000   1.0000   1.0000
     1.0000   1.0000   1.0000   1.0000   1.0000   1.0000   1.0000   1.0000
     1.0000   1.0000   1.0000   1.0000   1.0000   1.0000   1.0000   1.0000
     1.0000   1.0000   1.0000   1.0000   1.0000   1.0000   1.0000   1.0000
     1.0000   1.0000   1.0000   1.0000   1.0000   1.0000   1.0000   1.0000
     1.0000   1.0000   1.0000   1.0000   1.0000   1.0000   1.0000   1.0000
     1.0000   1.0000   1.0000   1.0000   1.0000   1.0000   1.0000   1.0000
     1.0000   1.0000   1.0000   1.0000   1.0000   1.0000   1.0000   1.0000
     1.0000   1.0000   1.0000   1.0000   1.0000   1.0000   1.0000   1.0000
     1.0000   1.0000   1.0000   1.0000   1.0000   1.0000   1.0000   1.0000
     1.0000   1.0000   0.0000   0.0000   0.0000   0.0000   0.0000   0.0000
     0.0000   0.0000   0.0000   0.0000   0.0000   0.0000   0.0000   0.0000
     0.0000   0.0000   0.0000   0.0000   0.0000   0.0000   0.0000   0.0000
     0.0000   0.0000   0.0000   0.0000   0.0000   0.0000   0.0000   0.0000
     0.0000   0.0000   0.0000   0.0000   0.0000   0.0000   0.0000   0.0000
     0.0000   0.0000   0.0000   0.0000   0.0000   0.0000   0.0000   0.0000
     0.0000   0.0000

          k = 0.3334 0.0000 0.0608 ( 53607 PWs)   bands (ev):

   -81.5307 -81.5304 -67.8843 -67.8842 -67.8616 -67.8616 -67.6704 -67.6704
   -67.5361 -67.5361 -67.3671 -67.3671 -48.5294 -48.5291 -47.2143 -47.2139
   -47.0169 -47.0166 -34.6532 -34.6524 -34.6360 -34.6339 -34.6280 -34.6263
   -34.6197 -34.6190 -34.6166 -34.6161 -34.5965 -34.5963 -34.4358 -34.4358
   -34.4257 -34.4257 -34.4054 -34.4053 -34.2958 -34.2957 -34.2877 -34.2876
   -34.2796 -34.2796 -34.1301 -34.1300 -34.1173 -34.1172 -34.1097 -34.1096
   -23.4686 -23.4684 -23.4469 -23.4467 -15.1744 -15.1310 -15.0146 -14.9750
   -14.4485 -14.4199 -14.3329 -14.2980 -14.0297 -14.0031 -13.9071 -13.8832
   -13.5493 -13.4467 -13.4326 -13.3926 -13.3338 -13.2980 -13.2805 -13.2586
   -13.1746 -13.1334 -13.1182 -13.0804 -13.0560 -13.0535 -13.0427 -13.0387
   -12.9291 -12.9248 -12.8513 -12.8354 -12.7740 -12.7318 -12.7213 -12.6631
   -12.6605 -12.5916 -12.5892 -12.5525 -12.4274 -12.4079 -12.3353 -12.3278
   -11.7822 -11.7447 -11.5648 -11.5266  -7.0216  -7.0181  -6.9930  -6.9894
    -6.9395  -6.9381  -6.9349  -6.9301  -6.9272  -6.9263  -6.9188  -6.9177
    -4.3332  -4.2871  -3.9169  -3.8572  -2.7168  -2.6150  -2.5816  -2.4974
    -2.0196  -2.0178  -1.8806  -1.6527  -1.6089  -1.5996  -1.5181  -1.4535
    -1.0849  -1.0674  -1.0318  -1.0231  -0.9591  -0.9270  -0.9046  -0.8658
    -0.7366  -0.6007  -0.5491  -0.5232  -0.4866  -0.4333  -0.3588  -0.3192
    -0.2447  -0.1551  -0.1099  -0.0897  -0.0168   0.0190   0.1626   0.1779
     0.2681   0.2915   0.3716   0.3758   0.4510   0.4560   0.5324   0.5712
     0.6104   0.7462   0.7792   0.8755   0.8877   0.8885   0.9430   0.9860
     1.1168   1.1309   1.2068   1.2150   1.2825   1.3126   1.3409   1.3616
     1.3849   1.4299   1.4716   1.5988   1.6352   1.7122   1.7251   1.7459
     1.8051   1.8276   1.9029   1.9832   1.9966   2.0401   2.0782   2.1330
     2.1468   2.1908   2.2001   2.2330   2.2878   2.3246   2.3626   2.3865
     2.3881   2.4305   2.4505   2.4649   2.4848   2.4989   2.5763   2.6099
     2.6258   2.6636   2.6780   2.6996   2.7156   2.7403   2.8198   2.8206
     2.8730   2.8790   2.9093   2.9233   2.9338   2.9643   2.9979   3.0212
     3.0270   3.0574   3.0787   3.1178   3.1282   3.1656   3.1999   3.2008
     3.2246   3.2687   3.3014   3.3215   3.3456   3.3875   3.3996   3.4314
     3.4591   3.4638   3.5010   3.5183   3.5493   3.5611   3.5780   3.6019
     3.6121   3.6480   3.6492   3.7536   3.7848   3.8631   3.9774   4.0546
     4.9517   5.0445   5.0873   5.1539   6.0250   6.0314   6.4794   6.4804
     6.7141   6.7263   9.0520   9.8309  10.3951  10.8149  10.9517  11.1032
    11.3210  11.5749  11.5814  11.6351  11.7099  11.7950  11.8969  11.9866
    12.1936  12.2772  12.3293  12.3748  12.3847  12.5728  12.6037  12.6489
    12.7554  12.7590  12.8439  12.8475  12.8954  12.9581  13.1503  13.1552
    13.1615  13.1833  13.2394  13.3024  13.3156  13.3442  13.3610  13.3652
    13.4909  13.5777  13.6850  13.6873  13.7484  13.7753  13.8357  13.8853
    13.9937  14.0280

     occupation numbers 
     1.0000   1.0000   1.0000   1.0000   1.0000   1.0000   1.0000   1.0000
     1.0000   1.0000   1.0000   1.0000   1.0000   1.0000   1.0000   1.0000
     1.0000   1.0000   1.0000   1.0000   1.0000   1.0000   1.0000   1.0000
     1.0000   1.0000   1.0000   1.0000   1.0000   1.0000   1.0000   1.0000
     1.0000   1.0000   1.0000   1.0000   1.0000   1.0000   1.0000   1.0000
     1.0000   1.0000   1.0000   1.0000   1.0000   1.0000   1.0000   1.0000
     1.0000   1.0000   1.0000   1.0000   1.0000   1.0000   1.0000   1.0000
     1.0000   1.0000   1.0000   1.0000   1.0000   1.0000   1.0000   1.0000
     1.0000   1.0000   1.0000   1.0000   1.0000   1.0000   1.0000   1.0000
     1.0000   1.0000   1.0000   1.0000   1.0000   1.0000   1.0000   1.0000
     1.0000   1.0000   1.0000   1.0000   1.0000   1.0000   1.0000   1.0000
     1.0000   1.0000   1.0000   1.0000   1.0000   1.0000   1.0000   1.0000
     1.0000   1.0000   1.0000   1.0000   1.0000   1.0000   1.0000   1.0000
     1.0000   1.0000   1.0000   1.0000   1.0000   1.0000   1.0000   1.0000
     1.0000   1.0000   1.0000   1.0000   1.0000   1.0000   1.0000   1.0000
     1.0000   1.0000   1.0000   1.0000   1.0000   1.0000   1.0000   1.0000
     1.0000   1.0000   1.0000   1.0000   1.0000   1.0000   1.0000   1.0000
     1.0000   1.0000   1.0000   1.0000   1.0000   1.0000   1.0000   1.0000
     1.0000   1.0000   1.0000   1.0000   1.0000   1.0000   1.0000   1.0000
     1.0000   1.0000   1.0000   1.0000   1.0000   1.0000   1.0000   1.0000
     1.0000   1.0000   1.0000   1.0000   1.0000   1.0000   1.0000   1.0000
     1.0000   1.0000   1.0000   1.0000   1.0000   1.0000   1.0000   1.0000
     1.0000   1.0000   1.0000   1.0000   1.0000   1.0000   1.0000   1.0000
     1.0000   1.0000   1.0000   1.0000   1.0000   1.0000   1.0000   1.0000
     1.0000   1.0000   1.0000   1.0000   1.0000   1.0000   1.0000   1.0000
     1.0000   1.0000   1.0000   1.0000   1.0000   1.0000   1.0000   1.0000
     1.0000   1.0000   1.0000   1.0000   1.0000   1.0000   1.0000   1.0000
     1.0000   1.0000   1.0000   1.0000   1.0000   1.0000   1.0000   1.0000
     1.0000   1.0000   1.0000   1.0000   1.0000   1.0000   1.0000   1.0000
     1.0000   1.0000   1.0000   1.0000   1.0000   1.0000   1.0000   1.0000
     1.0000   1.0000   1.0000   1.0000   1.0000   1.0000   1.0000   1.0000
     1.0000   1.0000   1.0000   1.0000   1.0000   1.0000   1.0000   1.0000
     1.0000   1.0000   1.0000   1.0000   1.0000   1.0000   1.0000   1.0000
     1.0000   1.0000   0.0000   0.0000   0.0000   0.0000   0.0000   0.0000
     0.0000   0.0000   0.0000   0.0000   0.0000   0.0000   0.0000   0.0000
     0.0000   0.0000   0.0000   0.0000   0.0000   0.0000   0.0000   0.0000
     0.0000   0.0000   0.0000   0.0000   0.0000   0.0000   0.0000   0.0000
     0.0000   0.0000   0.0000   0.0000   0.0000   0.0000   0.0000   0.0000
     0.0000   0.0000   0.0000   0.0000   0.0000   0.0000   0.0000   0.0000
     0.0000   0.0000

          k = 0.3334 0.0000 0.4075 ( 53609 PWs)   bands (ev):

   -81.5307 -81.5304 -67.8843 -67.8842 -67.8616 -67.8616 -67.6704 -67.6704
   -67.5361 -67.5361 -67.3671 -67.3671 -48.5294 -48.5291 -47.2143 -47.2139
   -47.0169 -47.0166 -34.6532 -34.6524 -34.6360 -34.6339 -34.6280 -34.6263
   -34.6197 -34.6190 -34.6166 -34.6161 -34.5965 -34.5964 -34.4358 -34.4357
   -34.4258 -34.4257 -34.4054 -34.4053 -34.2958 -34.2958 -34.2877 -34.2876
   -34.2796 -34.2796 -34.1300 -34.1300 -34.1173 -34.1173 -34.1097 -34.1096
   -23.4686 -23.4684 -23.4469 -23.4467 -15.1618 -15.1442 -15.0104 -14.9794
   -14.4411 -14.4276 -14.3238 -14.3076 -14.0260 -14.0070 -13.9028 -13.8877
   -13.5418 -13.4470 -13.4454 -13.3873 -13.3301 -13.2936 -13.2912 -13.2534
   -13.1735 -13.1330 -13.1164 -13.0807 -13.0689 -13.0536 -13.0425 -13.0306
   -12.9283 -12.9207 -12.8521 -12.8384 -12.7680 -12.7420 -12.7169 -12.6689
   -12.6469 -12.5994 -12.5857 -12.5574 -12.4210 -12.4025 -12.3415 -12.3326
   -11.7816 -11.7440 -11.5655 -11.5274  -7.0217  -7.0181  -6.9930  -6.9894
    -6.9394  -6.9381  -6.9349  -6.9301  -6.9272  -6.9263  -6.9188  -6.9177
    -4.3349  -4.2856  -3.8910  -3.8840  -2.7081  -2.6251  -2.5645  -2.5179
    -2.0071  -1.9934  -1.8934  -1.6825  -1.6032  -1.5762  -1.5071  -1.4513
    -1.0800  -1.0620  -1.0317  -1.0311  -0.9371  -0.9276  -0.9090  -0.8796
    -0.7151  -0.6019  -0.5524  -0.5102  -0.4713  -0.4573  -0.4476  -0.3657
    -0.2411  -0.1252  -0.1153  -0.0764  -0.0612   0.0441   0.1212   0.1259
     0.2851   0.2898   0.3605   0.3782   0.4304   0.4868   0.5407   0.5852
[...]
     atom    4 type  5   force =     0.00000006   -0.00066655   -0.00000014
     atom    5 type  6   force =    -0.00000001    0.00044676    0.00000000
     atom    6 type  6   force =    -0.00000000    0.00044708    0.00000000
     atom    7 type  6   force =    -0.00000001   -0.00131834   -0.00000000
     atom    8 type  6   force =    -0.00000001   -0.00131842   -0.00000000
     atom    9 type  6   force =    -0.00000009   -0.00048768   -0.00000013
     atom   10 type  6   force =     0.00000010   -0.00048768    0.00000013
     atom   11 type  6   force =    -0.00000017    0.00114238    0.00000002
     atom   12 type  6   force =     0.00000018    0.00114238   -0.00000002
     atom   13 type  6   force =     0.00000049   -0.00033553    0.00000003
     atom   14 type  6   force =    -0.00000048   -0.00033553   -0.00000004
     atom   15 type  8   force =    -0.00002890   -0.00004991   -0.00012461
     atom   16 type  8   force =    -0.00002891   -0.00004985   -0.00012465
     atom   17 type  8   force =     0.00002891   -0.00004985    0.00012465
     atom   18 type  8   force =     0.00002890   -0.00004991    0.00012461
     atom   19 type  8   force =     0.00004406    0.00002153    0.00025917
     atom   20 type  8   force =     0.00004404    0.00002144    0.00025925
     atom   21 type  8   force =    -0.00004404    0.00002144   -0.00025925
     atom   22 type  8   force =    -0.00004405    0.00002153   -0.00025917
     atom   23 type  8   force =     0.00002130    0.00026101   -0.00025743
     atom   24 type  8   force =     0.00002128    0.00026102   -0.00025734
     atom   25 type  8   force =    -0.00002128    0.00026102    0.00025734
     atom   26 type  8   force =    -0.00002129    0.00026101    0.00025743
     atom   27 type  1   force =    -0.00018006    0.00002824   -0.00100208
     atom   28 type  1   force =    -0.00018008    0.00002823   -0.00100215
     atom   29 type  1   force =     0.00018008    0.00002823    0.00100215
     atom   30 type  1   force =     0.00018006    0.00002824    0.00100208
     atom   31 type  7   force =    -0.00005364    0.00012473    0.00050266
     atom   32 type  7   force =    -0.00005363    0.00012459    0.00050250
     atom   33 type  7   force =     0.00005363    0.00012459   -0.00050250
     atom   34 type  7   force =     0.00005364    0.00012473   -0.00050267
     atom   35 type  7   force =     0.00000240    0.00000364   -0.00038842
     atom   36 type  7   force =     0.00000236    0.00000382   -0.00038821
     atom   37 type  7   force =    -0.00000236    0.00000382    0.00038821
     atom   38 type  7   force =    -0.00000240    0.00000364    0.00038841
     atom   39 type  7   force =    -0.00001890   -0.00000137    0.00039409
     atom   40 type  7   force =    -0.00001901   -0.00000151    0.00039394
     atom   41 type  7   force =     0.00001901   -0.00000151   -0.00039395
     atom   42 type  7   force =     0.00001890   -0.00000137   -0.00039409
     atom   43 type  7   force =    -0.00007995   -0.00001333    0.00002347
     atom   44 type  7   force =    -0.00007985   -0.00001339    0.00002375
     atom   45 type  7   force =     0.00007985   -0.00001339   -0.00002375
     atom   46 type  7   force =     0.00007995   -0.00001333   -0.00002347
     atom   47 type  7   force =    -0.00019452    0.00104110    0.00025241
     atom   48 type  7   force =    -0.00019440    0.00104111    0.00025242
     atom   49 type  7   force =     0.00019440    0.00104111   -0.00025242
     atom   50 type  7   force =     0.00019452    0.00104110   -0.00025241
     atom   51 type  7   force =     0.00085203    0.00006702    0.00021365
     atom   52 type  7   force =     0.00085194    0.00006702    0.00021378
     atom   53 type  7   force =    -0.00085195    0.00006702   -0.00021378
     atom   54 type  7   force =    -0.00085203    0.00006702   -0.00021365
     atom   55 type  7   force =     0.00034541   -0.00049154   -0.00001190
     atom   56 type  7   force =     0.00034538   -0.00049160   -0.00001193
     atom   57 type  7   force =    -0.00034539   -0.00049160    0.00001193
     atom   58 type  7   force =    -0.00034541   -0.00049154    0.00001191
     atom   59 type  7   force =    -0.00014431    0.00022844   -0.00001972
     atom   60 type  7   force =    -0.00014429    0.00022839   -0.00001968
     atom   61 type  7   force =     0.00014429    0.00022838    0.00001969
     atom   62 type  7   force =     0.00014431    0.00022844    0.00001972
     atom   63 type  7   force =     0.00093538   -0.00042314    0.00039288
     atom   64 type  7   force =     0.00093541   -0.00042316    0.00039275
     atom   65 type  7   force =    -0.00093542   -0.00042317   -0.00039275
     atom   66 type  7   force =    -0.00093538   -0.00042315   -0.00039288
     atom   67 type  7   force =     0.00069559   -0.00061179   -0.00041383
     atom   68 type  7   force =     0.00069553   -0.00061182   -0.00041377
     atom   69 type  7   force =    -0.00069553   -0.00061182    0.00041377
     atom   70 type  7   force =    -0.00069559   -0.00061179    0.00041383
     atom   71 type  7   force =    -0.00010779   -0.00017384   -0.00036376
     atom   72 type  7   force =    -0.00010795   -0.00017353   -0.00036400
     atom   73 type  7   force =     0.00010795   -0.00017353    0.00036400
     atom   74 type  7   force =     0.00010779   -0.00017384    0.00036376
     atom   75 type  7   force =     0.00002013   -0.00000255   -0.00052238
     atom   76 type  7   force =     0.00002007   -0.00000237   -0.00052230
     atom   77 type  7   force =    -0.00002008   -0.00000237    0.00052230
     atom   78 type  7   force =    -0.00002013   -0.00000255    0.00052238
     atom   79 type  4   force =    -0.00010048    0.00014083   -0.00009956
     atom   80 type  4   force =    -0.00010045    0.00014065   -0.00009983
     atom   81 type  4   force =     0.00010045    0.00014065    0.00009984
     atom   82 type  4   force =     0.00010048    0.00014083    0.00009957
     atom   83 type  4   force =     0.00010685   -0.00044057   -0.00029617
     atom   84 type  4   force =     0.00010678   -0.00044046   -0.00029617
     atom   85 type  4   force =    -0.00010679   -0.00044046    0.00029617
     atom   86 type  4   force =    -0.00010685   -0.00044057    0.00029617
     atom   87 type  2   force =    -0.00000001    0.00068077   -0.00000000
     atom   88 type  3   force =    -0.00000001    0.00068022   -0.00000000

     Total force =     0.001681     Total SCF correction =     0.000174

     DFT-D3 dispersion Force =     0.006368
     SCF correction compared to forces is large: reduce conv_thr to get better values


     Computing stress (Cartesian axis) and pressure


     negative rho (up, down):  0.000E+00 7.614E-04
          total   stress  (Ry/bohr**3)                   (kbar)     P=        0.03
   0.00000086   0.00000000  -0.00000025            0.13        0.00       -0.04
   0.00000000   0.00000097   0.00000000            0.00        0.14        0.00
  -0.00000025   0.00000000  -0.00000119           -0.04        0.00       -0.18

     kinetic stress (kbar)  20097.19      0.00    -53.64
                                0.00  20186.85      0.00
                              -53.64      0.00  19878.88

     local   stress (kbar) -40612.70      0.00   -333.52
                                0.00 -39806.76     -0.00
                             -333.52     -0.00  19153.62

     nonloc. stress (kbar)   3810.70      0.00      7.08
                                0.00   3799.96      0.00
                                7.08      0.00   3788.42

     hartree stress (kbar)  22860.81     -0.00    123.53
                               -0.00  22536.46      0.00
                              123.53      0.00  -6329.88

     exc-cor stress (kbar)  -2825.15      0.00     -0.02
                                0.00  -2825.10      0.00
                               -0.02      0.00  -2822.01

     corecor stress (kbar)  -1860.40     -0.00      0.47
                               -0.00  -1861.09     -0.00
                                0.47     -0.00  -1862.36

     ewald   stress (kbar)  -1455.63     -0.00    256.05
                               -0.00  -2015.42      0.00
                              256.05      0.00 -31795.84

     hubbard stress (kbar)      0.00      0.00      0.00
                                0.00      0.00      0.00
                                0.00      0.00      0.00

     DFT-D   stress (kbar)    -14.69      0.00      0.01
                                0.00    -14.76      0.00
                                0.01      0.00    -11.00

     XDM     stress (kbar)      0.00      0.00      0.00
                                0.00      0.00      0.00
                                0.00      0.00      0.00

     dft-nl  stress (kbar)      0.00      0.00      0.00
                                0.00      0.00      0.00
                                0.00      0.00      0.00

     TS-vdW  stress (kbar)      0.00      0.00      0.00
                                0.00      0.00      0.00
                                0.00      0.00      0.00

     MDB     stress (kbar)      0.00      0.00      0.00
                                0.00      0.00      0.00
                                0.00      0.00      0.00

     3D-RISM stress (kbar)      0.00      0.00      0.00
                                0.00      0.00      0.00
                                0.00      0.00      0.00

     Energy error            =      4.0E-06 Ry
     Gradient error          =      2.8E-04 Ry/Bohr
     Cell gradient error     =      1.8E-01 kbar

     number of scf cycles    =  27
     number of bfgs steps    =  24

     enthalpy           old  =   -5262.5290105004 Ry
     enthalpy           new  =   -5262.5290145360 Ry

     CASE: enthalpy          _new < enthalpy          _old

     new trust radius        =       0.0053235957 bohr
ibrav =    -12
 celldm(1) =     20.13232343
 celldm(2) =      0.86961256
 celldm(3) =      0.97790333
 celldm(5) =     -0.18203368
Input lattice vectors:
     0.99986274     0.00000000    -0.00000120
     0.00000000     0.86949320     0.00000000
    -0.17798576     0.00000000     0.96143304
New lattice vectors in INITIAL alat:
     0.99986274     0.00000000     0.00000000
     0.00000000     0.86949320     0.00000000
    -0.17798691     0.00000000     0.96143283
New lattice vectors in NEW alat (for information only):
     1.00000000     0.00000000     0.00000000
     0.00000000     0.86961256     0.00000000
    -0.17801135     0.00000000     0.96156481
Discrepancy in bohr =     0.000001    0.000000    0.000001
     new conv_thr            =       0.0000000100 Ry

     new unit-cell volume =   6823.16798 a.u.^3 (  1011.08918 Ang^3 )
     density =      2.84471 g/cm^3

CELL_PARAMETERS (alat= 20.13508722)
   0.999862738   0.000000000   0.000000000
   0.000000000   0.869493196   0.000000000
  -0.177986912   0.000000000   0.961432827

ATOMIC_POSITIONS (crystal)
K                0.0000000000        0.4910716048        0.0000000000
K                0.5000000000        0.4910725078        0.0000000000
K                0.2500001655        0.0044160731       -0.0000008513
K                0.7499999545        0.0044160731        0.0000008513
Mg              -0.0000000000        0.0061884223        0.4999999400
Mg               0.5000000000        0.0061887459        0.4999999400
Mg              -0.0000000000        0.6671412258        0.4999999400
Mg               0.5000000000        0.6671321775        0.4999999400
Mg               0.2499999102        0.4958760850        0.5000018341
Mg               0.7500003578        0.4958760850        0.4999980459
Mg               0.2499992232        0.8355608459        0.5000012133
Mg               0.7500010448        0.8355608459        0.4999986667
Mg               0.2500061297        0.1704487534        0.4999983006
Mg               0.7499941383        0.1704487534        0.5000015794
Si               0.0448002039        0.1632750954        0.2250365957
Si               0.5447993562        0.1632728719        0.2250387014
Si               0.4552009418        0.1632728719        0.7749612096
Si               0.9552000971        0.1632750954        0.7749633153
Si               0.4675012882        0.8343066312        0.7674127782
Si               0.9675040436        0.8343057199        0.7674097881
Si               0.0324962474        0.8343057199        0.2325900929
Si               0.5324990398        0.8343066312        0.2325871028
Si               0.2822345890        0.6665856740        0.2311402216
Si               0.7822389037        0.6665856805        0.2311450850
Si               0.2177613943        0.6665856805        0.7688547960
Si               0.7177657090        0.6665856740        0.7688596594
Al               0.2045197393        0.3306839997        0.7720550374
Al               0.7045163418        0.3306890977        0.7720485482
Al               0.2954839862        0.3306890977        0.2279513178
Al               0.7954805737        0.3306839997        0.2279448286
O                0.0679456190        0.1577141352        0.3840541137
O                0.5679442380        0.1577200780        0.3840561483
O                0.4320560600        0.1577200780        0.6159437927
O                0.9320547020        0.1577141352        0.6159458273
O                0.4375139801        0.8346668201        0.6092283000
O                0.9375143430        0.8346553634        0.6092257175
O                0.0624860140        0.8346553634        0.3907741925
O                0.5624863479        0.8346668201        0.3907716100
O                0.3132097142        0.6697458153        0.3900898323
O                0.8132150786        0.6697559574        0.3900941574
O                0.1867851744        0.6697559574        0.6099057526
O                0.6867905538        0.6697458153        0.6099100777
O                0.1801986480        0.3332675178        0.6015178056
O                0.6801846549        0.3332719378        0.6015141788
O                0.3198156731        0.3332719378        0.3984856422
O                0.8198016350        0.3332675178        0.3984820154
O                0.1734456433        0.2047314048        0.1687448215
O                0.6734410906        0.2047268996        0.1687383498
O                0.3265592374        0.2047268996        0.8312614712
O                0.8265546397        0.2047314048        0.8312549995
O                0.0023920585        0.9964376038        0.1695653193
O                0.5023946727        0.9964371789        0.1695592442
O                0.4976056553        0.9964371789        0.8304406358
O                0.9976082955        0.9964376038        0.8304345607
O                0.3441594359        0.7698853200        0.8259293222
O                0.8441620904        0.7698895418        0.8259300844
O                0.1558382376        0.7698895418        0.1740698116
O                0.6558408621        0.7698853200        0.1740705738
O                0.4049004949        0.7368534939        0.1728787900
O                0.9048999002        0.7368531496        0.1728763529
O                0.0951004048        0.7368531496        0.8271235281
O                0.5950998031        0.7368534939        0.8271210910
O                0.2535277407        0.5073869625        0.1679143610
O                0.7535294189        0.5073875074        0.1679208958
O                0.2464708941        0.5073875074        0.8320789702
O                0.7464725273        0.5073869625        0.8320855050
O                0.0692743586        0.2744997517        0.8353175687
O                0.5692755697        0.2744976548        0.8353091239
O                0.4307247573        0.2744976548        0.1646907721
O                0.9307259394        0.2744997517        0.1646823273
O                0.0679039772        0.5116596918        0.3932583423
O                0.5679124177        0.5116502797        0.3932647195
O                0.4320878803        0.5116502797        0.6067351915
O                0.9320963208        0.5116596918        0.6067415687
O                0.3169119571        0.9994866912        0.3991271109
O                0.8169113677        0.9994760140        0.3991291548
O                0.1830890043        0.9994760140        0.6008707262
O                0.6830883709        0.9994866912        0.6008727701
H                0.0523277571        0.4923555551        0.3005678562
H                0.5523278542        0.4923567713        0.3005729138
H                0.4476725038        0.4923567713        0.6994269972
H                0.9476725749        0.4923555551        0.6994320548
H                0.2973536255        0.0132957331        0.3056529389
H                0.7973563341        0.0132980783        0.3056498640
H                0.2026439499        0.0132980783        0.6943500170
H                0.7026467015        0.0132957331        0.6943469421
Fe1             -0.0000000000        0.3356321600        0.4999999400
Fe2              0.5000000000        0.3356199857        0.4999999400



     Writing config-only to output data dir ./temp/phl-fe1-fe2x2.save/ :
     XML data file
     NEW-OLD atomic charge density approx. for the potential

     Check: negative core charge=   -0.000004

     negative rho (up, down):  0.000E+00 7.615E-04
     Generating pointlists ...

     total cpu time spent up to now is   272683.5 secs

     Self-consistent Calculation

     iteration #  1     ecut=    60.00 Ry     beta= 0.70
     Davidson diagonalization with overlap

---- Real-time Memory Report at c_bands before calling an iterative solver
          1972 MiB given to the printing process from OS
             0 MiB allocation reported by mallinfo(arena+hblkhd)
          4345 MiB available memory on the node where the printing process lives
------------------
     ethr =  1.00E-06,  avg # of iterations =  3.0

     Threshold (ethr) on eigenvalues was too large:
     Diagonalizing with lowered threshold

     Davidson diagonalization with overlap

---- Real-time Memory Report at c_bands before calling an iterative solver
          1972 MiB given to the printing process from OS
             0 MiB allocation reported by mallinfo(arena+hblkhd)
          4273 MiB available memory on the node where the printing process lives
------------------
     ethr =  5.02E-09,  avg # of iterations =  8.6

     negative rho (up, down):  0.000E+00 7.616E-04

     total cpu time spent up to now is   280485.9 secs

     total energy              =   -5262.52901800 Ry
     estimated scf accuracy    <       0.00001987 Ry

     total magnetization       =     8.00 Bohr mag/cell
     absolute magnetization    =     8.09 Bohr mag/cell

     iteration #  2     ecut=    60.00 Ry     beta= 0.70
     Davidson diagonalization with overlap

---- Real-time Memory Report at c_bands before calling an iterative solver
          1972 MiB given to the printing process from OS
             0 MiB allocation reported by mallinfo(arena+hblkhd)
          3745 MiB available memory on the node where the printing process lives
------------------
     ethr =  3.79E-09,  avg # of iterations =  2.0

     negative rho (up, down):  0.000E+00 7.617E-04

     total cpu time spent up to now is   282286.6 secs

     total energy              =   -5262.52902095 Ry
     estimated scf accuracy    <       0.00000085 Ry

     total magnetization       =     8.00 Bohr mag/cell
     absolute magnetization    =     8.09 Bohr mag/cell

     iteration #  3     ecut=    60.00 Ry     beta= 0.70
     Davidson diagonalization with overlap

---- Real-time Memory Report at c_bands before calling an iterative solver
          1972 MiB given to the printing process from OS
             0 MiB allocation reported by mallinfo(arena+hblkhd)
          3693 MiB available memory on the node where the printing process lives
------------------
