
     Program PWSCF v.7.3.1 starts on 14Feb2025 at 10:14:49 

     This program is part of the open-source Quantum ESPRESSO suite
     for quantum simulation of materials; please cite
         "P. Giannozzi et al., J. Phys.:Condens. Matter 21 395502 (2009);
         "P. Giannozzi et al., J. Phys.:Condens. Matter 29 465901 (2017);
         "P. Giannozzi et al., J. Chem. Phys. 152 154105 (2020);
          URL http://www.quantum-espresso.org", 
     in publications or presentations arising from this work. More details at
     http://www.quantum-espresso.org/quote

     Parallel version (MPI), running on     6 processors

     MPI processes distributed on     1 nodes
     12680 MiB available memory on the printing compute node when the environment starts

     Reading input from vc_relax.in

     Current dimensions of program PWSCF are:
     Max number of different atomic species (ntypx) = 10
     Max number of k-points (npk) =  40000
     Max angular momentum in pseudopotentials (lmaxx) =  4
     file Al.pbe-n-kjpaw_psl.1.0.0.UPF: wavefunction(s)  3S 3P renormalized
     file Fe.pbe-spn-kjpaw_psl.1.0.0.UPF: wavefunction(s)  3P 3D renormalized
     file Fe.pbe-spn-kjpaw_psl.1.0.0.UPF: wavefunction(s)  3P 3D renormalized
     file H.pbe-kjpaw_psl.1.0.0.UPF: wavefunction(s)  1S renormalized
     file K.pbe-spn-kjpaw_psl.1.0.0.UPF: wavefunction(s)  3S renormalized
     file Mg.pbe-spnl-kjpaw_psl.1.0.0.UPF: wavefunction(s)  2P renormalized
     file O.pbe-n-kjpaw_psl.1.0.0.UPF: wavefunction(s)  2S 2P renormalized
     file Si.pbe-n-kjpaw_psl.1.0.0.UPF: wavefunction(s)  3S 3P renormalized

     R & G space division:  proc/nbgrp/npool/nimage =       6
     Subspace diagonalization in iterative solution of the eigenvalue problem:
     one sub-group per band group will be used
     custom distributed-memory algorithm (size of sub-group:  2*  2 procs)


     Parallelization info
     --------------------
     sticks:   dense  smooth     PW     G-vecs:    dense   smooth      PW
     Min        2245    1122    295               202075    71450    9650
     Max        2246    1123    296               202076    71451    9652
     Sum       13475    6737   1775              1212455   428701   57909

     Using Slab Decomposition



     bravais-lattice index     =          -12
     lattice parameter (alat)  =      20.1351  a.u.
     unit-cell volume          =    6828.4878 (a.u.)^3
     number of atoms/cell      =           88
     number of atomic types    =            8
     number of electrons       =       524.00
     number of Kohn-Sham states=          314
     kinetic-energy cutoff     =      60.0000  Ry
     charge density cutoff     =     480.0000  Ry
     scf convergence threshold =      1.0E-06
     mixing beta               =       0.7000
     number of iterations used =            8  plain     mixing
     energy convergence thresh.=      1.0E-06
     force convergence thresh. =      1.0E-03
     press convergence thresh. =      5.0E-01
     Exchange-correlation= SLA  PW   PBX  PBC
                           (   1   4   3   4   0   0   0)
     nstep                     =           50


     celldm(1)=  20.135087  celldm(2)=   0.869801  celldm(3)=   0.977339
     celldm(4)=   0.000000  celldm(5)=  -0.178119  celldm(6)=   0.000000

     crystal axes: (cart. coord. in units of alat)
               a(1) = (   1.000000   0.000000   0.000000 )  
               a(2) = (   0.000000   0.869801   0.000000 )  
               a(3) = (  -0.174083   0.000000   0.961710 )  

     reciprocal axes: (cart. coord. in units 2 pi/alat)
               b(1) = (  1.000000 -0.000000  0.181014 )  
               b(2) = (  0.000000  1.149688 -0.000000 )  
               b(3) = (  0.000000  0.000000  1.039814 )  


     PseudoPot. # 1 for Al read from file:
     ./../../../pseudos/Al.pbe-n-kjpaw_psl.1.0.0.UPF
     MD5 check sum: 502b6b27b9c6270cab5dd1084b96fa6d
     Pseudo is Projector augmented-wave + core cor, Zval =  3.0
     Generated using &quot;atomic&quot; code by A. Dal Corso  v.6.3
     Shape of augmentation charge: PSQ
     Using radial grid of 1135 points,  6 beta functions with: 
                l(1) =   0
                l(2) =   0
                l(3) =   1
                l(4) =   1
                l(5) =   2
                l(6) =   2
     Q(r) pseudized with 0 coefficients 


     PseudoPot. # 2 for Fe read from file:
     ./../../../pseudos/Fe.pbe-spn-kjpaw_psl.1.0.0.UPF
     MD5 check sum: fc81f059e5c5069939230b1155715ae8
     Pseudo is Projector augmented-wave + core cor, Zval = 16.0
     Generated using &quot;atomic&quot; code by A. Dal Corso  v.6.3
     Shape of augmentation charge: PSQ
     Using radial grid of 1191 points,  6 beta functions with: 
                l(1) =   0
                l(2) =   0
                l(3) =   1
                l(4) =   1
                l(5) =   2
                l(6) =   2
     Q(r) pseudized with 0 coefficients 


     PseudoPot. # 3 for Fe read from file:
     ./../../../pseudos/Fe.pbe-spn-kjpaw_psl.1.0.0.UPF
     MD5 check sum: fc81f059e5c5069939230b1155715ae8
     Pseudo is Projector augmented-wave + core cor, Zval = 16.0
     Generated using &quot;atomic&quot; code by A. Dal Corso  v.6.3
     Shape of augmentation charge: PSQ
     Using radial grid of 1191 points,  6 beta functions with: 
                l(1) =   0
                l(2) =   0
                l(3) =   1
                l(4) =   1
                l(5) =   2
                l(6) =   2
     Q(r) pseudized with 0 coefficients 


     PseudoPot. # 4 for H  read from file:
     ./../../../pseudos/H.pbe-kjpaw_psl.1.0.0.UPF
     MD5 check sum: d81a744832360e4a8af0b0b5b123bc2a
     Pseudo is Projector augmented-wave, Zval =  1.0
     Generated using &quot;atomic&quot; code by A. Dal Corso  v.6.3MaX
     Shape of augmentation charge: PSQ
     Using radial grid of  929 points,  2 beta functions with: 
                l(1) =   0
                l(2) =   0
     Q(r) pseudized with 0 coefficients 


     PseudoPot. # 5 for K  read from file:
     ./../../../pseudos/K.pbe-spn-kjpaw_psl.1.0.0.UPF
     MD5 check sum: 34cc42130a09071ebe376fd42eb21491
     Pseudo is Projector augmented-wave + core cor, Zval =  9.0
     Generated using &quot;atomic&quot; code by A. Dal Corso  v.6.2.2
     Shape of augmentation charge: PSQ
     Using radial grid of 1165 points,  6 beta functions with: 
                l(1) =   0
                l(2) =   0
                l(3) =   1
                l(4) =   1
                l(5) =   2
                l(6) =   2
     Q(r) pseudized with 0 coefficients 


     PseudoPot. # 6 for Mg read from file:
     ./../../../pseudos/Mg.pbe-spnl-kjpaw_psl.1.0.0.UPF
     MD5 check sum: fda14e0d92a6a9a5ebed782e5a4b3067
     Pseudo is Projector augmented-wave + core cor, Zval = 10.0
     Generated using &quot;atomic&quot; code by A. Dal Corso  v.6.3
     Shape of augmentation charge: PSQ
     Using radial grid of 1129 points,  4 beta functions with: 
                l(1) =   0
                l(2) =   0
                l(3) =   1
                l(4) =   1
     Q(r) pseudized with 0 coefficients 


     PseudoPot. # 7 for O  read from file:
     ./../../../pseudos/O.pbe-n-kjpaw_psl.1.0.0.UPF
     MD5 check sum: e99d9cef9b487d1ca56f5b95ecd0fd7a
     Pseudo is Projector augmented-wave + core cor, Zval =  6.0
     Generated using &quot;atomic&quot; code by A. Dal Corso  v.6.3
     Shape of augmentation charge: PSQ
     Using radial grid of 1095 points,  4 beta functions with: 
                l(1) =   0
                l(2) =   0
                l(3) =   1
                l(4) =   1
     Q(r) pseudized with 0 coefficients 


     PseudoPot. # 8 for Si read from file:
     ./../../../pseudos/Si.pbe-n-kjpaw_psl.1.0.0.UPF
     MD5 check sum: c39c59da582df4a0d9f10159256ea34e
     Pseudo is Projector augmented-wave + core cor, Zval =  4.0
     Generated using &quot;atomic&quot; code by A. Dal Corso  v.6.3
     Shape of augmentation charge: PSQ
     Using radial grid of 1141 points,  6 beta functions with: 
                l(1) =   0
                l(2) =   0
                l(3) =   1
                l(4) =   1
                l(5) =   2
                l(6) =   2
     Q(r) pseudized with 0 coefficients 


     atomic species   valence    mass     pseudopotential
     Al                3.00    26.98154     Al( 1.00)
     Fe1              16.00    55.84500     Fe( 1.00)
     Fe2              16.00    55.84500     Fe( 1.00)
     H                 1.00     1.00794     H ( 1.00)
     K                 9.00    39.09830     K ( 1.00)
     Mg               10.00    24.30500     Mg( 1.00)
     O                 6.00    15.99940     O ( 1.00)
     Si                4.00    28.08550     Si( 1.00)

     Starting magnetic structure 
     atomic species   magnetization
     Al              0.000
     Fe1             0.300
     Fe2             0.300
     H               0.000
     K               0.000
     Mg              0.000
     O               0.000
     Si              0.000

      2 Sym. Ops. (no inversion) found


                                    s                        frac. trans.

      isym =  1     identity                                     

 cryst.   s( 1) = (     1          0          0      )
                  (     0          1          0      )
                  (     0          0          1      )

 cart.    s( 1) = (  1.0000000  0.0000000  0.0000000 )
                  (  0.0000000  1.0000000  0.0000000 )
                  (  0.0000000  0.0000000  1.0000000 )


      isym =  2     180 deg rotation - cart. axis [0,1,0]        

 cryst.   s( 2) = (    -1          0          0      )
                  (     0          1          0      )
                  (     0          0         -1      )

 cart.    s( 2) = ( -1.0000000  0.0000000  0.0000000 )
                  (  0.0000000  1.0000000  0.0000000 )
                  (  0.0000000  0.0000000 -1.0000000 )


     point group C_2  (2)   
     there are  2 classes
     the character table:

       E     C2   
A      1.00  1.00
B      1.00 -1.00

     the symmetry operations in each class and the name of the first element:

     E        1
          identity                                               
     C2       2
          180 deg rotation - cart. axis [0,1,0]                  

   Cartesian axes

     site n.     atom                  positions (alat units)
         1        K      tau(   1) = (   0.0000000   0.4296389   0.0000000  )
         2        K      tau(   2) = (   0.5000000   0.4296389   0.0000000  )
         3        K      tau(   3) = (   0.2500001   0.0024501   0.0000000  )
         4        K      tau(   4) = (   0.7500001   0.0024501   0.0000000  )
         5        Mg     tau(   5) = (  -0.0870414   0.0055279   0.4808550  )
         6        Mg     tau(   6) = (   0.4129586   0.0055279   0.4808550  )
         7        Mg     tau(   7) = (  -0.0870414   0.5801280   0.4808550  )
         8        Mg     tau(   8) = (   0.4129586   0.5801280   0.4808550  )
         9        Mg     tau(   9) = (   0.1629587   0.4310949   0.4808550  )
        10        Mg     tau(  10) = (   0.6629587   0.4310949   0.4808550  )
        11        Mg     tau(  11) = (   0.1629587   0.7269300   0.4808550  )
        12        Mg     tau(  12) = (   0.6629587   0.7269300   0.4808550  )
        13        Mg     tau(  13) = (   0.1629587   0.1482588   0.4808550  )
        14        Mg     tau(  14) = (   0.6629587   0.1482588   0.4808550  )
        15        Si     tau(  15) = (   0.0074326   0.1420119   0.2164892  )
        16        Si     tau(  16) = (   0.5074326   0.1420119   0.2164892  )
        17        Si     tau(  17) = (   0.3184849   0.1420119   0.7452208  )
        18        Si     tau(  18) = (   0.8184849   0.1420119   0.7452208  )
        19        Si     tau(  19) = (   0.3331608   0.7257911   0.7377580  )
        20        Si     tau(  20) = (   0.8331608   0.7257911   0.7377580  )
        21        Si     tau(  21) = (  -0.0072433   0.7257911   0.2239520  )
        22        Si     tau(  22) = (   0.4927567   0.7257911   0.2239520  )
        23        Si     tau(  23) = (   0.2427667   0.5796705   0.2225784  )
        24        Si     tau(  24) = (   0.7427667   0.5796705   0.2225784  )
        25        Si     tau(  25) = (   0.0831508   0.5796705   0.7391315  )
        26        Si     tau(  26) = (   0.5831508   0.5796705   0.7391315  )
        27        Al     tau(  27) = (   0.0682443   0.2875617   0.7425041  )
        28        Al     tau(  28) = (   0.5682443   0.2875617   0.7425041  )
        29        Al     tau(  29) = (   0.2576732   0.2875617   0.2192058  )
        30        Al     tau(  30) = (   0.7576731   0.2875617   0.2192058  )
        31        O      tau(  31) = (   0.0017352   0.1371008   0.3693886  )
        32        O      tau(  32) = (   0.5017352   0.1371008   0.3693886  )
        33        O      tau(  33) = (   0.3241823   0.1371008   0.5923214  )
        34        O      tau(  34) = (   0.8241823   0.1371008   0.5923214  )
        35        O      tau(  35) = (   0.3309875   0.7260882   0.5856762  )
        36        O      tau(  36) = (   0.8309875   0.7260882   0.5856762  )
        37        O      tau(  37) = (  -0.0050700   0.7260882   0.3760337  )
        38        O      tau(  38) = (   0.4949300   0.7260882   0.3760337  )
        39        O      tau(  39) = (   0.2456591   0.5824087   0.3753945  )
        40        O      tau(  40) = (   0.7456591   0.5824087   0.3753945  )
        41        O      tau(  41) = (   0.0802583   0.5824087   0.5863155  )
        42        O      tau(  42) = (   0.5802583   0.5824087   0.5863155  )
        43        O      tau(  43) = (   0.0748950   0.2898192   0.5784747  )
        44        O      tau(  44) = (   0.5748950   0.2898192   0.5784747  )
        45        O      tau(  45) = (   0.2510225   0.2898192   0.3832352  )
        46        O      tau(  46) = (   0.7510224   0.2898192   0.3832352  )
        47        O      tau(  47) = (   0.1463863   0.1775489   0.1626707  )
        48        O      tau(  48) = (   0.6463863   0.1775489   0.1626707  )
        49        O      tau(  49) = (   0.1795312   0.1775489   0.7990392  )
        50        O      tau(  50) = (   0.6795312   0.1775489   0.7990392  )
        51        O      tau(  51) = (  -0.0250455   0.8667889   0.1630411  )
        52        O      tau(  52) = (   0.4749545   0.8667889   0.1630411  )
        53        O      tau(  53) = (   0.3509630   0.8667889   0.7986688  )
        54        O      tau(  54) = (   0.8509630   0.8667889   0.7986688  )
        55        O      tau(  55) = (   0.2001651   0.6682872   0.7942782  )
        56        O      tau(  56) = (   0.7001651   0.6682872   0.7942782  )
        57        O      tau(  57) = (   0.1257524   0.6682872   0.1674318  )
        58        O      tau(  58) = (   0.6257524   0.6682872   0.1674318  )
        59        O      tau(  59) = (   0.3751016   0.6421235   0.1665090  )
        60        O      tau(  60) = (   0.8751016   0.6421235   0.1665090  )
        61        O      tau(  61) = (  -0.0491842   0.6421235   0.7952009  )
        62        O      tau(  62) = (   0.4508158   0.6421235   0.7952009  )
        63        O      tau(  63) = (   0.2267361   0.4412388   0.1614261  )
        64        O      tau(  64) = (   0.7267362   0.4412388   0.1614261  )
        65        O      tau(  65) = (   0.0991813   0.4412388   0.8002838  )
        66        O      tau(  66) = (   0.5991813   0.4412388   0.8002838  )
        67        O      tau(  67) = (  -0.0785908   0.2392057   0.8031981  )
        68        O      tau(  68) = (   0.4214092   0.2392057   0.8031981  )
        69        O      tau(  69) = (   0.4045083   0.2392057   0.1585119  )
        70        O      tau(  70) = (   0.9045082   0.2392057   0.1585119  )
        71        O      tau(  71) = (  -0.0000042   0.4450115   0.3781135  )
        72        O      tau(  72) = (   0.4999958   0.4450115   0.3781135  )
        73        O      tau(  73) = (   0.3259217   0.4450115   0.5835965  )
        74        O      tau(  74) = (   0.8259217   0.4450115   0.5835965  )
        75        O      tau(  75) = (   0.2478596   0.8693925   0.3836472  )
        76        O      tau(  76) = (   0.7478596   0.8693925   0.3836472  )
        77        O      tau(  77) = (   0.0780579   0.8693925   0.5780627  )
        78        O      tau(  78) = (   0.5780579   0.8693925   0.5780627  )
        79        H      tau(  79) = (   0.0004471   0.4269259   0.2892434  )
        80        H      tau(  80) = (   0.5004471   0.4269259   0.2892434  )
        81        H      tau(  81) = (   0.3254704   0.4269259   0.6724666  )
        82        H      tau(  82) = (   0.8254704   0.4269259   0.6724666  )
        83        H      tau(  83) = (   0.2447352   0.0128545   0.2939423  )
        84        H      tau(  84) = (   0.7447351   0.0128545   0.2939423  )
        85        H      tau(  85) = (   0.0811823   0.0128545   0.6677677  )
        86        H      tau(  86) = (   0.5811823   0.0128545   0.6677677  )
        87        Fe1    tau(  87) = (  -0.0870414   0.2919251   0.4808550  )
        88        Fe2    tau(  88) = (   0.4129586   0.2919251   0.4808550  )

     --------------------------------------------
     DFT-D3 Dispersion Correction (3-body terms):
     --------------------------------------------
       Reference C6 values for interpolation: 

         atom   Coordination number   C6
         H          0.912             6.05
         H          0.000            15.18
         O          0.000            31.01
         O          0.993            25.63
         O          1.989            20.74
         Mg         0.000          1366.75
         Mg         0.963           902.54
         Mg         1.950           351.12
         Al         0.000          1081.08
         Al         0.965           875.51
         Al         1.931           513.50
         Al         2.915           307.19
         Si         0.000           635.71
         Si         0.951           540.53
         Si         1.944           466.25
         Si         2.941           443.01
         Si         3.868           299.55
         K          0.000          9967.00
         K          0.977           676.04
         Fe1        0.000           982.67
         Fe1        1.648           409.99
         Fe1        9.138           219.01
         Fe2        0.000           982.67
         Fe2        1.648           409.99
         Fe2        9.138           219.01

       Values used:

         atom   Coordination number  R0_AB[au]  C6      C8
         K         11.877            4.007    676.04 129074.98
         K         11.877            4.007    676.04 129074.98
         K         12.270            4.007    676.04 129074.98
         K         12.270            4.007    676.04 129074.98
         Mg        11.314            3.292    351.12  31436.69
         Mg        11.314            3.292    351.12  31436.69
         Mg        11.299            3.292    351.12  31436.69
         Mg        11.299            3.292    351.12  31436.69
         Mg        11.204            3.292    351.12  31436.69
         Mg        11.204            3.292    351.12  31436.69
         Mg        11.573            3.292    351.12  31436.69
         Mg        11.573            3.292    351.12  31436.69
         Mg        11.383            3.292    351.12  31436.69
         Mg        11.383            3.292    351.12  31436.69
         Si         6.519            3.583    299.55  21425.58
         Si         6.519            3.583    299.55  21425.58
         Si         6.519            3.583    299.55  21425.58
         Si         6.519            3.583    299.55  21425.58
         Si         6.299            3.583    299.55  21425.58
         Si         6.299            3.583    299.55  21425.58
         Si         6.299            3.583    299.55  21425.58
         Si         6.299            3.583    299.55  21425.58
         Si         6.332            3.583    299.55  21425.58
         Si         6.332            3.583    299.55  21425.58
         Si         6.332            3.583    299.55  21425.58
         Si         6.332            3.583    299.55  21425.58
         Al         7.195            3.789    307.19  29441.29
         Al         7.195            3.789    307.19  29441.29
         Al         7.195            3.789    307.19  29441.29
         Al         7.195            3.789    307.19  29441.29
         O          3.463            2.345     20.74    418.58
         O          3.463            2.345     20.74    418.58
         O          3.463            2.345     20.74    418.58
         O          3.463            2.345     20.74    418.58
         O          3.908            2.345     20.74    418.58
         O          3.908            2.345     20.74    418.58
         O          3.908            2.345     20.74    418.58
         O          3.908            2.345     20.74    418.58
         O          3.897            2.345     20.74    418.58
         O          3.897            2.345     20.74    418.58
         O          3.897            2.345     20.74    418.58
         O          3.897            2.345     20.74    418.58
         O          3.833            2.345     20.74    418.58
         O          3.833            2.345     20.74    418.58
         O          3.833            2.345     20.74    418.58
         O          3.833            2.345     20.74    418.58
         O          3.114            2.345     20.74    418.58
         O          3.114            2.345     20.74    418.58
         O          3.114            2.345     20.74    418.58
         O          3.114            2.345     20.74    418.58
         O          3.077            2.345     20.74    418.58
         O          3.077            2.345     20.74    418.58
         O          3.077            2.345     20.74    418.58
         O          3.077            2.345     20.74    418.58
         O          2.927            2.345     20.74    418.58
         O          2.927            2.345     20.74    418.58
         O          2.927            2.345     20.74    418.58
         O          2.927            2.345     20.74    418.58
         O          2.924            2.345     20.74    418.58
         O          2.924            2.345     20.74    418.58
         O          2.924            2.345     20.74    418.58
         O          2.924            2.345     20.74    418.58
         O          3.084            2.345     20.74    418.58
         O          3.084            2.345     20.74    418.58
         O          3.084            2.345     20.74    418.58
         O          3.084            2.345     20.74    418.58
         O          3.139            2.345     20.74    418.58
         O          3.139            2.345     20.74    418.58
         O          3.139            2.345     20.74    418.58
         O          3.139            2.345     20.74    418.58
         O          3.632            2.345     20.74    418.58
         O          3.632            2.345     20.74    418.58
         O          3.632            2.345     20.74    418.58
         O          3.632            2.345     20.74    418.58
         O          3.981            2.345     20.74    418.58
         O          3.981            2.345     20.74    418.58
         O          3.981            2.345     20.74    418.58
         O          3.981            2.345     20.74    418.58
         H          1.231            2.062      6.08     73.47
         H          1.231            2.062      6.08     73.47
         H          1.231            2.062      6.08     73.47
         H          1.231            2.062      6.08     73.47
         H          1.237            2.062      6.08     73.45
         H          1.237            2.062      6.08     73.45
         H          1.237            2.062      6.08     73.45
         H          1.237            2.062      6.08     73.45
         Fe1        7.261            3.252    219.01  20487.87
         Fe2        7.261            3.252    219.01  20487.87

         Molecular C6 ( Ry / a.u.^6 ) =    661236.15


   Crystallographic axes

     site n.     atom                  positions (cryst. coord.)
         1        K      tau(   1) = (  0.0000000  0.4939509  0.0000000  )
         2        K      tau(   2) = (  0.5000000  0.4939509  0.0000000  )
         3        K      tau(   3) = (  0.2500001  0.0028168  0.0000000  )
         4        K      tau(   4) = (  0.7500001  0.0028168  0.0000000  )
         5        Mg     tau(   5) = (  0.0000000  0.0063553  0.4999999  )
         6        Mg     tau(   6) = (  0.5000000  0.0063553  0.4999999  )
         7        Mg     tau(   7) = (  0.0000000  0.6669664  0.4999999  )
         8        Mg     tau(   8) = (  0.5000000  0.6669664  0.4999999  )
         9        Mg     tau(   9) = (  0.2500001  0.4956248  0.4999999  )
        10        Mg     tau(  10) = (  0.7500001  0.4956248  0.4999999  )
        11        Mg     tau(  11) = (  0.2500001  0.8357430  0.4999999  )
        12        Mg     tau(  12) = (  0.7500001  0.8357430  0.4999999  )
        13        Mg     tau(  13) = (  0.2500001  0.1704514  0.4999999  )
        14        Mg     tau(  14) = (  0.7500001  0.1704514  0.4999999  )
        15        Si     tau(  15) = (  0.0466201  0.1632694  0.2251086  )
        16        Si     tau(  16) = (  0.5466201  0.1632694  0.2251086  )
        17        Si     tau(  17) = (  0.4533802  0.1632694  0.7748913  )
        18        Si     tau(  18) = (  0.9533802  0.1632694  0.7748913  )
        19        Si     tau(  19) = (  0.4667052  0.8344337  0.7671314  )
        20        Si     tau(  20) = (  0.9667052  0.8344337  0.7671314  )
        21        Si     tau(  21) = (  0.0332951  0.8344337  0.2328685  )
        22        Si     tau(  22) = (  0.5332951  0.8344337  0.2328685  )
        23        Si     tau(  23) = (  0.2830564  0.6664404  0.2314402  )
        24        Si     tau(  24) = (  0.7830564  0.6664404  0.2314402  )
        25        Si     tau(  25) = (  0.2169439  0.6664404  0.7685596  )
        26        Si     tau(  26) = (  0.7169439  0.6664404  0.7685596  )
        27        Al     tau(  27) = (  0.2026479  0.3306063  0.7720665  )
        28        Al     tau(  28) = (  0.7026479  0.3306063  0.7720665  )
        29        Al     tau(  29) = (  0.2973525  0.3306063  0.2279334  )
        30        Al     tau(  30) = (  0.7973524  0.3306063  0.2279334  )
        31        O      tau(  31) = (  0.0685997  0.1576232  0.3840956  )
        32        O      tau(  32) = (  0.5685996  0.1576232  0.3840956  )
        33        O      tau(  33) = (  0.4314007  0.1576232  0.6159044  )
        34        O      tau(  34) = (  0.9314007  0.1576232  0.6159044  )
        35        O      tau(  35) = (  0.4370030  0.8347753  0.6089946  )
        36        O      tau(  36) = (  0.9370030  0.8347753  0.6089946  )
        37        O      tau(  37) = (  0.0629973  0.8347753  0.3910053  )
        38        O      tau(  38) = (  0.5629973  0.8347753  0.3910053  )
        39        O      tau(  39) = (  0.3136107  0.6695885  0.3903406  )
        40        O      tau(  40) = (  0.8136107  0.6695885  0.3903406  )
        41        O      tau(  41) = (  0.1863896  0.6695885  0.6096593  )
        42        O      tau(  42) = (  0.6863896  0.6695885  0.6096593  )
        43        O      tau(  43) = (  0.1796070  0.3332018  0.6015063  )
        44        O      tau(  44) = (  0.6796070  0.3332018  0.6015063  )
        45        O      tau(  45) = (  0.3203934  0.3332018  0.3984935  )
        46        O      tau(  46) = (  0.8203933  0.3332018  0.3984935  )
        47        O      tau(  47) = (  0.1758320  0.2041259  0.1691474  )
        48        O      tau(  48) = (  0.6758320  0.2041259  0.1691474  )
        49        O      tau(  49) = (  0.3241684  0.2041259  0.8308524  )
        50        O      tau(  50) = (  0.8241683  0.2041259  0.8308524  )
        51        O      tau(  51) = (  0.0044672  0.9965371  0.1695325  )
        52        O      tau(  52) = (  0.5044672  0.9965371  0.1695325  )
        53        O      tau(  53) = (  0.4955331  0.9965371  0.8304673  )
        54        O      tau(  54) = (  0.9955331  0.9965371  0.8304673  )
        55        O      tau(  55) = (  0.3439404  0.7683221  0.8259019  )
        56        O      tau(  56) = (  0.8439404  0.7683221  0.8259019  )
        57        O      tau(  57) = (  0.1560599  0.7683221  0.1740980  )
        58        O      tau(  58) = (  0.6560599  0.7683221  0.1740980  )
        59        O      tau(  59) = (  0.4052421  0.7382420  0.1731385  )
        60        O      tau(  60) = (  0.9052421  0.7382420  0.1731385  )
        61        O      tau(  61) = (  0.0947582  0.7382420  0.8268614  )
        62        O      tau(  62) = (  0.5947582  0.7382420  0.8268614  )
        63        O      tau(  63) = (  0.2559565  0.5072872  0.1678532  )
        64        O      tau(  64) = (  0.7559565  0.5072872  0.1678532  )
        65        O      tau(  65) = (  0.2440438  0.5072872  0.8321466  )
        66        O      tau(  66) = (  0.7440438  0.5072872  0.8321466  )
        67        O      tau(  67) = (  0.0667992  0.2750120  0.8351769  )
        68        O      tau(  68) = (  0.5667992  0.2750120  0.8351769  )
        69        O      tau(  69) = (  0.4332011  0.2750120  0.1648230  )
        70        O      tau(  70) = (  0.9332011  0.2750120  0.1648230  )
        71        O      tau(  71) = (  0.0684395  0.5116246  0.3931678  )
        72        O      tau(  72) = (  0.5684395  0.5116246  0.3931678  )
        73        O      tau(  73) = (  0.4315608  0.5116246  0.6068321  )
        74        O      tau(  74) = (  0.9315608  0.5116246  0.6068321  )
        75        O      tau(  75) = (  0.3173051  0.9995306  0.3989219  )
        76        O      tau(  76) = (  0.8173051  0.9995306  0.3989219  )
        77        O      tau(  77) = (  0.1826953  0.9995306  0.6010780  )
        78        O      tau(  78) = (  0.6826953  0.9995306  0.6010780  )
        79        H      tau(  79) = (  0.0528041  0.4908318  0.3007595  )
        80        H      tau(  80) = (  0.5528042  0.4908318  0.3007595  )
        81        H      tau(  81) = (  0.4471962  0.4908318  0.6992404  )
        82        H      tau(  82) = (  0.9471962  0.4908318  0.6992404  )
        83        H      tau(  83) = (  0.2979428  0.0147786  0.3056454  )
        84        H      tau(  84) = (  0.7979428  0.0147786  0.3056454  )
        85        H      tau(  85) = (  0.2020575  0.0147786  0.6943545  )
        86        H      tau(  86) = (  0.7020575  0.0147786  0.6943545  )
        87        Fe1    tau(  87) = (  0.0000000  0.3356230  0.4999999  )
        88        Fe2    tau(  88) = (  0.5000000  0.3356230  0.4999999  )

     number of k points=    10  Gaussian smearing, width (Ry)=  0.0010
                       cart. coord. in units 2pi/alat
        k(    1) = (   0.0000000   0.0000000   0.0000000), wk =   0.0370370
        k(    2) = (   0.0000000   0.0000000   0.3466048), wk =   0.0740741
        k(    3) = (   0.0000000   0.3832295   0.0000000), wk =   0.0740741
        k(    4) = (   0.0000000   0.3832295   0.3466048), wk =   0.1481481
        k(    5) = (   0.3333333   0.0000000   0.0603380), wk =   0.0740741
        k(    6) = (   0.3333333   0.0000000   0.4069428), wk =   0.0740741
        k(    7) = (   0.3333333   0.0000000  -0.2862669), wk =   0.0740741
        k(    8) = (   0.3333333   0.3832295   0.0603380), wk =   0.1481481
        k(    9) = (   0.3333333   0.3832295   0.4069428), wk =   0.1481481
        k(   10) = (   0.3333333   0.3832295  -0.2862669), wk =   0.1481481

                       cryst. coord.
        k(    1) = (   0.0000000   0.0000000   0.0000000), wk =   0.0370370
        k(    2) = (   0.0000000   0.0000000   0.3333333), wk =   0.0740741
        k(    3) = (   0.0000000   0.3333333   0.0000000), wk =   0.0740741
        k(    4) = (   0.0000000   0.3333333   0.3333333), wk =   0.1481481
        k(    5) = (   0.3333333   0.0000000   0.0000000), wk =   0.0740741
        k(    6) = (   0.3333333   0.0000000   0.3333333), wk =   0.0740741
        k(    7) = (   0.3333333   0.0000000  -0.3333333), wk =   0.0740741
        k(    8) = (   0.3333333   0.3333333   0.0000000), wk =   0.1481481
        k(    9) = (   0.3333333   0.3333333   0.3333333), wk =   0.1481481
        k(   10) = (   0.3333333   0.3333333  -0.3333333), wk =   0.1481481

     Dense  grid:  1212455 G-vectors     FFT dimensions: ( 144, 125, 144)

     Smooth grid:   428701 G-vectors     FFT dimensions: ( 100,  90, 100)

     Dynamical RAM for                 wfc:      42.80 MB

     Dynamical RAM for     wfc (w. buffer):     898.71 MB

     Dynamical RAM for           str. fact:      24.67 MB

     Dynamical RAM for           local pot:       0.00 MB

     Dynamical RAM for          nlocal pot:     119.39 MB

     Dynamical RAM for                qrad:      28.13 MB

     Dynamical RAM for          rho,v,vnew:      38.28 MB

     Dynamical RAM for               rhoin:      12.76 MB

     Dynamical RAM for            rho*nmix:      98.67 MB

     Dynamical RAM for           G-vectors:      12.11 MB

     Dynamical RAM for          h,s,v(r/c):       4.51 MB

     Dynamical RAM for          <psi|beta>:       4.20 MB

     Dynamical RAM for                 psi:      85.59 MB

     Dynamical RAM for                hpsi:      85.59 MB

     Dynamical RAM for                spsi:      85.59 MB

     Dynamical RAM for      wfcinit/wfcrot:      87.85 MB

     Dynamical RAM for           addusdens:     724.61 MB

     Dynamical RAM for          addusforce:    1014.83 MB

     Dynamical RAM for         addusstress:     624.40 MB

     Estimated static dynamical RAM per process >       1.15 GB

     Estimated max dynamical RAM per process >       2.24 GB

     Estimated total dynamical RAM >      13.45 GB

     Atomic positions and unit cell read from directory:
     ./temp/phl-fe1-fe2x2.save/
     Atomic positions from file used, from input discarded


     Check: negative core charge=   -0.000004
     Generating pointlists ...
     new r_m :   0.0677 (alat units)  1.3628 (a.u.) for type    1
     new r_m :   0.0781 (alat units)  1.5717 (a.u.) for type    2
     new r_m :   0.0781 (alat units)  1.5716 (a.u.) for type    3
     new r_m :   0.0374 (alat units)  0.7532 (a.u.) for type    4
     new r_m :   0.1076 (alat units)  2.1661 (a.u.) for type    5
     new r_m :   0.0787 (alat units)  1.5837 (a.u.) for type    6
     new r_m :   0.0374 (alat units)  0.7532 (a.u.) for type    7
     new r_m :   0.0627 (alat units)  1.2633 (a.u.) for type    8

     The initial density is read from file :
     ./temp/phl-fe1-fe2x2.save/charge-density


     starting charge     524.0236, renormalised to     524.0000

     negative rho (up, down):  0.000E+00 7.614E-04
     Cannot read wfcs: file not found
     Starting wfcs are  366 randomized atomic wfcs
     Checking if some PAW data can be deallocated... 
       PAW data deallocated on    5 nodes for type:  1
       PAW data deallocated on    5 nodes for type:  2
       PAW data deallocated on    5 nodes for type:  3
       PAW data deallocated on    5 nodes for type:  4
       PAW data deallocated on    5 nodes for type:  5
       PAW data deallocated on    5 nodes for type:  6
       PAW data deallocated on    2 nodes for type:  7
       PAW data deallocated on    4 nodes for type:  8

     total cpu time spent up to now is      616.7 secs

     Self-consistent Calculation

     iteration #  1     ecut=    60.00 Ry     beta= 0.70
     Davidson diagonalization with overlap

---- Real-time Memory Report at c_bands before calling an iterative solver
          1301 MiB given to the printing process from OS
             0 MiB allocation reported by mallinfo(arena+hblkhd)
          5594 MiB available memory on the node where the printing process lives
------------------
     c_bands:  5 eigenvalues not converged
     c_bands:  3 eigenvalues not converged
     c_bands:  3 eigenvalues not converged
     c_bands:  4 eigenvalues not converged
     c_bands:  2 eigenvalues not converged
     c_bands:  2 eigenvalues not converged
     c_bands:  3 eigenvalues not converged
     c_bands:  4 eigenvalues not converged
     c_bands:  4 eigenvalues not converged
     c_bands:  3 eigenvalues not converged
     c_bands:  3 eigenvalues not converged
     c_bands:  4 eigenvalues not converged
     c_bands:  3 eigenvalues not converged
     c_bands:  5 eigenvalues not converged
     c_bands:  1 eigenvalues not converged
     c_bands:  3 eigenvalues not converged
     c_bands:  4 eigenvalues not converged
     c_bands:  5 eigenvalues not converged
     c_bands:  2 eigenvalues not converged
     ethr =  1.00E-05,  avg # of iterations = 40.0

     Threshold (ethr) on eigenvalues was too large:
     Diagonalizing with lowered threshold

     Davidson diagonalization with overlap

---- Real-time Memory Report at c_bands before calling an iterative solver
          1881 MiB given to the printing process from OS
             0 MiB allocation reported by mallinfo(arena+hblkhd)
          4598 MiB available memory on the node where the printing process lives
------------------
     c_bands:  2 eigenvalues not converged
     c_bands:  1 eigenvalues not converged
     c_bands:  1 eigenvalues not converged
     c_bands:  1 eigenvalues not converged
     c_bands:  1 eigenvalues not converged
     ethr =  9.35E-07,  avg # of iterations =  7.2

     negative rho (up, down):  0.000E+00 7.607E-04

     total cpu time spent up to now is    18735.8 secs

     total energy              =   -5262.52754876 Ry
     estimated scf accuracy    <       0.00490115 Ry

     total magnetization       =     8.00 Bohr mag/cell
     absolute magnetization    =     8.09 Bohr mag/cell

     iteration #  2     ecut=    60.00 Ry     beta= 0.70
     Davidson diagonalization with overlap

---- Real-time Memory Report at c_bands before calling an iterative solver
          1906 MiB given to the printing process from OS
             0 MiB allocation reported by mallinfo(arena+hblkhd)
          4151 MiB available memory on the node where the printing process lives
------------------
     c_bands:  2 eigenvalues not converged
     c_bands:  1 eigenvalues not converged
     c_bands:  1 eigenvalues not converged
     c_bands:  3 eigenvalues not converged
     c_bands:  2 eigenvalues not converged
     c_bands:  2 eigenvalues not converged
     c_bands:  2 eigenvalues not converged
     c_bands:  3 eigenvalues not converged
     c_bands:  2 eigenvalues not converged
     ethr =  9.35E-07,  avg # of iterations = 15.8

     negative rho (up, down):  0.000E+00 7.625E-04

     total cpu time spent up to now is    20898.3 secs

     total energy              =   -5262.52855495 Ry
     estimated scf accuracy    <       0.00055870 Ry

     total magnetization       =     8.00 Bohr mag/cell
     absolute magnetization    =     8.09 Bohr mag/cell

     iteration #  3     ecut=    60.00 Ry     beta= 0.70
     Davidson diagonalization with overlap

---- Real-time Memory Report at c_bands before calling an iterative solver
          1910 MiB given to the printing process from OS
             0 MiB allocation reported by mallinfo(arena+hblkhd)
          4055 MiB available memory on the node where the printing process lives
------------------
     c_bands:  1 eigenvalues not converged
     ethr =  1.07E-07,  avg # of iterations =  7.5

     negative rho (up, down):  0.000E+00 7.609E-04

     total cpu time spent up to now is    23563.4 secs

     total energy              =   -5262.52890361 Ry
     estimated scf accuracy    <       0.00016428 Ry

     total magnetization       =     8.00 Bohr mag/cell
     absolute magnetization    =     8.09 Bohr mag/cell

     iteration #  4     ecut=    60.00 Ry     beta= 0.70
     Davidson diagonalization with overlap

---- Real-time Memory Report at c_bands before calling an iterative solver
          1915 MiB given to the printing process from OS
             0 MiB allocation reported by mallinfo(arena+hblkhd)
          3896 MiB available memory on the node where the printing process lives
------------------
     ethr =  3.14E-08,  avg # of iterations =  5.8

     negative rho (up, down):  0.000E+00 7.617E-04

     total cpu time spent up to now is    26143.2 secs

     total energy              =   -5262.52900175 Ry
     estimated scf accuracy    <       0.00002230 Ry

     total magnetization       =     8.00 Bohr mag/cell
     absolute magnetization    =     8.09 Bohr mag/cell

     iteration #  5     ecut=    60.00 Ry     beta= 0.70
     Davidson diagonalization with overlap

---- Real-time Memory Report at c_bands before calling an iterative solver
          1920 MiB given to the printing process from OS
             0 MiB allocation reported by mallinfo(arena+hblkhd)
          4223 MiB available memory on the node where the printing process lives
------------------
     ethr =  4.26E-09,  avg # of iterations =  7.0

     negative rho (up, down):  0.000E+00 7.615E-04

     total cpu time spent up to now is    29440.4 secs

     total energy              =   -5262.52901880 Ry
     estimated scf accuracy    <       0.00000494 Ry

     total magnetization       =     8.00 Bohr mag/cell
     absolute magnetization    =     8.09 Bohr mag/cell

     iteration #  6     ecut=    60.00 Ry     beta= 0.70
     Davidson diagonalization with overlap

---- Real-time Memory Report at c_bands before calling an iterative solver
          1925 MiB given to the printing process from OS
             0 MiB allocation reported by mallinfo(arena+hblkhd)
          3383 MiB available memory on the node where the printing process lives
------------------
     ethr =  9.42E-10,  avg # of iterations =  5.7

     negative rho (up, down):  0.000E+00 7.617E-04

     Magnetic moment per site  (integrated on atomic sphere of radius R)
     atom   1 (R=0.108)  charge=  7.5435  magn=  0.0000
     atom   2 (R=0.108)  charge=  7.5435  magn=  0.0000
     atom   3 (R=0.108)  charge=  7.5474  magn=  0.0001
     atom   4 (R=0.108)  charge=  7.5474  magn=  0.0001
     atom   5 (R=0.079)  charge=  8.1105  magn= -0.0002
     atom   6 (R=0.079)  charge=  8.1105  magn= -0.0002
     atom   7 (R=0.079)  charge=  8.1071  magn= -0.0000
     atom   8 (R=0.079)  charge=  8.1071  magn= -0.0000
     atom   9 (R=0.079)  charge=  8.1097  magn=  0.0007
     atom  10 (R=0.079)  charge=  8.1097  magn=  0.0007
     atom  11 (R=0.079)  charge=  8.1059  magn= -0.0000
     atom  12 (R=0.079)  charge=  8.1059  magn= -0.0000
     atom  13 (R=0.079)  charge=  8.1129  magn=  0.0006
     atom  14 (R=0.079)  charge=  8.1129  magn=  0.0006
     atom  15 (R=0.063)  charge=  0.5511  magn=  0.0008
     atom  16 (R=0.063)  charge=  0.5511  magn=  0.0008
     atom  17 (R=0.063)  charge=  0.5511  magn=  0.0008
     atom  18 (R=0.063)  charge=  0.5511  magn=  0.0008
     atom  19 (R=0.063)  charge=  0.5436  magn= -0.0000
     atom  20 (R=0.063)  charge=  0.5436  magn= -0.0000
     atom  21 (R=0.063)  charge=  0.5436  magn= -0.0000
     atom  22 (R=0.063)  charge=  0.5436  magn= -0.0000
     atom  23 (R=0.063)  charge=  0.5432  magn=  0.0000
     atom  24 (R=0.063)  charge=  0.5432  magn=  0.0000
     atom  25 (R=0.063)  charge=  0.5432  magn=  0.0000
     atom  26 (R=0.063)  charge=  0.5432  magn=  0.0000
     atom  27 (R=0.068)  charge=  0.3429  magn=  0.0014
     atom  28 (R=0.068)  charge=  0.3429  magn=  0.0014
     atom  29 (R=0.068)  charge=  0.3429  magn=  0.0014
     atom  30 (R=0.068)  charge=  0.3429  magn=  0.0014
     atom  31 (R=0.037)  charge=  1.9380  magn=  0.0156
     atom  32 (R=0.037)  charge=  1.9380  magn=  0.0156
     atom  33 (R=0.037)  charge=  1.9380  magn=  0.0156
     atom  34 (R=0.037)  charge=  1.9380  magn=  0.0156
     atom  35 (R=0.037)  charge=  1.9413  magn=  0.0004
     atom  36 (R=0.037)  charge=  1.9413  magn=  0.0004
     atom  37 (R=0.037)  charge=  1.9413  magn=  0.0004
     atom  38 (R=0.037)  charge=  1.9413  magn=  0.0004
     atom  39 (R=0.037)  charge=  1.9406  magn=  0.0004
     atom  40 (R=0.037)  charge=  1.9406  magn=  0.0004
     atom  41 (R=0.037)  charge=  1.9406  magn=  0.0004
     atom  42 (R=0.037)  charge=  1.9406  magn=  0.0004
     atom  43 (R=0.037)  charge=  1.9326  magn=  0.0276
     atom  44 (R=0.037)  charge=  1.9326  magn=  0.0276
     atom  45 (R=0.037)  charge=  1.9326  magn=  0.0276
     atom  46 (R=0.037)  charge=  1.9326  magn=  0.0276
     atom  47 (R=0.037)  charge=  1.9413  magn=  0.0009
     atom  48 (R=0.037)  charge=  1.9413  magn=  0.0009
     atom  49 (R=0.037)  charge=  1.9413  magn=  0.0009
     atom  50 (R=0.037)  charge=  1.9413  magn=  0.0009
     atom  51 (R=0.037)  charge=  1.9445  magn=  0.0008
     atom  52 (R=0.037)  charge=  1.9445  magn=  0.0008
     atom  53 (R=0.037)  charge=  1.9445  magn=  0.0008
     atom  54 (R=0.037)  charge=  1.9445  magn=  0.0008
     atom  55 (R=0.037)  charge=  1.9465  magn=  0.0001
     atom  56 (R=0.037)  charge=  1.9465  magn=  0.0001
     atom  57 (R=0.037)  charge=  1.9465  magn=  0.0001
     atom  58 (R=0.037)  charge=  1.9465  magn=  0.0001
     atom  59 (R=0.037)  charge=  1.9469  magn=  0.0002
     atom  60 (R=0.037)  charge=  1.9469  magn=  0.0002
     atom  61 (R=0.037)  charge=  1.9469  magn=  0.0002
     atom  62 (R=0.037)  charge=  1.9469  magn=  0.0002
     atom  63 (R=0.037)  charge=  1.9398  magn=  0.0005
     atom  64 (R=0.037)  charge=  1.9398  magn=  0.0005
     atom  65 (R=0.037)  charge=  1.9398  magn=  0.0005
     atom  66 (R=0.037)  charge=  1.9398  magn=  0.0005
     atom  67 (R=0.037)  charge=  1.9415  magn= -0.0000
     atom  68 (R=0.037)  charge=  1.9416  magn= -0.0000
     atom  69 (R=0.037)  charge=  1.9416  magn= -0.0000
     atom  70 (R=0.037)  charge=  1.9415  magn= -0.0000
     atom  71 (R=0.037)  charge=  1.9384  magn=  0.0210
     atom  72 (R=0.037)  charge=  1.9384  magn=  0.0210
     atom  73 (R=0.037)  charge=  1.9384  magn=  0.0210
     atom  74 (R=0.037)  charge=  1.9384  magn=  0.0210
     atom  75 (R=0.037)  charge=  1.9433  magn=  0.0003
     atom  76 (R=0.037)  charge=  1.9433  magn=  0.0003
     atom  77 (R=0.037)  charge=  1.9433  magn=  0.0003
     atom  78 (R=0.037)  charge=  1.9433  magn=  0.0003
     atom  79 (R=0.037)  charge=  0.3999  magn=  0.0001
     atom  80 (R=0.037)  charge=  0.3999  magn=  0.0001
     atom  81 (R=0.037)  charge=  0.3999  magn=  0.0001
     atom  82 (R=0.037)  charge=  0.3999  magn=  0.0001
     atom  83 (R=0.037)  charge=  0.4003  magn=  0.0000
     atom  84 (R=0.037)  charge=  0.4003  magn=  0.0000
     atom  85 (R=0.037)  charge=  0.4003  magn=  0.0000
     atom  86 (R=0.037)  charge=  0.4003  magn=  0.0000
     atom  87 (R=0.078)  charge= 13.2616  magn=  3.2770
     atom  88 (R=0.078)  charge= 13.2613  magn=  3.2769

     total cpu time spent up to now is    32016.8 secs

     End of self-consistent calculation

 ------ SPIN UP ------------


          k = 0.0000 0.0000 0.0000 ( 53617 PWs)   bands (ev):

   -81.5308 -81.5302 -67.8876 -67.8875 -67.8609 -67.8605 -67.6747 -67.6746
   -67.5367 -67.5367 -67.3707 -67.3707 -48.5301 -48.5294 -47.2137 -47.2130
   -47.0169 -47.0163 -34.6563 -34.6549 -34.6393 -34.6358 -34.6313 -34.6285
   -34.6199 -34.6178 -34.6174 -34.6156 -34.5960 -34.5955 -34.4396 -34.4396
   -34.4301 -34.4300 -34.4098 -34.4098 -34.2965 -34.2964 -34.2880 -34.2878
   -34.2806 -34.2805 -34.1338 -34.1336 -34.1207 -34.1205 -34.1134 -34.1132
   -23.4725 -23.4721 -23.4493 -23.4489 -15.2329 -15.1884 -14.8618 -14.8289
   -14.6068 -14.5771 -14.3188 -14.2805 -14.0533 -14.0277 -13.7874 -13.7722
   -13.6214 -13.5099 -13.4408 -13.3481 -13.3204 -13.3131 -13.2288 -13.2187
   -13.1606 -13.1471 -13.1171 -13.1043 -13.0941 -13.0713 -13.0486 -13.0381
   -12.9523 -12.9339 -12.8693 -12.8316 -12.7958 -12.7727 -12.7070 -12.6803
   -12.6462 -12.5988 -12.5319 -12.5124 -12.4493 -12.4030 -12.3502 -12.3308
   -11.7975 -11.7191 -11.5884 -11.5088  -7.0275  -7.0205  -6.9971  -6.9902
    -6.9446  -6.9419  -6.9396  -6.9303  -6.9292  -6.9275  -6.9226  -6.9202
    -4.4908  -4.4496  -3.5285  -3.4702  -3.0257  -2.9645  -2.6232  -2.5407
    -2.0163  -1.9404  -1.8630  -1.5484  -1.5100  -1.4362  -1.3906  -1.3570
    -1.2693  -1.2131  -1.1238  -1.1177  -0.9671  -0.9060  -0.8559  -0.8406
    -0.7753  -0.5909  -0.5540  -0.5157  -0.4581  -0.4146  -0.3699  -0.3146
    -0.2044  -0.1999  -0.1891  -0.1171  -0.0108   0.1728   0.1729   0.2068
     0.2578   0.2918   0.3301   0.3442   0.4609   0.4812   0.4911   0.5497
     0.6937   0.6940   0.7713   0.8282   0.8551   0.8598   0.8834   1.0011
     1.1309   1.1960   1.2433   1.2460   1.2486   1.2589   1.2973   1.3918
     1.4213   1.4642   1.4890   1.5638   1.5827   1.6147   1.6333   1.8363
     1.8686   1.8904   1.8970   1.9121   1.9155   2.0157   2.0160   2.0889
     2.1437   2.1910   2.2559   2.2769   2.2801   2.3737   2.3860   2.3880
     2.4012   2.4184   2.4481   2.4802   2.5279   2.5635   2.5710   2.5809
     2.6174   2.6250   2.6300   2.7077   2.7756   2.7892   2.8019   2.8327
     2.8513   2.8536   2.8796   2.9379   2.9381   2.9592   2.9663   3.0234
     3.0543   3.1099   3.1128   3.1327   3.1573   3.1714   3.1908   3.2086
     3.2137   3.2170   3.2593   3.2970   3.3075   3.3101   3.3377   3.3875
     3.4383   3.4704   3.4988   3.5129   3.5185   3.5987   3.6079   3.6250
     3.6386   3.6669   3.7014   3.7213   3.8407   3.9218   4.0385   4.0806
     4.8902   5.0466   5.0870   5.1845   6.0231   6.0358   6.4801   6.4819
     6.7090   6.7343   8.7239  10.2165  10.6640  10.7671  10.8602  11.1627
    11.2613  11.3827  11.5412  11.5789  11.6041  11.6716  11.8110  12.1047
    12.1060  12.1746  12.2487  12.3366  12.4352  12.6015  12.6261  12.7268
    12.7634  12.7903  12.8128  12.8284  12.9567  13.0006  13.1000  13.1105
    13.1498  13.2211  13.2549  13.3881  13.4330  13.4573  13.4732  13.5169
    13.5348  13.5451  13.5489  13.6395  13.6530  13.6641  13.7094  13.8478
    13.9543  14.0135

     occupation numbers 
     1.0000   1.0000   1.0000   1.0000   1.0000   1.0000   1.0000   1.0000
     1.0000   1.0000   1.0000   1.0000   1.0000   1.0000   1.0000   1.0000
     1.0000   1.0000   1.0000   1.0000   1.0000   1.0000   1.0000   1.0000
     1.0000   1.0000   1.0000   1.0000   1.0000   1.0000   1.0000   1.0000
     1.0000   1.0000   1.0000   1.0000   1.0000   1.0000   1.0000   1.0000
     1.0000   1.0000   1.0000   1.0000   1.0000   1.0000   1.0000   1.0000
     1.0000   1.0000   1.0000   1.0000   1.0000   1.0000   1.0000   1.0000
     1.0000   1.0000   1.0000   1.0000   1.0000   1.0000   1.0000   1.0000
     1.0000   1.0000   1.0000   1.0000   1.0000   1.0000   1.0000   1.0000
     1.0000   1.0000   1.0000   1.0000   1.0000   1.0000   1.0000   1.0000
     1.0000   1.0000   1.0000   1.0000   1.0000   1.0000   1.0000   1.0000
     1.0000   1.0000   1.0000   1.0000   1.0000   1.0000   1.0000   1.0000
     1.0000   1.0000   1.0000   1.0000   1.0000   1.0000   1.0000   1.0000
     1.0000   1.0000   1.0000   1.0000   1.0000   1.0000   1.0000   1.0000
     1.0000   1.0000   1.0000   1.0000   1.0000   1.0000   1.0000   1.0000
     1.0000   1.0000   1.0000   1.0000   1.0000   1.0000   1.0000   1.0000
     1.0000   1.0000   1.0000   1.0000   1.0000   1.0000   1.0000   1.0000
     1.0000   1.0000   1.0000   1.0000   1.0000   1.0000   1.0000   1.0000
     1.0000   1.0000   1.0000   1.0000   1.0000   1.0000   1.0000   1.0000
     1.0000   1.0000   1.0000   1.0000   1.0000   1.0000   1.0000   1.0000
     1.0000   1.0000   1.0000   1.0000   1.0000   1.0000   1.0000   1.0000
     1.0000   1.0000   1.0000   1.0000   1.0000   1.0000   1.0000   1.0000
     1.0000   1.0000   1.0000   1.0000   1.0000   1.0000   1.0000   1.0000
     1.0000   1.0000   1.0000   1.0000   1.0000   1.0000   1.0000   1.0000
     1.0000   1.0000   1.0000   1.0000   1.0000   1.0000   1.0000   1.0000
     1.0000   1.0000   1.0000   1.0000   1.0000   1.0000   1.0000   1.0000
     1.0000   1.0000   1.0000   1.0000   1.0000   1.0000   1.0000   1.0000
     1.0000   1.0000   1.0000   1.0000   1.0000   1.0000   1.0000   1.0000
     1.0000   1.0000   1.0000   1.0000   1.0000   1.0000   1.0000   1.0000
     1.0000   1.0000   1.0000   1.0000   1.0000   1.0000   1.0000   1.0000
     1.0000   1.0000   1.0000   1.0000   1.0000   1.0000   1.0000   1.0000
     1.0000   1.0000   1.0000   1.0000   1.0000   1.0000   1.0000   1.0000
     1.0000   1.0000   1.0000   1.0000   1.0000   1.0000   1.0000   1.0000
     1.0000   1.0000   0.0000   0.0000   0.0000   0.0000   0.0000   0.0000
     0.0000   0.0000   0.0000   0.0000   0.0000   0.0000   0.0000   0.0000
     0.0000   0.0000   0.0000   0.0000   0.0000   0.0000   0.0000   0.0000
     0.0000   0.0000   0.0000   0.0000   0.0000   0.0000   0.0000   0.0000
     0.0000   0.0000   0.0000   0.0000   0.0000   0.0000   0.0000   0.0000
     0.0000   0.0000   0.0000   0.0000   0.0000   0.0000   0.0000   0.0000
     0.0000   0.0000

          k = 0.0000 0.0000 0.3467 ( 53576 PWs)   bands (ev):

   -81.5308 -81.5301 -67.8876 -67.8875 -67.8609 -67.8605 -67.6747 -67.6746
   -67.5367 -67.5367 -67.3707 -67.3707 -48.5301 -48.5294 -47.2137 -47.2130
   -47.0169 -47.0162 -34.6563 -34.6548 -34.6393 -34.6358 -34.6313 -34.6285
   -34.6199 -34.6178 -34.6174 -34.6156 -34.5960 -34.5955 -34.4396 -34.4396
   -34.4301 -34.4300 -34.4098 -34.4098 -34.2965 -34.2963 -34.2880 -34.2878
   -34.2805 -34.2805 -34.1338 -34.1336 -34.1207 -34.1205 -34.1134 -34.1132
   -23.4725 -23.4721 -23.4493 -23.4489 -15.2231 -15.1988 -14.8548 -14.8362
   -14.6001 -14.5839 -14.3095 -14.2903 -14.0501 -14.0310 -13.7877 -13.7718
   -13.6134 -13.5238 -13.4356 -13.3484 -13.3194 -13.3099 -13.2243 -13.2155
   -13.1647 -13.1599 -13.1177 -13.1012 -13.0884 -13.0733 -13.0497 -13.0373
   -12.9513 -12.9296 -12.8680 -12.8343 -12.7940 -12.7803 -12.7024 -12.6681
   -12.6508 -12.6078 -12.5340 -12.5099 -12.4449 -12.3966 -12.3550 -12.3367
   -11.7973 -11.7181 -11.5893 -11.5094  -7.0275  -7.0206  -6.9972  -6.9901
    -6.9446  -6.9419  -6.9396  -6.9303  -6.9292  -6.9274  -6.9225  -6.9202
    -4.4874  -4.4533  -3.5141  -3.4849  -3.0117  -2.9803  -2.6040  -2.5627
    -1.9923  -1.9294  -1.8753  -1.5390  -1.5040  -1.4385  -1.3864  -1.3603
    -1.2666  -1.2256  -1.1233  -1.1083  -0.9513  -0.9096  -0.8634  -0.8203
    -0.7903  -0.6016  -0.5336  -0.5086  -0.4603  -0.4555  -0.3870  -0.3424
    -0.2450  -0.2231  -0.1581  -0.1030  -0.0537   0.1617   0.1637   0.2037
     0.2527   0.2696   0.3260   0.3352   0.4566   0.5090   0.5151   0.5344
     0.7043   0.7335   0.7886   0.8400   0.8595   0.9105   0.9193   0.9605
     1.1230   1.1624   1.1806   1.2621   1.2729   1.2923   1.3604   1.3655
     1.3836   1.4418   1.5518   1.6010   1.6298   1.6317   1.7167   1.8442
     1.8760   1.8915   1.9042   1.9053   1.9258   1.9854   2.0602   2.0754
     2.1221   2.1824   2.2124   2.2477   2.2745   2.2948   2.3080   2.3747
     2.3861   2.4134   2.4562   2.5032   2.5328   2.5375   2.5507   2.5571
     2.5795   2.6471   2.6502   2.7592   2.7801   2.7933   2.7954   2.8402
     2.8446   2.8814   2.8896   2.9239   2.9506   2.9562   2.9953   3.0288
     3.0726   3.1060   3.1296   3.1371   3.1521   3.1668   3.1709   3.2082
     3.2155   3.2249   3.2779   3.2816   3.3056   3.3259   3.3312   3.3860
     3.4017   3.4286   3.4417   3.5209   3.5221   3.5570   3.5906   3.6480
     3.6688   3.6901   3.6941   3.7321   3.8822   3.9259   4.0396   4.0767
     4.8913   5.0506   5.0818   5.1805   6.0229   6.0351   6.4786   6.4821
     6.7118   6.7362   9.0254   9.7344  10.6458  10.8816  10.9610  11.0817
    11.2076  11.3526  11.3727  11.6887  11.6937  11.7293  11.7438  12.1538
    12.1820  12.2017  12.2942  12.3242  12.4372  12.6180  12.6718  12.6935
    12.7819  12.8347  12.8919  12.8981  12.9103  12.9792  13.0226  13.1046
    13.1174  13.1666  13.2951  13.3115  13.3254  13.4367  13.4723  13.4762
    13.5234  13.5519  13.5568  13.6084  13.7301  13.7404  13.7580  13.7974
    13.8995  13.9616

     occupation numbers 
     1.0000   1.0000   1.0000   1.0000   1.0000   1.0000   1.0000   1.0000
     1.0000   1.0000   1.0000   1.0000   1.0000   1.0000   1.0000   1.0000
     1.0000   1.0000   1.0000   1.0000   1.0000   1.0000   1.0000   1.0000
     1.0000   1.0000   1.0000   1.0000   1.0000   1.0000   1.0000   1.0000
     1.0000   1.0000   1.0000   1.0000   1.0000   1.0000   1.0000   1.0000
     1.0000   1.0000   1.0000   1.0000   1.0000   1.0000   1.0000   1.0000
     1.0000   1.0000   1.0000   1.0000   1.0000   1.0000   1.0000   1.0000
     1.0000   1.0000   1.0000   1.0000   1.0000   1.0000   1.0000   1.0000
     1.0000   1.0000   1.0000   1.0000   1.0000   1.0000   1.0000   1.0000
     1.0000   1.0000   1.0000   1.0000   1.0000   1.0000   1.0000   1.0000
     1.0000   1.0000   1.0000   1.0000   1.0000   1.0000   1.0000   1.0000
     1.0000   1.0000   1.0000   1.0000   1.0000   1.0000   1.0000   1.0000
     1.0000   1.0000   1.0000   1.0000   1.0000   1.0000   1.0000   1.0000
     1.0000   1.0000   1.0000   1.0000   1.0000   1.0000   1.0000   1.0000
     1.0000   1.0000   1.0000   1.0000   1.0000   1.0000   1.0000   1.0000
     1.0000   1.0000   1.0000   1.0000   1.0000   1.0000   1.0000   1.0000
     1.0000   1.0000   1.0000   1.0000   1.0000   1.0000   1.0000   1.0000
     1.0000   1.0000   1.0000   1.0000   1.0000   1.0000   1.0000   1.0000
     1.0000   1.0000   1.0000   1.0000   1.0000   1.0000   1.0000   1.0000
     1.0000   1.0000   1.0000   1.0000   1.0000   1.0000   1.0000   1.0000
     1.0000   1.0000   1.0000   1.0000   1.0000   1.0000   1.0000   1.0000
     1.0000   1.0000   1.0000   1.0000   1.0000   1.0000   1.0000   1.0000
     1.0000   1.0000   1.0000   1.0000   1.0000   1.0000   1.0000   1.0000
     1.0000   1.0000   1.0000   1.0000   1.0000   1.0000   1.0000   1.0000
     1.0000   1.0000   1.0000   1.0000   1.0000   1.0000   1.0000   1.0000
     1.0000   1.0000   1.0000   1.0000   1.0000   1.0000   1.0000   1.0000
     1.0000   1.0000   1.0000   1.0000   1.0000   1.0000   1.0000   1.0000
     1.0000   1.0000   1.0000   1.0000   1.0000   1.0000   1.0000   1.0000
     1.0000   1.0000   1.0000   1.0000   1.0000   1.0000   1.0000   1.0000
     1.0000   1.0000   1.0000   1.0000   1.0000   1.0000   1.0000   1.0000
     1.0000   1.0000   1.0000   1.0000   1.0000   1.0000   1.0000   1.0000
     1.0000   1.0000   1.0000   1.0000   1.0000   1.0000   1.0000   1.0000
     1.0000   1.0000   1.0000   1.0000   1.0000   1.0000   1.0000   1.0000
     1.0000   1.0000   0.0000   0.0000   0.0000   0.0000   0.0000   0.0000
     0.0000   0.0000   0.0000   0.0000   0.0000   0.0000   0.0000   0.0000
     0.0000   0.0000   0.0000   0.0000   0.0000   0.0000   0.0000   0.0000
     0.0000   0.0000   0.0000   0.0000   0.0000   0.0000   0.0000   0.0000
     0.0000   0.0000   0.0000   0.0000   0.0000   0.0000   0.0000   0.0000
     0.0000   0.0000   0.0000   0.0000   0.0000   0.0000   0.0000   0.0000
     0.0000   0.0000

          k = 0.0000 0.3834 0.0000 ( 53603 PWs)   bands (ev):

   -81.5308 -81.5302 -67.8876 -67.8875 -67.8609 -67.8605 -67.6747 -67.6746
   -67.5367 -67.5367 -67.3707 -67.3707 -48.5301 -48.5294 -47.2137 -47.2130
   -47.0169 -47.0163 -34.6563 -34.6548 -34.6393 -34.6358 -34.6313 -34.6285
   -34.6199 -34.6178 -34.6174 -34.6156 -34.5960 -34.5955 -34.4396 -34.4396
   -34.4301 -34.4300 -34.4098 -34.4098 -34.2965 -34.2964 -34.2880 -34.2878
   -34.2805 -34.2805 -34.1338 -34.1337 -34.1207 -34.1205 -34.1135 -34.1132
   -23.4725 -23.4721 -23.4494 -23.4489 -15.2276 -15.1834 -14.8608 -14.8276
   -14.6064 -14.5767 -14.3548 -14.3120 -14.0577 -14.0326 -13.7875 -13.7723
   -13.5303 -13.4311 -13.4043 -13.3399 -13.3267 -13.3129 -13.2512 -13.2076
   -13.1643 -13.1532 -13.1508 -13.1283 -13.1147 -13.0943 -13.0815 -13.0608
   -12.9441 -12.9383 -12.8581 -12.8279 -12.8046 -12.7699 -12.6957 -12.6851
   -12.6419 -12.6035 -12.5315 -12.5122 -12.4437 -12.4021 -12.3461 -12.3308
   -11.7956 -11.7190 -11.5886 -11.5082  -7.0282  -7.0190  -6.9974  -6.9919
    -6.9435  -6.9415  -6.9386  -6.9304  -6.9301  -6.9275  -6.9233  -6.9203
    -4.4499  -4.4074  -3.5400  -3.4796  -3.0399  -2.9777  -2.7771  -2.6917
    -1.9588  -1.9147  -1.8401  -1.6190  -1.5057  -1.4212  -1.2632  -1.2598
    -1.1913  -1.1495  -1.1381  -1.1270  -0.9097  -0.8979  -0.8695  -0.8546
    -0.8263  -0.5391  -0.5083  -0.5059  -0.4513  -0.4234  -0.3488  -0.3286
    -0.2885  -0.2171  -0.2140  -0.0589  -0.0040   0.1167   0.1672   0.2032
     0.2823   0.2863   0.3037   0.3048   0.3543   0.4471   0.5028   0.5876
     0.6474   0.6658   0.7287   0.7857   0.8789   0.9575   0.9587   0.9633
     1.1219   1.1220   1.2135   1.2690   1.2860   1.3065   1.3324   1.3591
     1.4362   1.4524   1.4815   1.5092   1.5710   1.6387   1.7306   1.8409
     1.8495   1.8887   1.9155   1.9227   1.9912   2.0991   2.1058   2.1653
     2.1724   2.2016   2.2180   2.2220   2.2275   2.2888   2.3078   2.3443
     2.4005   2.4108   2.4977   2.5233   2.5306   2.5620   2.5744   2.5810
     2.6060   2.6727   2.6831   2.7131   2.7541   2.7605   2.7751   2.7858
     2.8343   2.8782   2.8907   2.8912   2.9228   2.9755   2.9950   3.0330
     3.0575   3.0954   3.1150   3.1600   3.1737   3.1852   3.2021   3.2161
     3.2452   3.2468   3.2777   3.2903   3.2999   3.3317   3.3463   3.3587
     3.3717   3.4293   3.5035   3.5133   3.5257   3.5698   3.5945   3.6555
     3.6667   3.6670   3.6757   3.7632   3.8594   3.8642   3.8709   4.0190
     4.8916   5.0361   5.0864   5.1758   6.0315   6.0422   6.4505   6.4589
     6.7227   6.7475   9.1202  10.0406  10.4627  10.7645  10.9013  11.0393
    11.3384  11.3699  11.4290  11.4466  11.5243  11.8375  11.9944  11.9958
    12.1377  12.1945  12.2407  12.3000  12.3068  12.5146  12.6920  12.6995
    12.7610  12.8371  12.8566  12.9007  12.9665  13.0471  13.0545  13.1342
    13.1470  13.2035  13.2467  13.2960  13.3493  13.3561  13.4103  13.4914
    13.5227  13.6573  13.7247  13.7746  13.8425  13.8528  13.9028  13.9443
    13.9754  13.9828

     occupation numbers 
     1.0000   1.0000   1.0000   1.0000   1.0000   1.0000   1.0000   1.0000
     1.0000   1.0000   1.0000   1.0000   1.0000   1.0000   1.0000   1.0000
     1.0000   1.0000   1.0000   1.0000   1.0000   1.0000   1.0000   1.0000
     1.0000   1.0000   1.0000   1.0000   1.0000   1.0000   1.0000   1.0000
     1.0000   1.0000   1.0000   1.0000   1.0000   1.0000   1.0000   1.0000
     1.0000   1.0000   1.0000   1.0000   1.0000   1.0000   1.0000   1.0000
     1.0000   1.0000   1.0000   1.0000   1.0000   1.0000   1.0000   1.0000
     1.0000   1.0000   1.0000   1.0000   1.0000   1.0000   1.0000   1.0000
     1.0000   1.0000   1.0000   1.0000   1.0000   1.0000   1.0000   1.0000
     1.0000   1.0000   1.0000   1.0000   1.0000   1.0000   1.0000   1.0000
     1.0000   1.0000   1.0000   1.0000   1.0000   1.0000   1.0000   1.0000
     1.0000   1.0000   1.0000   1.0000   1.0000   1.0000   1.0000   1.0000
     1.0000   1.0000   1.0000   1.0000   1.0000   1.0000   1.0000   1.0000
     1.0000   1.0000   1.0000   1.0000   1.0000   1.0000   1.0000   1.0000
     1.0000   1.0000   1.0000   1.0000   1.0000   1.0000   1.0000   1.0000
     1.0000   1.0000   1.0000   1.0000   1.0000   1.0000   1.0000   1.0000
     1.0000   1.0000   1.0000   1.0000   1.0000   1.0000   1.0000   1.0000
     1.0000   1.0000   1.0000   1.0000   1.0000   1.0000   1.0000   1.0000
     1.0000   1.0000   1.0000   1.0000   1.0000   1.0000   1.0000   1.0000
     1.0000   1.0000   1.0000   1.0000   1.0000   1.0000   1.0000   1.0000
     1.0000   1.0000   1.0000   1.0000   1.0000   1.0000   1.0000   1.0000
     1.0000   1.0000   1.0000   1.0000   1.0000   1.0000   1.0000   1.0000
     1.0000   1.0000   1.0000   1.0000   1.0000   1.0000   1.0000   1.0000
     1.0000   1.0000   1.0000   1.0000   1.0000   1.0000   1.0000   1.0000
     1.0000   1.0000   1.0000   1.0000   1.0000   1.0000   1.0000   1.0000
     1.0000   1.0000   1.0000   1.0000   1.0000   1.0000   1.0000   1.0000
     1.0000   1.0000   1.0000   1.0000   1.0000   1.0000   1.0000   1.0000
     1.0000   1.0000   1.0000   1.0000   1.0000   1.0000   1.0000   1.0000
     1.0000   1.0000   1.0000   1.0000   1.0000   1.0000   1.0000   1.0000
     1.0000   1.0000   1.0000   1.0000   1.0000   1.0000   1.0000   1.0000
     1.0000   1.0000   1.0000   1.0000   1.0000   1.0000   1.0000   1.0000
     1.0000   1.0000   1.0000   1.0000   1.0000   1.0000   1.0000   1.0000
     1.0000   1.0000   1.0000   1.0000   1.0000   1.0000   1.0000   1.0000
     1.0000   1.0000   0.0000   0.0000   0.0000   0.0000   0.0000   0.0000
     0.0000   0.0000   0.0000   0.0000   0.0000   0.0000   0.0000   0.0000
     0.0000   0.0000   0.0000   0.0000   0.0000   0.0000   0.0000   0.0000
     0.0000   0.0000   0.0000   0.0000   0.0000   0.0000   0.0000   0.0000
     0.0000   0.0000   0.0000   0.0000   0.0000   0.0000   0.0000   0.0000
     0.0000   0.0000   0.0000   0.0000   0.0000   0.0000   0.0000   0.0000
     0.0000   0.0000

          k = 0.0000 0.3834 0.3467 ( 53607 PWs)   bands (ev):

   -81.5308 -81.5302 -67.8876 -67.8875 -67.8609 -67.8605 -67.6747 -67.6746
   -67.5367 -67.5367 -67.3707 -67.3707 -48.5301 -48.5294 -47.2137 -47.2130
   -47.0169 -47.0162 -34.6563 -34.6548 -34.6393 -34.6358 -34.6313 -34.6285
   -34.6199 -34.6178 -34.6175 -34.6156 -34.5960 -34.5955 -34.4396 -34.4396
   -34.4301 -34.4300 -34.4098 -34.4098 -34.2965 -34.2964 -34.2880 -34.2878
   -34.2805 -34.2805 -34.1338 -34.1337 -34.1207 -34.1205 -34.1135 -34.1132
   -23.4725 -23.4721 -23.4494 -23.4489 -15.2176 -15.1939 -14.8540 -14.8348
   -14.5998 -14.5834 -14.3450 -14.3225 -14.0535 -14.0370 -13.7879 -13.7719
   -13.5249 -13.4278 -13.4166 -13.3405 -13.3192 -13.3113 -13.2473 -13.2096
   -13.1725 -13.1605 -13.1539 -13.1213 -13.1054 -13.0964 -13.0807 -13.0620
   -12.9421 -12.9375 -12.8570 -12.8307 -12.8000 -12.7804 -12.6913 -12.6730
   -12.6464 -12.6120 -12.5338 -12.5097 -12.4390 -12.3959 -12.3508 -12.3366
   -11.7953 -11.7181 -11.5895 -11.5088  -7.0282  -7.0191  -6.9974  -6.9918
    -6.9435  -6.9415  -6.9386  -6.9304  -6.9301  -6.9274  -6.9232  -6.9202
    -4.4440  -4.4136  -3.5254  -3.4947  -3.0255  -2.9938  -2.7570  -2.7137
    -1.9379  -1.9050  -1.8502  -1.6108  -1.5016  -1.4231  -1.2627  -1.2579
    -1.1850  -1.1597  -1.1311  -1.1170  -0.9060  -0.8996  -0.8737  -0.8473
    -0.8323  -0.5712  -0.4946  -0.4793  -0.4453  -0.4220  -0.3981  -0.3582
    -0.2646  -0.2485  -0.2336  -0.0670  -0.0525   0.1274   0.1661   0.1761
     0.2742   0.2745   0.2881   0.3127   0.3560   0.4517   0.5350   0.5818
     0.6417   0.6823   0.7652   0.7958   0.8326   0.9661   1.0085   1.0165
     1.1178   1.1750   1.1792   1.2587   1.2872   1.3239   1.3681   1.3686
     1.3899   1.4410   1.5460   1.5761   1.6100   1.6197   1.7709   1.8181
     1.8580   1.8808   1.9016   1.9267   2.0045   2.0871   2.1275   2.1315
     2.1458   2.1868   2.1917   2.2321   2.2378   2.2390   2.2931   2.3427
     2.3534   2.3970   2.5036   2.5043   2.5250   2.5428   2.5525   2.5817
     2.6037   2.6734   2.6856   2.7226   2.7397   2.7705   2.7817   2.8011
     2.8191   2.8708   2.8962   2.8990   2.9470   2.9706   2.9973   3.0465
     3.0574   3.0891   3.1127   3.1518   3.1729   3.1802   3.2104   3.2345
     3.2549   3.2565   3.2883   3.3045   3.3078   3.3237   3.3339   3.3619
     3.3668   3.4185   3.4428   3.4867   3.5298   3.5576   3.5902   3.6593
     3.6658   3.6661   3.6845   3.7880   3.8620   3.8761   3.9050   4.0211
     4.8928   5.0403   5.0812   5.1710   6.0313   6.0415   6.4467   6.4579
     6.7250   6.7489   9.3844  10.0273  10.2262  10.7277  10.7897  10.9858
    11.2145  11.4256  11.4382  11.4405  11.4697  11.8367  11.9047  11.9431
    12.1774  12.2375  12.3612  12.3774  12.5439  12.6401  12.6921  12.7127
    12.7535  12.8367  12.9194  12.9276  13.0191  13.0755  13.0810  13.1624
    13.1959  13.2167  13.2440  13.3008  13.3789  13.4233  13.4456  13.4549
    13.5511  13.5810  13.6377  13.6882  13.7217  13.7319  13.8209  13.8942
    13.9156  13.9616

     occupation numbers 
     1.0000   1.0000   1.0000   1.0000   1.0000   1.0000   1.0000   1.0000
     1.0000   1.0000   1.0000   1.0000   1.0000   1.0000   1.0000   1.0000
     1.0000   1.0000   1.0000   1.0000   1.0000   1.0000   1.0000   1.0000
     1.0000   1.0000   1.0000   1.0000   1.0000   1.0000   1.0000   1.0000
     1.0000   1.0000   1.0000   1.0000   1.0000   1.0000   1.0000   1.0000
     1.0000   1.0000   1.0000   1.0000   1.0000   1.0000   1.0000   1.0000
     1.0000   1.0000   1.0000   1.0000   1.0000   1.0000   1.0000   1.0000
     1.0000   1.0000   1.0000   1.0000   1.0000   1.0000   1.0000   1.0000
     1.0000   1.0000   1.0000   1.0000   1.0000   1.0000   1.0000   1.0000
     1.0000   1.0000   1.0000   1.0000   1.0000   1.0000   1.0000   1.0000
     1.0000   1.0000   1.0000   1.0000   1.0000   1.0000   1.0000   1.0000
     1.0000   1.0000   1.0000   1.0000   1.0000   1.0000   1.0000   1.0000
     1.0000   1.0000   1.0000   1.0000   1.0000   1.0000   1.0000   1.0000
     1.0000   1.0000   1.0000   1.0000   1.0000   1.0000   1.0000   1.0000
     1.0000   1.0000   1.0000   1.0000   1.0000   1.0000   1.0000   1.0000
     1.0000   1.0000   1.0000   1.0000   1.0000   1.0000   1.0000   1.0000
     1.0000   1.0000   1.0000   1.0000   1.0000   1.0000   1.0000   1.0000
     1.0000   1.0000   1.0000   1.0000   1.0000   1.0000   1.0000   1.0000
     1.0000   1.0000   1.0000   1.0000   1.0000   1.0000   1.0000   1.0000
     1.0000   1.0000   1.0000   1.0000   1.0000   1.0000   1.0000   1.0000
     1.0000   1.0000   1.0000   1.0000   1.0000   1.0000   1.0000   1.0000
     1.0000   1.0000   1.0000   1.0000   1.0000   1.0000   1.0000   1.0000
     1.0000   1.0000   1.0000   1.0000   1.0000   1.0000   1.0000   1.0000
     1.0000   1.0000   1.0000   1.0000   1.0000   1.0000   1.0000   1.0000
     1.0000   1.0000   1.0000   1.0000   1.0000   1.0000   1.0000   1.0000
     1.0000   1.0000   1.0000   1.0000   1.0000   1.0000   1.0000   1.0000
     1.0000   1.0000   1.0000   1.0000   1.0000   1.0000   1.0000   1.0000
     1.0000   1.0000   1.0000   1.0000   1.0000   1.0000   1.0000   1.0000
     1.0000   1.0000   1.0000   1.0000   1.0000   1.0000   1.0000   1.0000
     1.0000   1.0000   1.0000   1.0000   1.0000   1.0000   1.0000   1.0000
     1.0000   1.0000   1.0000   1.0000   1.0000   1.0000   1.0000   1.0000
     1.0000   1.0000   1.0000   1.0000   1.0000   1.0000   1.0000   1.0000
     1.0000   1.0000   1.0000   1.0000   1.0000   1.0000   1.0000   1.0000
     1.0000   1.0000   0.0000   0.0000   0.0000   0.0000   0.0000   0.0000
     0.0000   0.0000   0.0000   0.0000   0.0000   0.0000   0.0000   0.0000
     0.0000   0.0000   0.0000   0.0000   0.0000   0.0000   0.0000   0.0000
     0.0000   0.0000   0.0000   0.0000   0.0000   0.0000   0.0000   0.0000
     0.0000   0.0000   0.0000   0.0000   0.0000   0.0000   0.0000   0.0000
     0.0000   0.0000   0.0000   0.0000   0.0000   0.0000   0.0000   0.0000
     0.0000   0.0000

          k = 0.3334 0.0000 0.0617 ( 53607 PWs)   bands (ev):

   -81.5308 -81.5302 -67.8876 -67.8876 -67.8609 -67.8605 -67.6747 -67.6746
   -67.5367 -67.5367 -67.3707 -67.3707 -48.5301 -48.5294 -47.2137 -47.2130
   -47.0169 -47.0163 -34.6559 -34.6552 -34.6386 -34.6368 -34.6304 -34.6291
   -34.6196 -34.6188 -34.6164 -34.6158 -34.5959 -34.5955 -34.4396 -34.4396
   -34.4301 -34.4300 -34.4098 -34.4098 -34.2965 -34.2964 -34.2879 -34.2879
   -34.2805 -34.2805 -34.1338 -34.1337 -34.1207 -34.1206 -34.1134 -34.1133
   -23.4724 -23.4722 -23.4492 -23.4490 -15.1750 -15.1317 -15.0156 -14.9760
   -14.4500 -14.4217 -14.3345 -14.2999 -14.0310 -14.0045 -13.9086 -13.8851
   -13.5490 -13.4460 -13.4344 -13.3945 -13.3344 -13.2967 -13.2815 -13.2588
   -13.1739 -13.1317 -13.1189 -13.0813 -13.0579 -13.0550 -13.0445 -13.0409
   -12.9318 -12.9273 -12.8538 -12.8384 -12.7760 -12.7322 -12.7237 -12.6645
   -12.6619 -12.5919 -12.5907 -12.5523 -12.4307 -12.4111 -12.3380 -12.3303
   -11.7809 -11.7436 -11.5623 -11.5242  -7.0255  -7.0220  -6.9955  -6.9920
    -6.9440  -6.9427  -6.9373  -6.9327  -6.9289  -6.9280  -6.9219  -6.9208
    -4.3327  -4.2867  -3.9175  -3.8578  -2.7192  -2.6175  -2.5845  -2.5003
    -2.0213  -2.0204  -1.8837  -1.6570  -1.6096  -1.6027  -1.5204  -1.4558
    -1.0880  -1.0670  -1.0303  -1.0264  -0.9615  -0.9248  -0.9069  -0.8664
    -0.7366  -0.6017  -0.5506  -0.5259  -0.4871  -0.4362  -0.3613  -0.3221
    -0.2475  -0.1599  -0.1113  -0.0905  -0.0182   0.0170   0.1593   0.1764
     0.2678   0.2922   0.3713   0.3764   0.4503   0.4542   0.5301   0.5692
     0.6108   0.7465   0.7778   0.8762   0.8858   0.8875   0.9407   0.9832
     1.1154   1.1298   1.2057   1.2124   1.2820   1.3111   1.3390   1.3621
     1.3829   1.4277   1.4707   1.5960   1.6355   1.7118   1.7224   1.7437
     1.8055   1.8259   1.9024   1.9828   1.9963   2.0367   2.0775   2.1340
     2.1443   2.1881   2.2003   2.2318   2.2880   2.3229   2.3610   2.3848
     2.3876   2.4311   2.4508   2.4652   2.4847   2.4988   2.5787   2.6107
     2.6248   2.6625   2.6766   2.6993   2.7142   2.7403   2.8184   2.8188
     2.8710   2.8777   2.9090   2.9234   2.9319   2.9626   2.9962   3.0179
     3.0253   3.0557   3.0765   3.1181   3.1248   3.1655   3.1984   3.1998
     3.2237   3.2683   3.3020   3.3214   3.3451   3.3860   3.3990   3.4308
     3.4556   3.4599   3.4997   3.5171   3.5498   3.5613   3.5778   3.5998
     3.6146   3.6461   3.6507   3.7521   3.7853   3.8602   3.9762   4.0528
     4.9515   5.0444   5.0857   5.1524   6.0263   6.0327   6.4800   6.4810
     6.7113   6.7234   9.0482   9.8268  10.3910  10.8106  10.9449  11.0955
    11.3131  11.5645  11.5774  11.6307  11.7083  11.7948  11.8956  11.9814
    12.1943  12.2751  12.3273  12.3777  12.3849  12.5686  12.6029  12.6489
    12.7520  12.7531  12.8460  12.8528  12.8952  12.9581  13.1507  13.1516
    13.1620  13.1822  13.2400  13.2981  13.3092  13.3396  13.3515  13.3598
    13.4804  13.5728  13.6815  13.6824  13.7399  13.7716  13.8280  13.8783
    13.9870  14.0293

     occupation numbers 
     1.0000   1.0000   1.0000   1.0000   1.0000   1.0000   1.0000   1.0000
     1.0000   1.0000   1.0000   1.0000   1.0000   1.0000   1.0000   1.0000
     1.0000   1.0000   1.0000   1.0000   1.0000   1.0000   1.0000   1.0000
     1.0000   1.0000   1.0000   1.0000   1.0000   1.0000   1.0000   1.0000
     1.0000   1.0000   1.0000   1.0000   1.0000   1.0000   1.0000   1.0000
     1.0000   1.0000   1.0000   1.0000   1.0000   1.0000   1.0000   1.0000
     1.0000   1.0000   1.0000   1.0000   1.0000   1.0000   1.0000   1.0000
     1.0000   1.0000   1.0000   1.0000   1.0000   1.0000   1.0000   1.0000
     1.0000   1.0000   1.0000   1.0000   1.0000   1.0000   1.0000   1.0000
     1.0000   1.0000   1.0000   1.0000   1.0000   1.0000   1.0000   1.0000
     1.0000   1.0000   1.0000   1.0000   1.0000   1.0000   1.0000   1.0000
     1.0000   1.0000   1.0000   1.0000   1.0000   1.0000   1.0000   1.0000
     1.0000   1.0000   1.0000   1.0000   1.0000   1.0000   1.0000   1.0000
     1.0000   1.0000   1.0000   1.0000   1.0000   1.0000   1.0000   1.0000
     1.0000   1.0000   1.0000   1.0000   1.0000   1.0000   1.0000   1.0000
     1.0000   1.0000   1.0000   1.0000   1.0000   1.0000   1.0000   1.0000
     1.0000   1.0000   1.0000   1.0000   1.0000   1.0000   1.0000   1.0000
     1.0000   1.0000   1.0000   1.0000   1.0000   1.0000   1.0000   1.0000
     1.0000   1.0000   1.0000   1.0000   1.0000   1.0000   1.0000   1.0000
     1.0000   1.0000   1.0000   1.0000   1.0000   1.0000   1.0000   1.0000
     1.0000   1.0000   1.0000   1.0000   1.0000   1.0000   1.0000   1.0000
     1.0000   1.0000   1.0000   1.0000   1.0000   1.0000   1.0000   1.0000
     1.0000   1.0000   1.0000   1.0000   1.0000   1.0000   1.0000   1.0000
     1.0000   1.0000   1.0000   1.0000   1.0000   1.0000   1.0000   1.0000
     1.0000   1.0000   1.0000   1.0000   1.0000   1.0000   1.0000   1.0000
     1.0000   1.0000   1.0000   1.0000   1.0000   1.0000   1.0000   1.0000
     1.0000   1.0000   1.0000   1.0000   1.0000   1.0000   1.0000   1.0000
     1.0000   1.0000   1.0000   1.0000   1.0000   1.0000   1.0000   1.0000
     1.0000   1.0000   1.0000   1.0000   1.0000   1.0000   1.0000   1.0000
     1.0000   1.0000   1.0000   1.0000   1.0000   1.0000   1.0000   1.0000
     1.0000   1.0000   1.0000   1.0000   1.0000   1.0000   1.0000   1.0000
     1.0000   1.0000   1.0000   1.0000   1.0000   1.0000   1.0000   1.0000
     1.0000   1.0000   1.0000   1.0000   1.0000   1.0000   1.0000   1.0000
     1.0000   1.0000   0.0000   0.0000   0.0000   0.0000   0.0000   0.0000
     0.0000   0.0000   0.0000   0.0000   0.0000   0.0000   0.0000   0.0000
     0.0000   0.0000   0.0000   0.0000   0.0000   0.0000   0.0000   0.0000
     0.0000   0.0000   0.0000   0.0000   0.0000   0.0000   0.0000   0.0000
     0.0000   0.0000   0.0000   0.0000   0.0000   0.0000   0.0000   0.0000
     0.0000   0.0000   0.0000   0.0000   0.0000   0.0000   0.0000   0.0000
     0.0000   0.0000

          k = 0.3334 0.0000 0.4084 ( 53609 PWs)   bands (ev):

   -81.5308 -81.5302 -67.8876 -67.8876 -67.8609 -67.8605 -67.6747 -67.6746
   -67.5367 -67.5367 -67.3707 -67.3707 -48.5301 -48.5294 -47.2137 -47.2130
   -47.0169 -47.0163 -34.6559 -34.6552 -34.6385 -34.6368 -34.6304 -34.6291
   -34.6196 -34.6188 -34.6165 -34.6157 -34.5959 -34.5955 -34.4396 -34.4396
   -34.4301 -34.4300 -34.4098 -34.4098 -34.2965 -34.2964 -34.2879 -34.2879
   -34.2805 -34.2805 -34.1338 -34.1337 -34.1207 -34.1206 -34.1134 -34.1133
   -23.4724 -23.4722 -23.4492 -23.4490 -15.1626 -15.1448 -15.0114 -14.9804
   -14.4425 -14.4294 -14.3255 -14.3093 -14.0272 -14.0085 -13.9044 -13.8894
   -13.5415 -13.4488 -13.4446 -13.3891 -13.3304 -13.2926 -13.2923 -13.2536
   -13.1726 -13.1312 -13.1171 -13.0817 -13.0713 -13.0561 -13.0436 -13.0321
   -12.9310 -12.9232 -12.8547 -12.8413 -12.7698 -12.7428 -12.7195 -12.6701
   -12.6480 -12.6010 -12.5857 -12.5574 -12.4240 -12.4056 -12.3442 -12.3353
   -11.7804 -11.7429 -11.5629 -11.5250  -7.0256  -7.0220  -6.9955  -6.9919
    -6.9440  -6.9426  -6.9373  -6.9326  -6.9289  -6.9280  -6.9219  -6.9207
    -4.3342  -4.2854  -3.8917  -3.8844  -2.7105  -2.6276  -2.5673  -2.5210
    -2.0099  -1.9952  -1.8965  -1.6867  -1.6039  -1.5792  -1.5095  -1.4534
    -1.0832  -1.0619  -1.0339  -1.0300  -0.9397  -0.9252  -0.9114  -0.8802
    -0.7158  -0.6025  -0.5551  -0.5111  -0.4722  -0.4592  -0.4508  -0.3679
    -0.2439  -0.1298  -0.1156  -0.0779  -0.0625   0.0416   0.1186   0.1237
     0.2855   0.2901   0.3602   0.3795   0.4289   0.4844   0.5379   0.5855
     0.6206   0.7669   0.8126   0.8641   0.8851   0.9131   0.9802   0.9902
     1.1053   1.1055   1.2107   1.2523   1.2571   1.2790   1.3523   1.4109
     1.4186   1.4364   1.4478   1.6084   1.6832   1.7254   1.7392   1.7764
     1.8013   1.8348   1.9649   1.9843   1.9992   2.0479   2.0533   2.0864
     2.1155   2.1478   2.1949   2.2241   2.2428   2.3023   2.3224   2.3470
     2.3639   2.4451   2.4528   2.4747   2.4901   2.5340   2.5468   2.5822
     2.5919   2.6530   2.7108   2.7149   2.7384   2.7468   2.7872   2.8131
     2.8670   2.8869   2.9058   2.9241   2.9565   2.9719   3.0001   3.0429
     3.0503   3.0562   3.0987   3.1037   3.1123   3.1530   3.1928   3.2037
     3.2623   3.2675   3.2909   3.3317   3.3490   3.3492   3.4133   3.4303
     3.4320   3.4327   3.4589   3.4950   3.4993   3.5335   3.5713   3.6163
     3.6308   3.6313   3.7161   3.7583   3.8084   3.8951   3.9840   4.0502
     4.9519   5.0392   5.0892   5.1484   6.0257   6.0323   6.4791   6.4809
     6.7145   6.7234   9.4135   9.8369   9.8600  10.7187  11.0345  11.2099
    11.3401  11.4356  11.4770  11.6837  11.7592  11.8306  11.8818  11.9673
    12.1534  12.2418  12.3129  12.4334  12.4935  12.5650  12.6784  12.7032
    12.7657  12.8095  12.8493  12.9689  12.9994  13.0053  13.0392  13.0776
[...]
     atom   10 type  6   force =     0.00001770    0.00002035    0.00000624
     atom   11 type  6   force =     0.00000109   -0.00000743   -0.00000466
     atom   12 type  6   force =    -0.00000109   -0.00000743    0.00000466
     atom   13 type  6   force =    -0.00002996   -0.00001317   -0.00000116
     atom   14 type  6   force =     0.00002996   -0.00001317    0.00000116
     atom   15 type  8   force =    -0.00000339    0.00000200    0.00000103
     atom   16 type  8   force =     0.00000377   -0.00000332   -0.00000540
     atom   17 type  8   force =    -0.00000377   -0.00000332    0.00000540
     atom   18 type  8   force =     0.00000339    0.00000200   -0.00000103
     atom   19 type  8   force =    -0.00000011   -0.00000252   -0.00000237
     atom   20 type  8   force =    -0.00000004   -0.00000097    0.00000141
     atom   21 type  8   force =     0.00000004   -0.00000097   -0.00000141
     atom   22 type  8   force =     0.00000011   -0.00000252    0.00000237
     atom   23 type  8   force =    -0.00000289   -0.00000022    0.00000325
     atom   24 type  8   force =     0.00000223   -0.00000110    0.00000094
     atom   25 type  8   force =    -0.00000223   -0.00000110   -0.00000094
     atom   26 type  8   force =     0.00000289   -0.00000022   -0.00000325
     atom   27 type  1   force =    -0.00000423    0.00000102    0.00000171
     atom   28 type  1   force =     0.00000510    0.00000318    0.00000985
     atom   29 type  1   force =    -0.00000510    0.00000318   -0.00000985
     atom   30 type  1   force =     0.00000423    0.00000102   -0.00000171
     atom   31 type  7   force =    -0.00000315    0.00000403   -0.00000398
     atom   32 type  7   force =     0.00000870   -0.00001159   -0.00001027
     atom   33 type  7   force =    -0.00000870   -0.00001159    0.00001027
     atom   34 type  7   force =     0.00000315    0.00000403    0.00000398
     atom   35 type  7   force =    -0.00000139   -0.00000798   -0.00000267
     atom   36 type  7   force =    -0.00000141   -0.00000224    0.00000358
     atom   37 type  7   force =     0.00000141   -0.00000224   -0.00000358
     atom   38 type  7   force =     0.00000139   -0.00000798    0.00000267
     atom   39 type  7   force =    -0.00000479    0.00000014    0.00000139
     atom   40 type  7   force =     0.00000066   -0.00000226    0.00000133
     atom   41 type  7   force =    -0.00000066   -0.00000226   -0.00000133
     atom   42 type  7   force =     0.00000479    0.00000014   -0.00000139
     atom   43 type  7   force =    -0.00000975    0.00000392    0.00000283
     atom   44 type  7   force =     0.00003480    0.00001239    0.00002454
     atom   45 type  7   force =    -0.00003480    0.00001239   -0.00002454
     atom   46 type  7   force =     0.00000975    0.00000392   -0.00000283
     atom   47 type  7   force =    -0.00001190    0.00000562    0.00000322
     atom   48 type  7   force =     0.00001269    0.00000180   -0.00000304
     atom   49 type  7   force =    -0.00001269    0.00000180    0.00000304
     atom   50 type  7   force =     0.00001190    0.00000562   -0.00000322
     atom   51 type  7   force =     0.00000012    0.00000228    0.00000076
     atom   52 type  7   force =    -0.00000035   -0.00000804   -0.00000136
     atom   53 type  7   force =     0.00000035   -0.00000804    0.00000136
     atom   54 type  7   force =    -0.00000012    0.00000228   -0.00000076
     atom   55 type  7   force =    -0.00000244   -0.00000248   -0.00000247
     atom   56 type  7   force =     0.00000147   -0.00000361   -0.00000194
     atom   57 type  7   force =    -0.00000147   -0.00000361    0.00000194
     atom   58 type  7   force =     0.00000244   -0.00000248    0.00000247
     atom   59 type  7   force =    -0.00000282   -0.00000152    0.00000255
     atom   60 type  7   force =     0.00000196   -0.00000292    0.00000113
     atom   61 type  7   force =    -0.00000196   -0.00000292   -0.00000113
     atom   62 type  7   force =     0.00000282   -0.00000152   -0.00000255
     atom   63 type  7   force =    -0.00000762    0.00000120    0.00000264
     atom   64 type  7   force =     0.00000720    0.00000108    0.00000254
     atom   65 type  7   force =    -0.00000720    0.00000108   -0.00000254
     atom   66 type  7   force =     0.00000762    0.00000120   -0.00000264
     atom   67 type  7   force =    -0.00000467    0.00000202   -0.00000427
     atom   68 type  7   force =     0.00000755    0.00000535    0.00000933
     atom   69 type  7   force =    -0.00000755    0.00000535   -0.00000933
     atom   70 type  7   force =     0.00000467    0.00000202    0.00000427
     atom   71 type  7   force =     0.00000344   -0.00000029   -0.00000454
     atom   72 type  7   force =     0.00000352    0.00001935   -0.00000069
     atom   73 type  7   force =    -0.00000352    0.00001935    0.00000069
     atom   74 type  7   force =    -0.00000344   -0.00000029    0.00000454
     atom   75 type  7   force =    -0.00000878   -0.00001145   -0.00000137
     atom   76 type  7   force =     0.00000552   -0.00000241    0.00000152
     atom   77 type  7   force =    -0.00000552   -0.00000241   -0.00000152
     atom   78 type  7   force =     0.00000878   -0.00001145    0.00000137
     atom   79 type  4   force =     0.00000028   -0.00000010   -0.00000039
     atom   80 type  4   force =     0.00000036    0.00000247    0.00000326
     atom   81 type  4   force =    -0.00000036    0.00000247   -0.00000326
     atom   82 type  4   force =    -0.00000028   -0.00000010    0.00000039
     atom   83 type  4   force =    -0.00000112   -0.00000141    0.00000029
     atom   84 type  4   force =     0.00000087   -0.00000022   -0.00000020
     atom   85 type  4   force =    -0.00000087   -0.00000022    0.00000020
     atom   86 type  4   force =     0.00000112   -0.00000141   -0.00000029
     atom   87 type  2   force =     0.00000000    0.00000518   -0.00000000
     atom   88 type  3   force =     0.00000000    0.00005023   -0.00000000

     DFT-D3 dispersion contribution to forces:
     atom    1 type  5   force =     0.00000001    0.00118982   -0.00000000
     atom    2 type  5   force =     0.00000001    0.00119015   -0.00000000
     atom    3 type  5   force =     0.00000002   -0.00079326    0.00000012
     atom    4 type  5   force =    -0.00000001   -0.00079326   -0.00000012
     atom    5 type  6   force =    -0.00000001    0.00045028    0.00000000
     atom    6 type  6   force =    -0.00000000    0.00045025    0.00000000
     atom    7 type  6   force =    -0.00000001   -0.00130795   -0.00000000
     atom    8 type  6   force =    -0.00000001   -0.00130791   -0.00000000
     atom    9 type  6   force =     0.00000022   -0.00049062   -0.00000015
     atom   10 type  6   force =    -0.00000021   -0.00049062    0.00000015
     atom   11 type  6   force =     0.00000040    0.00113643    0.00000007
     atom   12 type  6   force =    -0.00000039    0.00113643   -0.00000007
     atom   13 type  6   force =     0.00000042   -0.00032719    0.00000006
     atom   14 type  6   force =    -0.00000041   -0.00032719   -0.00000006
     atom   15 type  8   force =    -0.00003915   -0.00005188   -0.00012242
     atom   16 type  8   force =    -0.00003925   -0.00005186   -0.00012237
     atom   17 type  8   force =     0.00003926   -0.00005186    0.00012237
     atom   18 type  8   force =     0.00003915   -0.00005188    0.00012243
     atom   19 type  8   force =     0.00004960    0.00002049    0.00025775
     atom   20 type  8   force =     0.00004954    0.00002046    0.00025785
     atom   21 type  8   force =    -0.00004953    0.00002046   -0.00025785
     atom   22 type  8   force =    -0.00004959    0.00002049   -0.00025775
     atom   23 type  8   force =     0.00001548    0.00025876   -0.00025590
     atom   24 type  8   force =     0.00001545    0.00025876   -0.00025596
     atom   25 type  8   force =    -0.00001545    0.00025876    0.00025596
     atom   26 type  8   force =    -0.00001548    0.00025876    0.00025590
     atom   27 type  1   force =    -0.00019974    0.00003788   -0.00102246
     atom   28 type  1   force =    -0.00019970    0.00003796   -0.00102254
     atom   29 type  1   force =     0.00019970    0.00003796    0.00102254
     atom   30 type  1   force =     0.00019974    0.00003788    0.00102246
     atom   31 type  7   force =    -0.00005539    0.00012448    0.00050005
     atom   32 type  7   force =    -0.00005533    0.00012451    0.00050011
     atom   33 type  7   force =     0.00005533    0.00012451   -0.00050011
     atom   34 type  7   force =     0.00005539    0.00012448   -0.00050005
     atom   35 type  7   force =     0.00000348    0.00000456   -0.00039159
     atom   36 type  7   force =     0.00000356    0.00000458   -0.00039171
     atom   37 type  7   force =    -0.00000356    0.00000458    0.00039170
     atom   38 type  7   force =    -0.00000348    0.00000456    0.00039159
     atom   39 type  7   force =    -0.00002096   -0.00000183    0.00039637
     atom   40 type  7   force =    -0.00002092   -0.00000183    0.00039636
     atom   41 type  7   force =     0.00002092   -0.00000183   -0.00039636
     atom   42 type  7   force =     0.00002096   -0.00000183   -0.00039637
     atom   43 type  7   force =    -0.00007904   -0.00001463    0.00002646
     atom   44 type  7   force =    -0.00007904   -0.00001470    0.00002642
     atom   45 type  7   force =     0.00007904   -0.00001470   -0.00002642
     atom   46 type  7   force =     0.00007904   -0.00001463   -0.00002646
     atom   47 type  7   force =    -0.00020106    0.00103055    0.00025944
     atom   48 type  7   force =    -0.00020104    0.00103055    0.00025946
     atom   49 type  7   force =     0.00020104    0.00103055   -0.00025946
     atom   50 type  7   force =     0.00020106    0.00103055   -0.00025944
     atom   51 type  7   force =     0.00087743    0.00006655    0.00021200
     atom   52 type  7   force =     0.00087736    0.00006654    0.00021195
     atom   53 type  7   force =    -0.00087736    0.00006654   -0.00021195
     atom   54 type  7   force =    -0.00087744    0.00006655   -0.00021200
     atom   55 type  7   force =     0.00032029   -0.00044410    0.00002180
     atom   56 type  7   force =     0.00032025   -0.00044396    0.00002186
     atom   57 type  7   force =    -0.00032026   -0.00044396   -0.00002186
     atom   58 type  7   force =    -0.00032029   -0.00044410   -0.00002180
     atom   59 type  7   force =    -0.00013028    0.00019503   -0.00005406
     atom   60 type  7   force =    -0.00013034    0.00019514   -0.00005390
     atom   61 type  7   force =     0.00013034    0.00019514    0.00005390
     atom   62 type  7   force =     0.00013028    0.00019502    0.00005406
     atom   63 type  7   force =     0.00096328   -0.00042744    0.00038998
     atom   64 type  7   force =     0.00096322   -0.00042745    0.00039011
     atom   65 type  7   force =    -0.00096322   -0.00042745   -0.00039011
     atom   66 type  7   force =    -0.00096329   -0.00042744   -0.00038998
     atom   67 type  7   force =     0.00069098   -0.00058587   -0.00043124
     atom   68 type  7   force =     0.00069096   -0.00058582   -0.00043123
     atom   69 type  7   force =    -0.00069096   -0.00058582    0.00043123
     atom   70 type  7   force =    -0.00069098   -0.00058587    0.00043124
     atom   71 type  7   force =    -0.00010568   -0.00017253   -0.00036774
     atom   72 type  7   force =    -0.00010564   -0.00017256   -0.00036785
     atom   73 type  7   force =     0.00010564   -0.00017257    0.00036785
     atom   74 type  7   force =     0.00010568   -0.00017253    0.00036774
     atom   75 type  7   force =     0.00002282   -0.00000302   -0.00052581
     atom   76 type  7   force =     0.00002290   -0.00000308   -0.00052576
     atom   77 type  7   force =    -0.00002291   -0.00000308    0.00052576
     atom   78 type  7   force =    -0.00002282   -0.00000303    0.00052581
     atom   79 type  4   force =    -0.00009669    0.00013938   -0.00010521
     atom   80 type  4   force =    -0.00009685    0.00013930   -0.00010532
     atom   81 type  4   force =     0.00009684    0.00013930    0.00010532
     atom   82 type  4   force =     0.00009669    0.00013938    0.00010521
     atom   83 type  4   force =     0.00010784   -0.00044095   -0.00030092
     atom   84 type  4   force =     0.00010783   -0.00044096   -0.00030073
     atom   85 type  4   force =    -0.00010783   -0.00044096    0.00030073
     atom   86 type  4   force =    -0.00010784   -0.00044095    0.00030092
     atom   87 type  2   force =    -0.00000001    0.00067138   -0.00000000
     atom   88 type  3   force =    -0.00000001    0.00067126   -0.00000000

     Total force =     0.030956     Total SCF correction =     0.000127

     DFT-D3 dispersion Force =     0.006427


     Computing stress (Cartesian axis) and pressure


     negative rho (up, down):  0.000E+00 3.801E-04
          total   stress  (Ry/bohr**3)                   (kbar)     P=       -2.66
  -0.00002527   0.00000000   0.00000027           -3.72        0.00        0.04
   0.00000000  -0.00001663   0.00000000            0.00       -2.45        0.00
   0.00000027   0.00000000  -0.00001244            0.04        0.00       -1.83

     kinetic stress (kbar)  20080.77      0.00    -34.48
                                0.00  20173.84      0.00
                              -34.48      0.00  19856.57

     local   stress (kbar) -40707.17      0.00   -395.48
                                0.00 -39886.71     -0.00
                             -395.48     -0.00  19243.39

     nonloc. stress (kbar)   3803.71      0.00      3.19
                                0.00   3796.14      0.00
                                3.19      0.00   3782.16

     hartree stress (kbar)  22906.11     -0.00    148.70
                               -0.00  22571.35      0.00
                              148.70      0.00  -6377.60

     exc-cor stress (kbar)  -2821.20      0.00      0.19
                                0.00  -2821.09      0.00
                                0.19      0.00  -2818.29

     corecor stress (kbar)  -1858.85     -0.00      0.37
                               -0.00  -1859.56     -0.00
                                0.37     -0.00  -1860.75

     ewald   stress (kbar)  -1392.40     -0.00    277.51
                               -0.00  -1961.67      0.00
                              277.51      0.00 -31816.34

     hubbard stress (kbar)      0.00      0.00      0.00
                                0.00      0.00      0.00
                                0.00      0.00      0.00

     DFT-D   stress (kbar)    -14.68      0.00      0.03
                                0.00    -14.75     -0.00
                                0.03     -0.00    -10.98

     XDM     stress (kbar)      0.00      0.00      0.00
                                0.00      0.00      0.00
                                0.00      0.00      0.00

     dft-nl  stress (kbar)      0.00      0.00      0.00
                                0.00      0.00      0.00
                                0.00      0.00      0.00

     TS-vdW  stress (kbar)      0.00      0.00      0.00
                                0.00      0.00      0.00
                                0.00      0.00      0.00

     MDB     stress (kbar)      0.00      0.00      0.00
                                0.00      0.00      0.00
                                0.00      0.00      0.00

     3D-RISM stress (kbar)      0.00      0.00      0.00
                                0.00      0.00      0.00
                                0.00      0.00      0.00


     Writing all to output data dir ./temp/phl-fe1-fe2x2.save/ :
     XML data file, charge density, pseudopotentials, collected wavefunctions

     init_run     :   1199.59s CPU   1208.25s WALL (       2 calls)
     electrons    : 462173.45s CPU 464300.91s WALL (      20 calls)
     update_pot   :    114.66s CPU    115.60s WALL (      18 calls)
     forces       :   9682.35s CPU   9717.45s WALL (      20 calls)
     force_dftd3  :    168.70s CPU    169.38s WALL (      20 calls)
     stress       :  34143.48s CPU  34302.17s WALL (      20 calls)
     stres_dftd3  :    168.65s CPU    169.29s WALL (      20 calls)

     Called by init_run:
     wfcinit      :   1155.37s CPU   1161.26s WALL (       2 calls)
     wfcinit:atom :      0.97s CPU      1.67s WALL (      40 calls)
     wfcinit:wfcr :   1145.49s CPU   1149.82s WALL (      40 calls)
     potinit      :     12.53s CPU     12.77s WALL (       2 calls)
     hinit0       :      5.09s CPU      5.18s WALL (       2 calls)

     Called by electrons:
     c_bands      : 429103.22s CPU 430633.45s WALL (     186 calls)
     sum_band     :  29784.55s CPU  30176.03s WALL (     186 calls)
     v_of_rho     :    160.29s CPU    164.45s WALL (     187 calls)
     v_h          :      5.59s CPU      5.82s WALL (     187 calls)
     v_xc         :    187.02s CPU    193.22s WALL (     227 calls)
     newd         :   2391.28s CPU   2615.51s WALL (     187 calls)
     PAW_pot      :   1029.61s CPU   1029.78s WALL (     205 calls)
     mix_rho      :     22.52s CPU     23.19s WALL (     186 calls)
     energy_dftd3 :    130.91s CPU    130.93s WALL (      20 calls)

     Called by c_bands:
     init_us_2    :    589.94s CPU    590.48s WALL (    8640 calls)
     cegterg      : 427976.27s CPU 429505.44s WALL (    3778 calls)

     Called by sum_band:
     sum_band:wei :      0.14s CPU      0.14s WALL (     186 calls)
     sum_band:loo :  24985.39s CPU  25098.22s WALL (     186 calls)
     sum_band:buf :     66.80s CPU     66.86s WALL (    3720 calls)
     sum_band:ini :    258.71s CPU    258.85s WALL (    3720 calls)
     sum_band:cal :  22130.08s CPU  22139.08s WALL (    4080 calls)
     sum_band:bec :     27.90s CPU     27.93s WALL (    4080 calls)
     addusdens    :   4767.20s CPU   5044.42s WALL (     186 calls)
                                        0.00s GPU  (     186 calls)
     addusd:skk   :     19.50s CPU     32.96s WALL (    1488 calls)
                                        0.00s GPU  (    1488 calls)

     Called by *egterg:
     cdiaghg      :  12598.71s CPU  12780.94s WALL (   26123 calls)
     cegterg:over :  57161.26s CPU  57176.19s WALL (   23141 calls)
     cegterg:upda :  34225.89s CPU  34305.60s WALL (   23141 calls)
     cegterg:last :  93362.98s CPU  93393.13s WALL (   10924 calls)
     cdiaghg:chol :    303.21s CPU    303.35s WALL (   26123 calls)
     cdiaghg:inve :    295.73s CPU    295.83s WALL (   26123 calls)
     cdiaghg:para :   6178.22s CPU   6223.70s WALL (   52246 calls)
     h_psi        : 153391.60s CPU 154352.48s WALL (   26959 calls)
     s_psi        :  66218.10s CPU  66229.19s WALL (   26959 calls)
     g_psi        :    161.44s CPU    161.63s WALL (   23141 calls)

     Called by h_psi:
     h_psi:calbec :  64330.40s CPU  64357.02s WALL (   26959 calls)
     vloc_psi     :  22676.96s CPU  23498.61s WALL (   26959 calls)
     add_vuspsi   :  66242.03s CPU  66252.85s WALL (   26959 calls)

     General routines
     calbec       :  97771.62s CPU  97811.41s WALL (   33039 calls)
     fft          :    101.69s CPU    107.88s WALL (    5491 calls)
     ffts         :      3.30s CPU      3.67s WALL (     746 calls)
     fftw         :  17087.89s CPU  17751.89s WALL ( 8600372 calls)
     interpolate  :     10.45s CPU     11.06s WALL (     374 calls)

     Parallel routines

     PAW routines
     PAW_pot      :   1029.61s CPU   1029.78s WALL (     205 calls)
     PAW_symme    :      0.31s CPU      0.35s WALL (     390 calls)

     PWSCF        :   5d21h34m CPU   5d22h13m WALL


   This run was terminated on:   8:28:30  20Feb2025            

=------------------------------------------------------------------------------=
   JOB DONE.
=------------------------------------------------------------------------------=
