
     Program PWSCF v.7.3.1 starts on 26Mar2025 at  9:55: 3 

     This program is part of the open-source Quantum ESPRESSO suite
     for quantum simulation of materials; please cite
         "P. Giannozzi et al., J. Phys.:Condens. Matter 21 395502 (2009);
         "P. Giannozzi et al., J. Phys.:Condens. Matter 29 465901 (2017);
         "P. Giannozzi et al., J. Chem. Phys. 152 154105 (2020);
          URL http://www.quantum-espresso.org", 
     in publications or presentations arising from this work. More details at
     http://www.quantum-espresso.org/quote

     Parallel version (MPI), running on     6 processors

     MPI processes distributed on     1 nodes
     11825 MiB available memory on the printing compute node when the environment starts

     Reading input from vc_relax.in

     Current dimensions of program PWSCF are:
     Max number of different atomic species (ntypx) = 10
     Max number of k-points (npk) =  40000
     Max angular momentum in pseudopotentials (lmaxx) =  4
     file Al.pbe-n-kjpaw_psl.1.0.0.UPF: wavefunction(s)  3S 3P renormalized
     file Ti.pbe-spn-kjpaw_psl.1.0.0.UPF: wavefunction(s)  3S 3P 3D renormalized
     file H.pbe-kjpaw_psl.1.0.0.UPF: wavefunction(s)  1S renormalized
     file K.pbe-spn-kjpaw_psl.1.0.0.UPF: wavefunction(s)  3S renormalized
     file Mg.pbe-spnl-kjpaw_psl.1.0.0.UPF: wavefunction(s)  2P renormalized
     file O.pbe-n-kjpaw_psl.1.0.0.UPF: wavefunction(s)  2S 2P renormalized
     file Si.pbe-n-kjpaw_psl.1.0.0.UPF: wavefunction(s)  3S 3P renormalized

     R & G space division:  proc/nbgrp/npool/nimage =       6
     Subspace diagonalization in iterative solution of the eigenvalue problem:
     a serial algorithm will be used


     Parallelization info
     --------------------
     sticks:   dense  smooth     PW     G-vecs:    dense   smooth      PW
     Min        1119     557    150               100894    35666    5065
     Max        1120     558    151               100896    35670    5069
     Sum        6719    3347    905               605369   214013   30407

     Using Slab Decomposition



     bravais-lattice index     =          -12
     lattice parameter (alat)  =      10.0639  a.u.
     unit-cell volume          =    3408.7535 (a.u.)^3
     number of atoms/cell      =           43
     number of atomic types    =            7
     number of electrons       =       248.00
     number of Kohn-Sham states=          149
     kinetic-energy cutoff     =      60.0000  Ry
     charge density cutoff     =     480.0000  Ry
     scf convergence threshold =      1.0E-06
     mixing beta               =       0.7000
     number of iterations used =            8  plain     mixing
     energy convergence thresh.=      1.0E-04
     force convergence thresh. =      1.0E-03
     press convergence thresh. =      5.0E-01
     Exchange-correlation= SLA  PW   PBX  PBC
                           (   1   4   3   4   0   0   0)
     nstep                     =           50


     celldm(1)=  10.063938  celldm(2)=   1.736001  celldm(3)=   1.956921
     celldm(4)=   0.000000  celldm(5)=  -0.175986  celldm(6)=   0.000000

     crystal axes: (cart. coord. in units of alat)
               a(1) = (   1.000000   0.000000   0.000000 )  
               a(2) = (   0.000000   1.736001   0.000000 )  
               a(3) = (  -0.344390   0.000000   1.926379 )  

     reciprocal axes: (cart. coord. in units 2 pi/alat)
               b(1) = (  1.000000 -0.000000  0.178776 )  
               b(2) = (  0.000000  0.576037 -0.000000 )  
               b(3) = (  0.000000  0.000000  0.519109 )  


     PseudoPot. # 1 for Al read from file:
     ./../../../pseudos/Al.pbe-n-kjpaw_psl.1.0.0.UPF
     MD5 check sum: 502b6b27b9c6270cab5dd1084b96fa6d
     Pseudo is Projector augmented-wave + core cor, Zval =  3.0
     Generated using &quot;atomic&quot; code by A. Dal Corso  v.6.3
     Shape of augmentation charge: PSQ
     Using radial grid of 1135 points,  6 beta functions with: 
                l(1) =   0
                l(2) =   0
                l(3) =   1
                l(4) =   1
                l(5) =   2
                l(6) =   2
     Q(r) pseudized with 0 coefficients 


     PseudoPot. # 2 for Ti read from file:
     ./../../../pseudos/Ti.pbe-spn-kjpaw_psl.1.0.0.UPF
     MD5 check sum: 01f69b0d8ba4438b2e03ac6ea4af1c0b
     Pseudo is Projector augmented-wave + core cor, Zval = 12.0
     Generated using &quot;atomic&quot; code by A. Dal Corso  v.6.2.2
     Shape of augmentation charge: PSQ
     Using radial grid of 1177 points,  6 beta functions with: 
                l(1) =   0
                l(2) =   0
                l(3) =   1
                l(4) =   1
                l(5) =   2
                l(6) =   2
     Q(r) pseudized with 0 coefficients 


     PseudoPot. # 3 for H  read from file:
     ./../../../pseudos/H.pbe-kjpaw_psl.1.0.0.UPF
     MD5 check sum: d81a744832360e4a8af0b0b5b123bc2a
     Pseudo is Projector augmented-wave, Zval =  1.0
     Generated using &quot;atomic&quot; code by A. Dal Corso  v.6.3MaX
     Shape of augmentation charge: PSQ
     Using radial grid of  929 points,  2 beta functions with: 
                l(1) =   0
                l(2) =   0
     Q(r) pseudized with 0 coefficients 


     PseudoPot. # 4 for K  read from file:
     ./../../../pseudos/K.pbe-spn-kjpaw_psl.1.0.0.UPF
     MD5 check sum: 34cc42130a09071ebe376fd42eb21491
     Pseudo is Projector augmented-wave + core cor, Zval =  9.0
     Generated using &quot;atomic&quot; code by A. Dal Corso  v.6.2.2
     Shape of augmentation charge: PSQ
     Using radial grid of 1165 points,  6 beta functions with: 
                l(1) =   0
                l(2) =   0
                l(3) =   1
                l(4) =   1
                l(5) =   2
                l(6) =   2
     Q(r) pseudized with 0 coefficients 


     PseudoPot. # 5 for Mg read from file:
     ./../../../pseudos/Mg.pbe-spnl-kjpaw_psl.1.0.0.UPF
     MD5 check sum: fda14e0d92a6a9a5ebed782e5a4b3067
     Pseudo is Projector augmented-wave + core cor, Zval = 10.0
     Generated using &quot;atomic&quot; code by A. Dal Corso  v.6.3
     Shape of augmentation charge: PSQ
     Using radial grid of 1129 points,  4 beta functions with: 
                l(1) =   0
                l(2) =   0
                l(3) =   1
                l(4) =   1
     Q(r) pseudized with 0 coefficients 


     PseudoPot. # 6 for O  read from file:
     ./../../../pseudos/O.pbe-n-kjpaw_psl.1.0.0.UPF
     MD5 check sum: e99d9cef9b487d1ca56f5b95ecd0fd7a
     Pseudo is Projector augmented-wave + core cor, Zval =  6.0
     Generated using &quot;atomic&quot; code by A. Dal Corso  v.6.3
     Shape of augmentation charge: PSQ
     Using radial grid of 1095 points,  4 beta functions with: 
                l(1) =   0
                l(2) =   0
                l(3) =   1
                l(4) =   1
     Q(r) pseudized with 0 coefficients 


     PseudoPot. # 7 for Si read from file:
     ./../../../pseudos/Si.pbe-n-kjpaw_psl.1.0.0.UPF
     MD5 check sum: c39c59da582df4a0d9f10159256ea34e
     Pseudo is Projector augmented-wave + core cor, Zval =  4.0
     Generated using &quot;atomic&quot; code by A. Dal Corso  v.6.3
     Shape of augmentation charge: PSQ
     Using radial grid of 1141 points,  6 beta functions with: 
                l(1) =   0
                l(2) =   0
                l(3) =   1
                l(4) =   1
                l(5) =   2
                l(6) =   2
     Q(r) pseudized with 0 coefficients 


     atomic species   valence    mass     pseudopotential
     Al                3.00    26.98154     Al( 1.00)
     Ti               12.00    47.86700     Ti( 1.00)
     H                 1.00     1.00794     H ( 1.00)
     K                 9.00    39.09830     K ( 1.00)
     Mg               10.00    24.30500     Mg( 1.00)
     O                 6.00    15.99940     O ( 1.00)
     Si                4.00    28.08550     Si( 1.00)

     Starting magnetic structure 
     atomic species   magnetization
     Al              0.000
     Ti              0.300
     H               0.000
     K               0.000
     Mg              0.000
     O               0.000
     Si              0.000

      2 Sym. Ops. (no inversion) found


                                    s                        frac. trans.

      isym =  1     identity                                     

 cryst.   s( 1) = (     1          0          0      )
                  (     0          1          0      )
                  (     0          0          1      )

 cart.    s( 1) = (  1.0000000  0.0000000  0.0000000 )
                  (  0.0000000  1.0000000  0.0000000 )
                  (  0.0000000  0.0000000  1.0000000 )


      isym =  2     180 deg rotation - cart. axis [0,1,0]        

 cryst.   s( 2) = (    -1          0          0      )
                  (     0          1          0      )
                  (     0          0         -1      )

 cart.    s( 2) = ( -1.0000000  0.0000000 -0.0000000 )
                  (  0.0000000  1.0000000  0.0000000 )
                  (  0.0000000  0.0000000 -1.0000000 )


     point group C_2  (2)   
     there are  2 classes
     the character table:

       E     C2   
A      1.00  1.00
B      1.00 -1.00

     the symmetry operations in each class and the name of the first element:

     E        1
          identity                                               
     C2       2
          180 deg rotation - cart. axis [0,1,0]                  

   Cartesian axes

     site n.     atom                  positions (alat units)
         1        K      tau(   1) = (   0.0000000   0.8607119   0.0000000  )
         2        K      tau(   2) = (   0.5000001   0.0073171   0.0000000  )
         3        Mg     tau(   3) = (  -0.1721948   1.6951275   0.9631892  )
         4        Mg     tau(   4) = (   0.3278053   0.8773094   0.9631892  )
         5        Mg     tau(   5) = (   0.3278053   1.4257858   0.9631892  )
         6        Mg     tau(   6) = (   0.3278053   0.2782711   0.9631892  )
         7        Si     tau(   7) = (  -0.0005543   0.2831889   0.4339877  )
         8        Si     tau(   8) = (   0.6561649   0.2831889   1.4923907  )
         9        Si     tau(   9) = (   0.6701923   1.4424402   1.4818157  )
        10        Si     tau(  10) = (  -0.0145817   1.4424402   0.4445627  )
        11        Si     tau(  11) = (   0.4771851   1.1535300   0.4352233  )
        12        Si     tau(  12) = (   0.1784255   1.1535300   1.4911550  )
        13        Al     tau(  13) = (   0.1496195   0.5755490   1.4937351  )
        14        Al     tau(  14) = (   0.5059911   0.5755490   0.4326433  )
        15        O      tau(  15) = (  -0.0143425   0.2960900   0.7474296  )
        16        O      tau(  16) = (   0.6699531   0.2960900   1.1789488  )
        17        O      tau(  17) = (   0.6500793   1.4461406   1.1827388  )
        18        O      tau(  18) = (   0.0055313   1.4461406   0.7436395  )
        19        O      tau(  19) = (   0.4674833   1.1465020   0.7368712  )
        20        O      tau(  20) = (   0.1881273   1.1465020   1.1895071  )
        21        O      tau(  21) = (   0.1410541   0.5705741   1.1560813  )
        22        O      tau(  22) = (   0.5145566   0.5705741   0.7702969  )
        23        O      tau(  23) = (   0.2794169   0.3545702   0.3388838  )
        24        O      tau(  24) = (   0.3761936   0.3545702   1.5874944  )
        25        O      tau(  25) = (   0.9403575   1.7296768   0.3333080  )
        26        O      tau(  26) = (  -0.2847469   1.7296768   1.5930703  )
        27        O      tau(  27) = (   0.4080411   1.3329313   1.6112630  )
        28        O      tau(  28) = (   0.2475695   1.3329313   0.3151153  )
        29        O      tau(  29) = (   0.7460245   1.2786237   0.3326485  )
        30        O      tau(  30) = (  -0.0904139   1.2786237   1.5937299  )
        31        O      tau(  31) = (   0.4502684   0.8760397   0.3105712  )
        32        O      tau(  32) = (   0.2053421   0.8760397   1.6158072  )
        33        O      tau(  33) = (  -0.1343245   0.4634634   1.6175381  )
        34        O      tau(  34) = (   0.7899351   0.4634634   0.3088402  )
        35        O      tau(  35) = (  -0.0131138   0.8364765   0.7603549  )
        36        O      tau(  36) = (   0.6687244   0.8364765   1.1660235  )
        37        O      tau(  37) = (   0.4976317   1.7308030   0.7732835  )
        38        O      tau(  38) = (   0.1579789   1.7308030   1.1530949  )
        39        H      tau(  39) = (  -0.1006665   0.9985569   0.7506854  )
        40        H      tau(  40) = (   0.7562772   0.9985569   1.1756929  )
        41        H      tau(  41) = (   0.4958325   0.0073027   0.5922024  )
        42        H      tau(  42) = (   0.1597781   0.0073027   1.3341760  )
        43        Ti     tau(  43) = (  -0.1721948   0.5836331   0.9631892  )

     --------------------------------------------
     DFT-D3 Dispersion Correction (3-body terms):
     --------------------------------------------
       Reference C6 values for interpolation: 

         atom   Coordination number   C6
         H          0.912             6.05
         H          0.000            15.18
         O          0.000            31.01
         O          0.993            25.63
         O          1.989            20.74
         Mg         0.000          1366.75
         Mg         0.963           902.54
         Mg         1.950           351.12
         Al         0.000          1081.08
         Al         0.965           875.51
         Al         1.931           513.50
         Al         2.915           307.19
         Si         0.000           635.71
         Si         0.951           540.53
         Si         1.944           466.25
         Si         2.941           443.01
         Si         3.868           299.55
         K          0.000          9967.00
         K          0.977           676.04
         Ti         0.000          2723.84
         Ti         1.830           604.00
         Ti         3.868           643.18

       Values used:

         atom   Coordination number  R0_AB[au]  C6      C8
         K         12.114            4.007    676.04 129074.98
         K         12.533            4.007    676.04 129074.98
         Mg        10.328            3.292    351.12  31436.69
         Mg        10.066            3.292    351.12  31436.69
         Mg        10.273            3.292    351.12  31436.69
         Mg        11.219            3.292    351.12  31436.69
         Si         6.497            3.583    299.55  21425.58
         Si         6.497            3.583    299.55  21425.58
         Si         6.142            3.583    299.55  21425.58
         Si         6.142            3.583    299.55  21425.58
         Si         6.273            3.583    299.55  21425.58
         Si         6.273            3.583    299.55  21425.58
         Al         7.331            3.789    307.19  29441.29
         Al         7.331            3.789    307.19  29441.29
         O          3.755            2.345     20.74    418.58
         O          3.755            2.345     20.74    418.58
         O          3.004            2.345     20.74    418.58
         O          3.004            2.345     20.74    418.58
         O          3.007            2.345     20.74    418.58
         O          3.007            2.345     20.74    418.58
         O          3.899            2.345     20.74    418.58
         O          3.899            2.345     20.74    418.58
         O          3.075            2.345     20.74    418.58
         O          3.075            2.345     20.74    418.58
         O          3.050            2.345     20.74    418.58
         O          3.050            2.345     20.74    418.58
         O          3.057            2.345     20.74    418.58
         O          3.057            2.345     20.74    418.58
         O          2.930            2.345     20.74    418.58
         O          2.930            2.345     20.74    418.58
         O          3.154            2.345     20.74    418.58
         O          3.154            2.345     20.74    418.58
         O          3.213            2.345     20.74    418.58
         O          3.213            2.345     20.74    418.58
         O          3.021            2.345     20.74    418.58
         O          3.021            2.345     20.74    418.58
         O          3.971            2.345     20.74    418.58
         O          3.971            2.345     20.74    418.58
         H          1.102            2.062      6.11     73.91
         H          1.102            2.062      6.11     73.91
         H          1.228            2.062      6.08     73.47
         H          1.228            2.062      6.08     73.47
         Ti        10.377            3.557    643.18  76289.64

         Molecular C6 ( Ry / a.u.^6 ) =    158928.66


   Crystallographic axes

     site n.     atom                  positions (cryst. coord.)
         1        K      tau(   1) = (  0.0000000  0.4958015  0.0000000  )
         2        K      tau(   2) = (  0.5000001  0.0042149  0.0000000  )
         3        Mg     tau(   3) = (  0.0000002  0.9764553  0.4999999  )
         4        Mg     tau(   4) = (  0.5000003  0.5053622  0.4999999  )
         5        Mg     tau(   5) = (  0.5000003  0.8213047  0.4999999  )
         6        Mg     tau(   6) = (  0.5000003  0.1602943  0.4999999  )
         7        Si     tau(   7) = (  0.0770322  0.1631272  0.2252868  )
         8        Si     tau(   8) = (  0.9229684  0.1631272  0.7747130  )
         9        Si     tau(   9) = (  0.9351052  0.8308982  0.7692234  )
        10        Si     tau(  10) = (  0.0648954  0.8308982  0.2307763  )
        11        Si     tau(  11) = (  0.5549925  0.6644754  0.2259282  )
        12        Si     tau(  12) = (  0.4450081  0.6644754  0.7740715  )
        13        Al     tau(  13) = (  0.4166633  0.3315372  0.7754109  )
        14        Al     tau(  14) = (  0.5833372  0.3315372  0.2245889  )
        15        O      tau(  15) = (  0.1192798  0.1705586  0.3879972  )
        16        O      tau(  16) = (  0.8807207  0.1705586  0.6120026  )
        17        O      tau(  17) = (  0.8615245  0.8330297  0.6139700  )
        18        O      tau(  18) = (  0.1384761  0.8330297  0.3860297  )
        19        O      tau(  19) = (  0.5992181  0.6604270  0.3825163  )
        20        O      tau(  20) = (  0.4007825  0.6604270  0.6174835  )
        21        O      tau(  21) = (  0.3477336  0.3286715  0.6001319  )
        22        O      tau(  22) = (  0.6522671  0.3286715  0.3998678  )
        23        O      tau(  23) = (  0.3400012  0.2042454  0.1759176  )
        24        O      tau(  24) = (  0.6599994  0.2042454  0.8240821  )
        25        O      tau(  25) = (  0.9999449  0.9963570  0.1730231  )
        26        O      tau(  26) = (  0.0000557  0.9963570  0.8269767  )
        27        O      tau(  27) = (  0.6960961  0.7678171  0.8364207  )
        28        O      tau(  28) = (  0.3039045  0.7678171  0.1635791  )
        29        O      tau(  29) = (  0.8054941  0.7365339  0.1726807  )
        30        O      tau(  30) = (  0.1945066  0.7365339  0.8273190  )
        31        O      tau(  31) = (  0.5057910  0.5046309  0.1612202  )
        32        O      tau(  32) = (  0.4942095  0.5046309  0.8387796  )
        33        O      tau(  33) = (  0.1548523  0.2669719  0.8396781  )
        34        O      tau(  34) = (  0.8451483  0.2669719  0.1603216  )
        35        O      tau(  35) = (  0.1228193  0.4818410  0.3947068  )
        36        O      tau(  36) = (  0.8771813  0.4818410  0.6052929  )
        37        O      tau(  37) = (  0.6358762  0.9970057  0.4014182  )
        38        O      tau(  38) = (  0.3641245  0.9970057  0.5985816  )
        39        H      tau(  39) = (  0.0335379  0.5752052  0.3896873  )
        40        H      tau(  40) = (  0.9664627  0.5752052  0.6103124  )
        41        H      tau(  41) = (  0.6017040  0.0042066  0.3074174  )
        42        H      tau(  42) = (  0.3982966  0.0042066  0.6925824  )
        43        Ti     tau(  43) = (  0.0000002  0.3361940  0.4999999  )

     number of k points=    20  Gaussian smearing, width (Ry)=  0.0010
                       cart. coord. in units 2pi/alat
        k(    1) = (   0.0000000   0.0000000   0.0000000), wk =   0.0185185
        k(    2) = (   0.0000000   0.0000000   0.1730362), wk =   0.0370370
        k(    3) = (   0.0000000   0.1920122   0.0000000), wk =   0.0370370
        k(    4) = (   0.0000000   0.1920122   0.1730362), wk =   0.0740741
        k(    5) = (   0.1666667   0.0000000   0.0297960), wk =   0.0370370
        k(    6) = (   0.1666667   0.0000000   0.2028322), wk =   0.0370370
        k(    7) = (   0.1666667   0.0000000  -0.1432402), wk =   0.0370370
        k(    8) = (   0.1666667   0.1920122   0.0297960), wk =   0.0740741
        k(    9) = (   0.1666667   0.1920122   0.2028322), wk =   0.0740741
        k(   10) = (   0.1666667   0.1920122  -0.1432402), wk =   0.0740741
        k(   11) = (   0.3333333   0.0000000   0.0595920), wk =   0.0370370
        k(   12) = (   0.3333333   0.0000000   0.2326282), wk =   0.0370370
        k(   13) = (   0.3333333   0.0000000  -0.1134443), wk =   0.0370370
        k(   14) = (   0.3333333   0.1920122   0.0595920), wk =   0.0740741
        k(   15) = (   0.3333333   0.1920122   0.2326282), wk =   0.0740741
        k(   16) = (   0.3333333   0.1920122  -0.1134443), wk =   0.0740741
        k(   17) = (  -0.5000000   0.0000000  -0.0893879), wk =   0.0185185
        k(   18) = (  -0.5000000   0.0000000   0.0836483), wk =   0.0370370
        k(   19) = (  -0.5000000   0.1920122  -0.0893879), wk =   0.0370370
        k(   20) = (  -0.5000000   0.1920122   0.0836483), wk =   0.0740741

                       cryst. coord.
        k(    1) = (   0.0000000   0.0000000   0.0000000), wk =   0.0185185
        k(    2) = (   0.0000000   0.0000000   0.3333333), wk =   0.0370370
        k(    3) = (   0.0000000   0.3333333   0.0000000), wk =   0.0370370
        k(    4) = (   0.0000000   0.3333333   0.3333333), wk =   0.0740741
        k(    5) = (   0.1666667   0.0000000   0.0000000), wk =   0.0370370
        k(    6) = (   0.1666667   0.0000000   0.3333333), wk =   0.0370370
        k(    7) = (   0.1666667   0.0000000  -0.3333333), wk =   0.0370370
        k(    8) = (   0.1666667   0.3333333   0.0000000), wk =   0.0740741
        k(    9) = (   0.1666667   0.3333333   0.3333333), wk =   0.0740741
        k(   10) = (   0.1666667   0.3333333  -0.3333333), wk =   0.0740741
        k(   11) = (   0.3333333   0.0000000   0.0000000), wk =   0.0370370
        k(   12) = (   0.3333333   0.0000000   0.3333333), wk =   0.0370370
        k(   13) = (   0.3333333   0.0000000  -0.3333333), wk =   0.0370370
        k(   14) = (   0.3333333   0.3333333   0.0000000), wk =   0.0740741
        k(   15) = (   0.3333333   0.3333333   0.3333333), wk =   0.0740741
        k(   16) = (   0.3333333   0.3333333  -0.3333333), wk =   0.0740741
        k(   17) = (  -0.5000000   0.0000000   0.0000000), wk =   0.0185185
        k(   18) = (  -0.5000000   0.0000000   0.3333333), wk =   0.0370370
        k(   19) = (  -0.5000000   0.3333333   0.0000000), wk =   0.0370370
        k(   20) = (  -0.5000000   0.3333333   0.3333333), wk =   0.0740741

     Dense  grid:   605369 G-vectors     FFT dimensions: (  72, 125, 144)

     Smooth grid:   214013 G-vectors     FFT dimensions: (  50,  90, 100)

     Dynamical RAM for                 wfc:      10.14 MB

     Dynamical RAM for     wfc (w. buffer):     415.56 MB

     Dynamical RAM for           str. fact:      10.78 MB

     Dynamical RAM for           local pot:       0.00 MB

     Dynamical RAM for          nlocal pot:      29.25 MB

     Dynamical RAM for                qrad:      24.61 MB

     Dynamical RAM for          rho,v,vnew:      19.12 MB

     Dynamical RAM for               rhoin:       6.37 MB

     Dynamical RAM for            rho*nmix:      49.27 MB

     Dynamical RAM for           G-vectors:       6.05 MB

     Dynamical RAM for          h,s,v(r/c):       4.07 MB

     Dynamical RAM for          <psi|beta>:       0.98 MB

     Dynamical RAM for                 psi:      20.27 MB

     Dynamical RAM for                hpsi:      20.27 MB

     Dynamical RAM for                spsi:      20.27 MB

     Dynamical RAM for      wfcinit/wfcrot:      24.94 MB

     Dynamical RAM for           addusdens:     324.84 MB

     Dynamical RAM for          addusforce:     395.85 MB

     Dynamical RAM for         addusstress:     311.76 MB

     Estimated static dynamical RAM per process >     533.94 MB

     Estimated max dynamical RAM per process >     979.06 MB

     Estimated total dynamical RAM >       5.74 GB

     Check: negative core charge=   -0.000003
     Generating pointlists ...
     new r_m :   0.1358 (alat units)  1.3662 (a.u.) for type    1
     new r_m :   0.1489 (alat units)  1.4990 (a.u.) for type    2
     new r_m :   0.0749 (alat units)  0.7536 (a.u.) for type    3
     new r_m :   0.2199 (alat units)  2.2127 (a.u.) for type    4
     new r_m :   0.1553 (alat units)  1.5632 (a.u.) for type    5
     new r_m :   0.0749 (alat units)  0.7536 (a.u.) for type    6
     new r_m :   0.1237 (alat units)  1.2445 (a.u.) for type    7

     Initial potential from superposition of free atoms

     starting charge     247.9492, renormalised to     248.0000
     Starting wfcs are  178 randomized atomic wfcs
     Checking if some PAW data can be deallocated... 
       PAW data deallocated on    5 nodes for type:  1
       PAW data deallocated on    5 nodes for type:  2
       PAW data deallocated on    5 nodes for type:  3
       PAW data deallocated on    5 nodes for type:  4
       PAW data deallocated on    5 nodes for type:  5
       PAW data deallocated on    1 nodes for type:  6
       PAW data deallocated on    4 nodes for type:  7

     total cpu time spent up to now is      146.1 secs

     Self-consistent Calculation

     iteration #  1     ecut=    60.00 Ry     beta= 0.70
     Davidson diagonalization with overlap

---- Real-time Memory Report at c_bands before calling an iterative solver
           593 MiB given to the printing process from OS
             0 MiB allocation reported by mallinfo(arena+hblkhd)
          8405 MiB available memory on the node where the printing process lives
------------------
     ethr =  1.00E-02,  avg # of iterations =  5.1

     total cpu time spent up to now is      568.5 secs

     total energy              =   -2336.20337643 Ry
     estimated scf accuracy    <      13.26683571 Ry

     total magnetization       =    -0.00 Bohr mag/cell
     absolute magnetization    =     0.48 Bohr mag/cell

     iteration #  2     ecut=    60.00 Ry     beta= 0.70
     Davidson diagonalization with overlap

---- Real-time Memory Report at c_bands before calling an iterative solver
           899 MiB given to the printing process from OS
             0 MiB allocation reported by mallinfo(arena+hblkhd)
          8135 MiB available memory on the node where the printing process lives
------------------
     ethr =  5.35E-03,  avg # of iterations =  7.9

     total cpu time spent up to now is     1200.7 secs

     total energy              =   -2331.34864185 Ry
     estimated scf accuracy    <      55.86090072 Ry

     total magnetization       =    -0.08 Bohr mag/cell
     absolute magnetization    =     1.08 Bohr mag/cell

     iteration #  3     ecut=    60.00 Ry     beta= 0.70
     Davidson diagonalization with overlap

---- Real-time Memory Report at c_bands before calling an iterative solver
           902 MiB given to the printing process from OS
             0 MiB allocation reported by mallinfo(arena+hblkhd)
          8123 MiB available memory on the node where the printing process lives
------------------
     ethr =  5.35E-03,  avg # of iterations =  6.9

     total cpu time spent up to now is     1614.5 secs

     total energy              =   -2342.30476644 Ry
     estimated scf accuracy    <      12.34550985 Ry

     total magnetization       =    -0.00 Bohr mag/cell
     absolute magnetization    =     0.84 Bohr mag/cell

     iteration #  4     ecut=    60.00 Ry     beta= 0.70
     Davidson diagonalization with overlap

---- Real-time Memory Report at c_bands before calling an iterative solver
           904 MiB given to the printing process from OS
             0 MiB allocation reported by mallinfo(arena+hblkhd)
          8108 MiB available memory on the node where the printing process lives
------------------
     ethr =  4.98E-03,  avg # of iterations =  2.0

     total cpu time spent up to now is     2001.9 secs

     total energy              =   -2343.87067042 Ry
     estimated scf accuracy    <       2.40207758 Ry

     total magnetization       =    -0.00 Bohr mag/cell
     absolute magnetization    =     0.52 Bohr mag/cell

     iteration #  5     ecut=    60.00 Ry     beta= 0.70
     Davidson diagonalization with overlap

---- Real-time Memory Report at c_bands before calling an iterative solver
           907 MiB given to the printing process from OS
             0 MiB allocation reported by mallinfo(arena+hblkhd)
          8093 MiB available memory on the node where the printing process lives
------------------
     ethr =  9.69E-04,  avg # of iterations = 11.0

     total cpu time spent up to now is     2544.7 secs

     total energy              =   -2344.13663096 Ry
     estimated scf accuracy    <       1.03262278 Ry

     total magnetization       =    -0.00 Bohr mag/cell
     absolute magnetization    =     0.36 Bohr mag/cell

     iteration #  6     ecut=    60.00 Ry     beta= 0.70
     Davidson diagonalization with overlap

---- Real-time Memory Report at c_bands before calling an iterative solver
           909 MiB given to the printing process from OS
             0 MiB allocation reported by mallinfo(arena+hblkhd)
          8080 MiB available memory on the node where the printing process lives
------------------
     ethr =  4.16E-04,  avg # of iterations = 12.2

     total cpu time spent up to now is     3097.9 secs

     total energy              =   -2344.29296138 Ry
     estimated scf accuracy    <       0.22618262 Ry

     total magnetization       =     0.00 Bohr mag/cell
     absolute magnetization    =     0.15 Bohr mag/cell

     iteration #  7     ecut=    60.00 Ry     beta= 0.70
     Davidson diagonalization with overlap

---- Real-time Memory Report at c_bands before calling an iterative solver
           912 MiB given to the printing process from OS
             0 MiB allocation reported by mallinfo(arena+hblkhd)
          8064 MiB available memory on the node where the printing process lives
------------------
     c_bands:  2 eigenvalues not converged
     c_bands:  2 eigenvalues not converged
     c_bands:  1 eigenvalues not converged
     ethr =  9.12E-05,  avg # of iterations = 12.7

     total cpu time spent up to now is     3733.8 secs

     total energy              =   -2344.35017246 Ry
     estimated scf accuracy    <       0.07306063 Ry

     total magnetization       =     0.00 Bohr mag/cell
     absolute magnetization    =     0.11 Bohr mag/cell

     iteration #  8     ecut=    60.00 Ry     beta= 0.70
     Davidson diagonalization with overlap

---- Real-time Memory Report at c_bands before calling an iterative solver
           914 MiB given to the printing process from OS
             0 MiB allocation reported by mallinfo(arena+hblkhd)
          8051 MiB available memory on the node where the printing process lives
------------------
     c_bands:  2 eigenvalues not converged
     c_bands:  1 eigenvalues not converged
     c_bands:  2 eigenvalues not converged
     c_bands:  1 eigenvalues not converged
     c_bands:  1 eigenvalues not converged
     c_bands:  2 eigenvalues not converged
     c_bands:  1 eigenvalues not converged
     ethr =  2.95E-05,  avg # of iterations = 11.9

     total cpu time spent up to now is     4328.1 secs

     total energy              =   -2344.37316702 Ry
     estimated scf accuracy    <       0.02262315 Ry

     total magnetization       =    -0.00 Bohr mag/cell
     absolute magnetization    =     0.07 Bohr mag/cell

     iteration #  9     ecut=    60.00 Ry     beta= 0.70
     Davidson diagonalization with overlap

---- Real-time Memory Report at c_bands before calling an iterative solver
           916 MiB given to the printing process from OS
             0 MiB allocation reported by mallinfo(arena+hblkhd)
          8037 MiB available memory on the node where the printing process lives
------------------
     c_bands:  3 eigenvalues not converged
     c_bands:  1 eigenvalues not converged
     c_bands:  1 eigenvalues not converged
     c_bands:  1 eigenvalues not converged
     c_bands:  1 eigenvalues not converged
     c_bands:  1 eigenvalues not converged
     c_bands:  1 eigenvalues not converged
     c_bands:  4 eigenvalues not converged
     c_bands:  1 eigenvalues not converged
     c_bands:  1 eigenvalues not converged
     c_bands:  2 eigenvalues not converged
     c_bands:  3 eigenvalues not converged
     ethr =  9.12E-06,  avg # of iterations = 15.5

     total cpu time spent up to now is     4863.0 secs

     total energy              =   -2344.37168180 Ry
     estimated scf accuracy    <       0.01322555 Ry

     total magnetization       =    -0.00 Bohr mag/cell
     absolute magnetization    =     0.05 Bohr mag/cell

     iteration # 10     ecut=    60.00 Ry     beta= 0.70
     Davidson diagonalization with overlap

---- Real-time Memory Report at c_bands before calling an iterative solver
           919 MiB given to the printing process from OS
             0 MiB allocation reported by mallinfo(arena+hblkhd)
          8022 MiB available memory on the node where the printing process lives
------------------
     c_bands:  2 eigenvalues not converged
     c_bands:  1 eigenvalues not converged
     c_bands:  1 eigenvalues not converged
     c_bands:  2 eigenvalues not converged
     ethr =  5.33E-06,  avg # of iterations =  6.4

     total cpu time spent up to now is     5300.3 secs

     total energy              =   -2344.37196918 Ry
     estimated scf accuracy    <       0.00636258 Ry

     total magnetization       =     0.00 Bohr mag/cell
     absolute magnetization    =     0.04 Bohr mag/cell

     iteration # 11     ecut=    60.00 Ry     beta= 0.70
     Davidson diagonalization with overlap

---- Real-time Memory Report at c_bands before calling an iterative solver
           919 MiB given to the printing process from OS
             0 MiB allocation reported by mallinfo(arena+hblkhd)
          8021 MiB available memory on the node where the printing process lives
------------------
     c_bands:  2 eigenvalues not converged
     c_bands:  1 eigenvalues not converged
     c_bands:  1 eigenvalues not converged
     c_bands:  1 eigenvalues not converged
     c_bands:  2 eigenvalues not converged
     ethr =  2.57E-06,  avg # of iterations =  9.4

     total cpu time spent up to now is     5977.1 secs

     total energy              =   -2344.37361992 Ry
     estimated scf accuracy    <       0.00542448 Ry

     total magnetization       =     0.00 Bohr mag/cell
     absolute magnetization    =     0.02 Bohr mag/cell

     iteration # 12     ecut=    60.00 Ry     beta= 0.70
     Davidson diagonalization with overlap

---- Real-time Memory Report at c_bands before calling an iterative solver
           919 MiB given to the printing process from OS
             0 MiB allocation reported by mallinfo(arena+hblkhd)
          8022 MiB available memory on the node where the printing process lives
------------------
     c_bands:  1 eigenvalues not converged
     ethr =  2.19E-06,  avg # of iterations =  2.9

     total cpu time spent up to now is     6347.0 secs

     total energy              =   -2344.37410367 Ry
     estimated scf accuracy    <       0.00089187 Ry

     total magnetization       =     0.00 Bohr mag/cell
     absolute magnetization    =     0.01 Bohr mag/cell

     iteration # 13     ecut=    60.00 Ry     beta= 0.70
     Davidson diagonalization with overlap

---- Real-time Memory Report at c_bands before calling an iterative solver
           919 MiB given to the printing process from OS
             0 MiB allocation reported by mallinfo(arena+hblkhd)
          8017 MiB available memory on the node where the printing process lives
------------------
     c_bands:  1 eigenvalues not converged
     ethr =  3.60E-07,  avg # of iterations =  6.7

     total cpu time spent up to now is     6909.7 secs

     total energy              =   -2344.37458437 Ry
     estimated scf accuracy    <       0.00010202 Ry

     total magnetization       =     0.00 Bohr mag/cell
     absolute magnetization    =     0.01 Bohr mag/cell

     iteration # 14     ecut=    60.00 Ry     beta= 0.70
     Davidson diagonalization with overlap

---- Real-time Memory Report at c_bands before calling an iterative solver
           919 MiB given to the printing process from OS
             0 MiB allocation reported by mallinfo(arena+hblkhd)
          8019 MiB available memory on the node where the printing process lives
------------------
     ethr =  4.11E-08,  avg # of iterations =  6.9

     total cpu time spent up to now is     7534.8 secs

     total energy              =   -2344.37462991 Ry
     estimated scf accuracy    <       0.00003469 Ry

     total magnetization       =    -0.00 Bohr mag/cell
     absolute magnetization    =     0.01 Bohr mag/cell

     iteration # 15     ecut=    60.00 Ry     beta= 0.70
     Davidson diagonalization with overlap

---- Real-time Memory Report at c_bands before calling an iterative solver
           919 MiB given to the printing process from OS
             0 MiB allocation reported by mallinfo(arena+hblkhd)
          8019 MiB available memory on the node where the printing process lives
------------------
     ethr =  1.40E-08,  avg # of iterations =  5.2

     total cpu time spent up to now is     8089.2 secs

     total energy              =   -2344.37464114 Ry
     estimated scf accuracy    <       0.00000979 Ry

     total magnetization       =     0.00 Bohr mag/cell
     absolute magnetization    =     0.01 Bohr mag/cell

     iteration # 16     ecut=    60.00 Ry     beta= 0.70
     Davidson diagonalization with overlap

---- Real-time Memory Report at c_bands before calling an iterative solver
           919 MiB given to the printing process from OS
             0 MiB allocation reported by mallinfo(arena+hblkhd)
          8019 MiB available memory on the node where the printing process lives
------------------
     ethr =  3.95E-09,  avg # of iterations =  5.7

     total cpu time spent up to now is     8701.8 secs

     total energy              =   -2344.37464615 Ry
     estimated scf accuracy    <       0.00000419 Ry

     total magnetization       =    -0.00 Bohr mag/cell
     absolute magnetization    =     0.00 Bohr mag/cell

     iteration # 17     ecut=    60.00 Ry     beta= 0.70
     Davidson diagonalization with overlap

---- Real-time Memory Report at c_bands before calling an iterative solver
           919 MiB given to the printing process from OS
             0 MiB allocation reported by mallinfo(arena+hblkhd)
          8019 MiB available memory on the node where the printing process lives
------------------
     ethr =  1.69E-09,  avg # of iterations =  2.6

     total cpu time spent up to now is     9098.8 secs

     total energy              =   -2344.37464640 Ry
     estimated scf accuracy    <       0.00000102 Ry

     total magnetization       =     0.00 Bohr mag/cell
     absolute magnetization    =     0.00 Bohr mag/cell

     iteration # 18     ecut=    60.00 Ry     beta= 0.70
     Davidson diagonalization with overlap

---- Real-time Memory Report at c_bands before calling an iterative solver
           919 MiB given to the printing process from OS
             0 MiB allocation reported by mallinfo(arena+hblkhd)
          8018 MiB available memory on the node where the printing process lives
------------------
     ethr =  4.11E-10,  avg # of iterations =  7.5

     Magnetic moment per site  (integrated on atomic sphere of radius R)
     atom   1 (R=0.220)  charge=  7.5972  magn= -0.0000
     atom   2 (R=0.220)  charge=  7.6022  magn= -0.0000
     atom   3 (R=0.155)  charge=  8.0861  magn= -0.0000
     atom   4 (R=0.155)  charge=  8.0796  magn= -0.0000
     atom   5 (R=0.155)  charge=  8.0823  magn= -0.0000
     atom   6 (R=0.155)  charge=  8.0835  magn= -0.0000
     atom   7 (R=0.124)  charge=  0.5177  magn= -0.0000
     atom   8 (R=0.124)  charge=  0.5177  magn= -0.0000
     atom   9 (R=0.124)  charge=  0.5154  magn= -0.0000
     atom  10 (R=0.124)  charge=  0.5154  magn= -0.0000
     atom  11 (R=0.124)  charge=  0.5144  magn= -0.0000
     atom  12 (R=0.124)  charge=  0.5144  magn= -0.0000
     atom  13 (R=0.136)  charge=  0.3447  magn= -0.0000
     atom  14 (R=0.136)  charge=  0.3447  magn= -0.0000
     atom  15 (R=0.075)  charge=  1.9349  magn=  0.0000
     atom  16 (R=0.075)  charge=  1.9349  magn=  0.0000
     atom  17 (R=0.075)  charge=  1.9423  magn=  0.0000
     atom  18 (R=0.075)  charge=  1.9423  magn=  0.0000
     atom  19 (R=0.075)  charge=  1.9435  magn=  0.0000
     atom  20 (R=0.075)  charge=  1.9435  magn=  0.0000
     atom  21 (R=0.075)  charge=  1.9343  magn= -0.0000
     atom  22 (R=0.075)  charge=  1.9343  magn= -0.0000
     atom  23 (R=0.075)  charge=  1.9430  magn=  0.0000
     atom  24 (R=0.075)  charge=  1.9430  magn=  0.0000
     atom  25 (R=0.075)  charge=  1.9530  magn=  0.0000
     atom  26 (R=0.075)  charge=  1.9530  magn=  0.0000
     atom  27 (R=0.075)  charge=  1.9473  magn=  0.0000
     atom  28 (R=0.075)  charge=  1.9473  magn=  0.0000
     atom  29 (R=0.075)  charge=  1.9490  magn=  0.0000
     atom  30 (R=0.075)  charge=  1.9490  magn=  0.0000
     atom  31 (R=0.075)  charge=  1.9455  magn=  0.0000
     atom  32 (R=0.075)  charge=  1.9455  magn=  0.0000
     atom  33 (R=0.075)  charge=  1.9474  magn=  0.0000
     atom  34 (R=0.075)  charge=  1.9474  magn=  0.0000
     atom  35 (R=0.075)  charge=  1.9384  magn=  0.0000
     atom  36 (R=0.075)  charge=  1.9384  magn=  0.0000
     atom  37 (R=0.075)  charge=  1.9443  magn=  0.0000
     atom  38 (R=0.075)  charge=  1.9443  magn=  0.0000
     atom  39 (R=0.075)  charge=  0.3772  magn= -0.0000
     atom  40 (R=0.075)  charge=  0.3772  magn= -0.0000
     atom  41 (R=0.075)  charge=  0.3996  magn= -0.0000
     atom  42 (R=0.075)  charge=  0.3996  magn= -0.0000
     atom  43 (R=0.149)  charge=  8.3952  magn=  0.0000

     total cpu time spent up to now is     9835.1 secs

     End of self-consistent calculation

 ------ SPIN UP ------------


          k = 0.0000 0.0000 0.0000 ( 26779 PWs)   bands (ev):

   -68.4215 -68.2879 -68.0813 -67.7196 -52.8523 -35.1976 -35.1601 -35.1596
   -35.0465 -35.0430 -35.0246 -34.8444 -34.8360 -34.8157 -34.4786 -34.4707
   -34.4610 -29.1688 -29.0816 -29.0572 -23.7203 -23.4899 -15.2762 -15.2333
   -14.6424 -14.5861 -14.1684 -13.8404 -13.8316 -13.7893 -13.7566 -13.7551
   -13.7333 -13.4539 -13.3009 -13.2557 -13.1537 -13.0958 -12.9827 -12.9671
   -12.9234 -12.6908 -12.5580 -12.4890 -12.4707 -12.3987  -7.2614  -7.2023
    -7.1907  -6.9999  -6.9829  -6.9614  -4.5591  -4.5061  -3.0041  -2.9131
    -2.1076  -1.9355  -1.6736  -1.6263  -1.6152  -1.2475  -1.2325  -1.1730
    -1.0669  -0.9308  -0.7080  -0.6292  -0.4530  -0.3672  -0.2305  -0.1111
     0.0261   0.0911   0.2625   0.3187   0.4339   0.4838   0.7672   0.8193
     0.8533   0.9134   1.0045   1.0939   1.1515   1.1824   1.3177   1.3875
     1.4699   1.6357   1.6429   1.6858   1.6951   1.8641   1.9440   2.0882
     2.1264   2.1593   2.2253   2.2793   2.3314   2.3573   2.4185   2.5647
     2.6594   2.7310   2.7732   2.8638   2.9443   2.9513   2.9605   2.9699
     2.9948   3.1111   3.1119   3.2555   3.3121   3.4330   3.4488   3.4890
     3.5002   3.6126   3.6608   3.7524   6.7357   6.9203   7.1513   8.6719
     9.3273   9.6277  10.1901  10.8847  11.1376  11.4242  11.5737  11.8337
    11.9681  12.3327  12.4497  12.5099  12.7150  12.7753  12.8393  13.0278
    13.0833  13.2401  13.3243  13.4219  13.4260

     occupation numbers 
     1.0000   1.0000   1.0000   1.0000   1.0000   1.0000   1.0000   1.0000
     1.0000   1.0000   1.0000   1.0000   1.0000   1.0000   1.0000   1.0000
     1.0000   1.0000   1.0000   1.0000   1.0000   1.0000   1.0000   1.0000
     1.0000   1.0000   1.0000   1.0000   1.0000   1.0000   1.0000   1.0000
     1.0000   1.0000   1.0000   1.0000   1.0000   1.0000   1.0000   1.0000
     1.0000   1.0000   1.0000   1.0000   1.0000   1.0000   1.0000   1.0000
     1.0000   1.0000   1.0000   1.0000   1.0000   1.0000   1.0000   1.0000
     1.0000   1.0000   1.0000   1.0000   1.0000   1.0000   1.0000   1.0000
     1.0000   1.0000   1.0000   1.0000   1.0000   1.0000   1.0000   1.0000
     1.0000   1.0000   1.0000   1.0000   1.0000   1.0000   1.0000   1.0000
     1.0000   1.0000   1.0000   1.0000   1.0000   1.0000   1.0000   1.0000
     1.0000   1.0000   1.0000   1.0000   1.0000   1.0000   1.0000   1.0000
     1.0000   1.0000   1.0000   1.0000   1.0000   1.0000   1.0000   1.0000
     1.0000   1.0000   1.0000   1.0000   1.0000   1.0000   1.0000   1.0000
     1.0000   1.0000   1.0000   1.0000   1.0000   1.0000   1.0000   1.0000
     1.0000   1.0000   1.0000   1.0000   0.0000   0.0000   0.0000   0.0000
     0.0000   0.0000   0.0000   0.0000   0.0000   0.0000   0.0000   0.0000
     0.0000   0.0000   0.0000   0.0000   0.0000   0.0000   0.0000   0.0000
     0.0000   0.0000   0.0000   0.0000   0.0000

          k = 0.0000 0.0000 0.1730 ( 26756 PWs)   bands (ev):

   -68.4215 -68.2879 -68.0813 -67.7196 -52.8523 -35.1976 -35.1600 -35.1596
   -35.0465 -35.0430 -35.0246 -34.8444 -34.8360 -34.8156 -34.4786 -34.4707
   -34.4610 -29.1688 -29.0816 -29.0572 -23.7203 -23.4899 -15.2660 -15.2442
   -14.6301 -14.5990 -14.1663 -13.8540 -13.8263 -13.7828 -13.7666 -13.7480
   -13.7295 -13.4540 -13.2922 -13.2662 -13.1438 -13.1040 -12.9850 -12.9647
   -12.9223 -12.6877 -12.5598 -12.4859 -12.4724 -12.4023  -7.2614  -7.2023
    -7.1907  -6.9999  -6.9828  -6.9614  -4.5522  -4.5133  -2.9834  -2.9362
    -2.0902  -1.9299  -1.6772  -1.6464  -1.5986  -1.2427  -1.2337  -1.1559
    -1.0734  -0.8846  -0.7664  -0.6520  -0.4220  -0.3567  -0.3215  -0.1195
     0.0286   0.1168   0.2001   0.3261   0.4478   0.4764   0.7541   0.7726
     0.8824   0.9101   1.0350   1.1231   1.1658   1.2364   1.2657   1.4384
     1.6155   1.6272   1.6698   1.6922   1.7448   1.8738   1.8854   2.0683
     2.1249   2.1528   2.1903   2.2375   2.2837   2.3563   2.4553   2.4882
     2.6642   2.7264   2.7769   2.8359   2.9051   2.9566   2.9650   3.0134
     3.0527   3.0870   3.1264   3.2520   3.2957   3.3762   3.4627   3.4775
     3.4890   3.6393   3.6745   3.7542   6.7365   6.9220   7.1486   8.9717
     9.3161   9.6188   9.7008  10.9830  11.1989  11.3611  11.6161  11.7529
    12.1257  12.2981  12.5625  12.6689  12.7203  12.8377  12.8712  12.9598
    13.0937  13.1826  13.2540  13.3862  13.4568

     occupation numbers 
     1.0000   1.0000   1.0000   1.0000   1.0000   1.0000   1.0000   1.0000
     1.0000   1.0000   1.0000   1.0000   1.0000   1.0000   1.0000   1.0000
     1.0000   1.0000   1.0000   1.0000   1.0000   1.0000   1.0000   1.0000
     1.0000   1.0000   1.0000   1.0000   1.0000   1.0000   1.0000   1.0000
     1.0000   1.0000   1.0000   1.0000   1.0000   1.0000   1.0000   1.0000
     1.0000   1.0000   1.0000   1.0000   1.0000   1.0000   1.0000   1.0000
     1.0000   1.0000   1.0000   1.0000   1.0000   1.0000   1.0000   1.0000
     1.0000   1.0000   1.0000   1.0000   1.0000   1.0000   1.0000   1.0000
     1.0000   1.0000   1.0000   1.0000   1.0000   1.0000   1.0000   1.0000
     1.0000   1.0000   1.0000   1.0000   1.0000   1.0000   1.0000   1.0000
     1.0000   1.0000   1.0000   1.0000   1.0000   1.0000   1.0000   1.0000
     1.0000   1.0000   1.0000   1.0000   1.0000   1.0000   1.0000   1.0000
     1.0000   1.0000   1.0000   1.0000   1.0000   1.0000   1.0000   1.0000
     1.0000   1.0000   1.0000   1.0000   1.0000   1.0000   1.0000   1.0000
     1.0000   1.0000   1.0000   1.0000   1.0000   1.0000   1.0000   1.0000
     1.0000   1.0000   1.0000   1.0000   0.0000   0.0000   0.0000   0.0000
     0.0000   0.0000   0.0000   0.0000   0.0000   0.0000   0.0000   0.0000
     0.0000   0.0000   0.0000   0.0000   0.0000   0.0000   0.0000   0.0000
     0.0000   0.0000   0.0000   0.0000   0.0000

          k = 0.0000 0.1920 0.0000 ( 26787 PWs)   bands (ev):

   -68.4215 -68.2879 -68.0813 -67.7196 -52.8523 -35.1976 -35.1601 -35.1596
   -35.0465 -35.0430 -35.0246 -34.8444 -34.8360 -34.8157 -34.4786 -34.4707
   -34.4610 -29.1688 -29.0816 -29.0572 -23.7203 -23.4899 -15.2624 -15.2236
   -14.6994 -14.6236 -14.1136 -13.8304 -13.7917 -13.7800 -13.7549 -13.7412
   -13.7031 -13.4533 -13.3362 -13.2950 -13.1785 -13.1085 -12.9849 -12.9677
   -12.9150 -12.6934 -12.5504 -12.4796 -12.4763 -12.3923  -7.2613  -7.2023
    -7.1906  -7.0003  -6.9827  -6.9615  -4.4995  -4.4449  -3.1707  -3.0888
    -2.1033  -1.9033  -1.6720  -1.5034  -1.4430  -1.2205  -1.2196  -1.1801
    -1.0766  -1.0356  -0.7267  -0.6227  -0.4650  -0.2967  -0.2486  -0.1548
    -0.0386   0.1448   0.2796   0.2948   0.4233   0.4641   0.6849   0.7197
     0.8441   0.9899   1.0322   1.1722   1.2865   1.3054   1.3880   1.4289
     1.5269   1.6241   1.6377   1.6722   1.6848   1.7773   1.8198   1.9998
     2.0871   2.1814   2.1964   2.3348   2.3457   2.3909   2.4878   2.5528
     2.6307   2.6904   2.8095   2.8395   2.9113   2.9450   2.9828   3.0436
     3.0479   3.1300   3.1648   3.2245   3.2732   3.3479   3.4048   3.4099
     3.4207   3.5882   3.6862   3.7295   6.7488   6.9251   7.1496   9.0507
     9.2531   9.6313  10.0470  10.4551  11.1347  11.4060  11.6558  12.0612
    12.1939  12.3150  12.4745  12.5044  12.5985  12.8377  12.8973  12.9834
    13.0765  13.1855  13.2035  13.2960  13.4302

     occupation numbers 
     1.0000   1.0000   1.0000   1.0000   1.0000   1.0000   1.0000   1.0000
     1.0000   1.0000   1.0000   1.0000   1.0000   1.0000   1.0000   1.0000
     1.0000   1.0000   1.0000   1.0000   1.0000   1.0000   1.0000   1.0000
     1.0000   1.0000   1.0000   1.0000   1.0000   1.0000   1.0000   1.0000
     1.0000   1.0000   1.0000   1.0000   1.0000   1.0000   1.0000   1.0000
     1.0000   1.0000   1.0000   1.0000   1.0000   1.0000   1.0000   1.0000
     1.0000   1.0000   1.0000   1.0000   1.0000   1.0000   1.0000   1.0000
     1.0000   1.0000   1.0000   1.0000   1.0000   1.0000   1.0000   1.0000
     1.0000   1.0000   1.0000   1.0000   1.0000   1.0000   1.0000   1.0000
     1.0000   1.0000   1.0000   1.0000   1.0000   1.0000   1.0000   1.0000
     1.0000   1.0000   1.0000   1.0000   1.0000   1.0000   1.0000   1.0000
     1.0000   1.0000   1.0000   1.0000   1.0000   1.0000   1.0000   1.0000
     1.0000   1.0000   1.0000   1.0000   1.0000   1.0000   1.0000   1.0000
     1.0000   1.0000   1.0000   1.0000   1.0000   1.0000   1.0000   1.0000
     1.0000   1.0000   1.0000   1.0000   1.0000   1.0000   1.0000   1.0000
     1.0000   1.0000   1.0000   1.0000   0.0000   0.0000   0.0000   0.0000
     0.0000   0.0000   0.0000   0.0000   0.0000   0.0000   0.0000   0.0000
     0.0000   0.0000   0.0000   0.0000   0.0000   0.0000   0.0000   0.0000
     0.0000   0.0000   0.0000   0.0000   0.0000

          k = 0.0000 0.1920 0.1730 ( 26783 PWs)   bands (ev):

   -68.4215 -68.2879 -68.0813 -67.7196 -52.8523 -35.1976 -35.1601 -35.1596
   -35.0465 -35.0430 -35.0246 -34.8444 -34.8360 -34.8156 -34.4786 -34.4707
   -34.4610 -29.1688 -29.0816 -29.0572 -23.7203 -23.4899 -15.2530 -15.2336
   -14.6878 -14.6369 -14.1113 -13.8275 -13.7913 -13.7804 -13.7648 -13.7428
   -13.6946 -13.4534 -13.3268 -13.3060 -13.1699 -13.1163 -12.9865 -12.9659
   -12.9133 -12.6906 -12.5527 -12.4784 -12.4758 -12.3956  -7.2613  -7.2023
    -7.1905  -7.0003  -6.9826  -6.9615  -4.4900  -4.4548  -3.1515  -3.1094
    -2.0896  -1.9010  -1.6767  -1.4884  -1.4581  -1.2206  -1.2099  -1.1644
    -1.0847  -0.9868  -0.7822  -0.6559  -0.4299  -0.3523  -0.2847  -0.1605
    -0.0221   0.1566   0.2152   0.3160   0.4317   0.4483   0.6971   0.7234
     0.8363   1.0049   1.0471   1.2402   1.2681   1.3163   1.4245   1.4612
     1.6028   1.6310   1.6571   1.6703   1.7126   1.7703   1.8078   1.9524
     2.1027   2.1774   2.2093   2.2385   2.3282   2.3460   2.4588   2.5433
     2.6627   2.6959   2.7821   2.8410   2.9028   2.9517   3.0034   3.0379
     3.0866   3.1277   3.1382   3.2303   3.2638   3.3326   3.3851   3.4009
     3.4273   3.6090   3.6937   3.7348   6.7496   6.9273   7.1464   9.1479
     9.3975   9.6434  10.0062  10.2488  10.7518  11.4120  11.8690  12.1094
    12.2342  12.3786  12.5398  12.6956  12.7665  12.8458  12.9464  12.9940
    13.0283  13.1492  13.2248  13.2897  13.3870

     occupation numbers 
     1.0000   1.0000   1.0000   1.0000   1.0000   1.0000   1.0000   1.0000
     1.0000   1.0000   1.0000   1.0000   1.0000   1.0000   1.0000   1.0000
     1.0000   1.0000   1.0000   1.0000   1.0000   1.0000   1.0000   1.0000
     1.0000   1.0000   1.0000   1.0000   1.0000   1.0000   1.0000   1.0000
     1.0000   1.0000   1.0000   1.0000   1.0000   1.0000   1.0000   1.0000
     1.0000   1.0000   1.0000   1.0000   1.0000   1.0000   1.0000   1.0000
     1.0000   1.0000   1.0000   1.0000   1.0000   1.0000   1.0000   1.0000
     1.0000   1.0000   1.0000   1.0000   1.0000   1.0000   1.0000   1.0000
     1.0000   1.0000   1.0000   1.0000   1.0000   1.0000   1.0000   1.0000
     1.0000   1.0000   1.0000   1.0000   1.0000   1.0000   1.0000   1.0000
     1.0000   1.0000   1.0000   1.0000   1.0000   1.0000   1.0000   1.0000
     1.0000   1.0000   1.0000   1.0000   1.0000   1.0000   1.0000   1.0000
     1.0000   1.0000   1.0000   1.0000   1.0000   1.0000   1.0000   1.0000
     1.0000   1.0000   1.0000   1.0000   1.0000   1.0000   1.0000   1.0000
     1.0000   1.0000   1.0000   1.0000   1.0000   1.0000   1.0000   1.0000
     1.0000   1.0000   1.0000   1.0000   0.0000   0.0000   0.0000   0.0000
     0.0000   0.0000   0.0000   0.0000   0.0000   0.0000   0.0000   0.0000
     0.0000   0.0000   0.0000   0.0000   0.0000   0.0000   0.0000   0.0000
     0.0000   0.0000   0.0000   0.0000   0.0000

          k = 0.1667 0.0000 0.0298 ( 26772 PWs)   bands (ev):

   -68.4215 -68.2879 -68.0813 -67.7196 -52.8523 -35.1975 -35.1601 -35.1596
   -35.0465 -35.0430 -35.0246 -34.8443 -34.8360 -34.8156 -34.4786 -34.4708
   -34.4610 -29.1690 -29.0816 -29.0573 -23.7201 -23.4898 -15.2265 -15.1844
   -14.6197 -14.5700 -14.1663 -13.9653 -13.9486 -13.7864 -13.7572 -13.6974
   -13.6743 -13.4703 -13.3183 -13.2693 -13.1462 -13.0975 -13.0398 -12.9932
   -12.8709 -12.6827 -12.5660 -12.5077 -12.4717 -12.3944  -7.2623  -7.2019
    -7.1898  -7.0025  -6.9824  -6.9585  -4.4060  -4.3536  -2.9270  -2.8346
    -2.0814  -1.9676  -1.8086  -1.7428  -1.6873  -1.2502  -1.2034  -1.1871
    -1.0552  -0.8519  -0.7167  -0.5630  -0.4295  -0.3319  -0.2262  -0.0990
     0.0154   0.0839   0.1362   0.3111   0.4290   0.4842   0.6322   0.6412
     0.8949   0.9823   1.0631   1.1313   1.1879   1.2307   1.3618   1.3760
     1.4661   1.5955   1.6099   1.6845   1.8433   1.8842   1.9745   2.0332
     2.0543   2.1643   2.2330   2.2710   2.2990   2.4029   2.4298   2.5673
     2.6266   2.7112   2.7437   2.7998   2.8703   2.9003   2.9381   2.9806
     3.0191   3.0818   3.1210   3.2097   3.2897   3.3707   3.4137   3.4347
     3.5020   3.5750   3.6594   3.6855   6.7409   6.9466   7.1175   8.9726
     9.3292   9.5869  10.3968  10.9761  11.2617  11.5256  11.6593  11.9382
    12.0367  12.4059  12.4684  12.5850  12.6425  12.6818  12.7632  12.9961
    13.0379  13.1738  13.2512  13.3681  13.4371

     occupation numbers 
     1.0000   1.0000   1.0000   1.0000   1.0000   1.0000   1.0000   1.0000
     1.0000   1.0000   1.0000   1.0000   1.0000   1.0000   1.0000   1.0000
     1.0000   1.0000   1.0000   1.0000   1.0000   1.0000   1.0000   1.0000
     1.0000   1.0000   1.0000   1.0000   1.0000   1.0000   1.0000   1.0000
     1.0000   1.0000   1.0000   1.0000   1.0000   1.0000   1.0000   1.0000
     1.0000   1.0000   1.0000   1.0000   1.0000   1.0000   1.0000   1.0000
     1.0000   1.0000   1.0000   1.0000   1.0000   1.0000   1.0000   1.0000
     1.0000   1.0000   1.0000   1.0000   1.0000   1.0000   1.0000   1.0000
     1.0000   1.0000   1.0000   1.0000   1.0000   1.0000   1.0000   1.0000
     1.0000   1.0000   1.0000   1.0000   1.0000   1.0000   1.0000   1.0000
     1.0000   1.0000   1.0000   1.0000   1.0000   1.0000   1.0000   1.0000
     1.0000   1.0000   1.0000   1.0000   1.0000   1.0000   1.0000   1.0000
     1.0000   1.0000   1.0000   1.0000   1.0000   1.0000   1.0000   1.0000
     1.0000   1.0000   1.0000   1.0000   1.0000   1.0000   1.0000   1.0000
     1.0000   1.0000   1.0000   1.0000   1.0000   1.0000   1.0000   1.0000
     1.0000   1.0000   1.0000   1.0000   0.0000   0.0000   0.0000   0.0000
     0.0000   0.0000   0.0000   0.0000   0.0000   0.0000   0.0000   0.0000
     0.0000   0.0000   0.0000   0.0000   0.0000   0.0000   0.0000   0.0000
     0.0000   0.0000   0.0000   0.0000   0.0000

          k = 0.1667 0.0000 0.2028 ( 26774 PWs)   bands (ev):

   -68.4215 -68.2879 -68.0813 -67.7196 -52.8523 -35.1975 -35.1601 -35.1596
   -35.0465 -35.0430 -35.0246 -34.8443 -34.8360 -34.8156 -34.4786 -34.4708
   -34.4610 -29.1690 -29.0816 -29.0573 -23.7201 -23.4898 -15.2139 -15.1978
   -14.6060 -14.5843 -14.1621 -13.9839 -13.9343 -13.7871 -13.7537 -13.7064
   -13.6668 -13.4701 -13.3154 -13.2730 -13.1385 -13.1032 -13.0318 -13.0058
   -12.8658 -12.6792 -12.5676 -12.5091 -12.4704 -12.3978  -7.2623  -7.2019
    -7.1897  -7.0026  -6.9824  -6.9585  -4.4027  -4.3571  -2.9117  -2.8525
    -2.0624  -1.9523  -1.8443  -1.7271  -1.6869  -1.2326  -1.2017  -1.1979
    -1.0471  -0.7951  -0.7799  -0.5862  -0.4108  -0.3219  -0.2980  -0.0991
    -0.0081   0.0769   0.1584   0.3147   0.4374   0.4804   0.5600   0.6423
     0.8903   0.9844   1.0954   1.1091   1.2430   1.2710   1.3410   1.4313
     1.5300   1.6025   1.6681   1.7550   1.8485   1.8884   1.9113   2.0156
     2.0676   2.1541   2.1917   2.2325   2.2600   2.3650   2.4561   2.4832
     2.6367   2.7477   2.7757   2.7941   2.8311   2.8941   2.9382   3.0002
     3.0234   3.1007   3.1352   3.2165   3.2713   3.3355   3.4021   3.4189
     3.4899   3.5988   3.6718   3.6988   6.7409   6.9483   7.1152   9.2557
     9.3230   9.6727   9.8107  11.0602  11.3176  11.4306  11.7751  11.8248
    12.1207  12.4005  12.4448  12.6055  12.7977  12.8218  12.9061  13.0145
    13.1051  13.1813  13.2502  13.2840  13.3474

     occupation numbers 
     1.0000   1.0000   1.0000   1.0000   1.0000   1.0000   1.0000   1.0000
     1.0000   1.0000   1.0000   1.0000   1.0000   1.0000   1.0000   1.0000
     1.0000   1.0000   1.0000   1.0000   1.0000   1.0000   1.0000   1.0000
     1.0000   1.0000   1.0000   1.0000   1.0000   1.0000   1.0000   1.0000
     1.0000   1.0000   1.0000   1.0000   1.0000   1.0000   1.0000   1.0000
     1.0000   1.0000   1.0000   1.0000   1.0000   1.0000   1.0000   1.0000
     1.0000   1.0000   1.0000   1.0000   1.0000   1.0000   1.0000   1.0000
     1.0000   1.0000   1.0000   1.0000   1.0000   1.0000   1.0000   1.0000
     1.0000   1.0000   1.0000   1.0000   1.0000   1.0000   1.0000   1.0000
     1.0000   1.0000   1.0000   1.0000   1.0000   1.0000   1.0000   1.0000
     1.0000   1.0000   1.0000   1.0000   1.0000   1.0000   1.0000   1.0000
     1.0000   1.0000   1.0000   1.0000   1.0000   1.0000   1.0000   1.0000
     1.0000   1.0000   1.0000   1.0000   1.0000   1.0000   1.0000   1.0000
     1.0000   1.0000   1.0000   1.0000   1.0000   1.0000   1.0000   1.0000
     1.0000   1.0000   1.0000   1.0000   1.0000   1.0000   1.0000   1.0000
     1.0000   1.0000   1.0000   1.0000   0.0000   0.0000   0.0000   0.0000
     0.0000   0.0000   0.0000   0.0000   0.0000   0.0000   0.0000   0.0000
     0.0000   0.0000   0.0000   0.0000   0.0000   0.0000   0.0000   0.0000
     0.0000   0.0000   0.0000   0.0000   0.0000

          k = 0.1667 0.0000-0.1432 ( 26772 PWs)   bands (ev):

   -68.4215 -68.2879 -68.0813 -67.7196 -52.8523 -35.1975 -35.1601 -35.1596
   -35.0465 -35.0430 -35.0246 -34.8443 -34.8360 -34.8156 -34.4786 -34.4708
   -34.4610 -29.1690 -29.0816 -29.0573 -23.7201 -23.4898 -15.2189 -15.1926
   -14.6098 -14.5806 -14.1628 -13.9789 -13.9382 -13.7882 -13.7566 -13.6945
   -13.6751 -13.4705 -13.3046 -13.2846 -13.1361 -13.1086 -13.0306 -13.0018
   -12.8682 -12.6796 -12.5669 -12.5065 -12.4708 -12.3990  -7.2624  -7.2019
    -7.1897  -7.0026  -6.9824  -6.9585  -4.3943  -4.3657  -2.9053  -2.8587
    -2.0702  -1.9555  -1.8321  -1.7312  -1.6896  -1.2366  -1.2017  -1.1900
    -1.0509  -0.8291  -0.7354  -0.5890  -0.3958  -0.3494  -0.2893  -0.0931
    -0.0126   0.0734   0.1724   0.2873   0.4299   0.4968   0.6143   0.6707
     0.9098   0.9507   1.0441   1.1077   1.2404   1.2740   1.3291   1.4258
     1.5573   1.5704   1.6160   1.7125   1.8706   1.8848   1.9201   2.0288
     2.0623   2.1449   2.2356   2.2529   2.2720   2.3839   2.4542   2.5586
     2.6443   2.6978   2.7850   2.8049   2.8571   2.8897   2.8978   2.9545
     3.0022   3.0753   3.1498   3.2003   3.2996   3.3657   3.3939   3.4163
     3.4876   3.5976   3.6657   3.7106   6.7410   6.9473   7.1176   9.1648
     9.3218   9.5279  10.1129  11.0893  11.3707  11.4334  11.7042  11.8622
    12.0736  12.3987  12.5286  12.5801  12.7288  12.7695  12.8434  12.8887
    13.0942  13.1376  13.2478  13.3119  13.3975

     occupation numbers 
     1.0000   1.0000   1.0000   1.0000   1.0000   1.0000   1.0000   1.0000
     1.0000   1.0000   1.0000   1.0000   1.0000   1.0000   1.0000   1.0000
     1.0000   1.0000   1.0000   1.0000   1.0000   1.0000   1.0000   1.0000
     1.0000   1.0000   1.0000   1.0000   1.0000   1.0000   1.0000   1.0000
     1.0000   1.0000   1.0000   1.0000   1.0000   1.0000   1.0000   1.0000
     1.0000   1.0000   1.0000   1.0000   1.0000   1.0000   1.0000   1.0000
     1.0000   1.0000   1.0000   1.0000   1.0000   1.0000   1.0000   1.0000
     1.0000   1.0000   1.0000   1.0000   1.0000   1.0000   1.0000   1.0000
     1.0000   1.0000   1.0000   1.0000   1.0000   1.0000   1.0000   1.0000
     1.0000   1.0000   1.0000   1.0000   1.0000   1.0000   1.0000   1.0000
     1.0000   1.0000   1.0000   1.0000   1.0000   1.0000   1.0000   1.0000
     1.0000   1.0000   1.0000   1.0000   1.0000   1.0000   1.0000   1.0000
     1.0000   1.0000   1.0000   1.0000   1.0000   1.0000   1.0000   1.0000
     1.0000   1.0000   1.0000   1.0000   1.0000   1.0000   1.0000   1.0000
     1.0000   1.0000   1.0000   1.0000   1.0000   1.0000   1.0000   1.0000
     1.0000   1.0000   1.0000   1.0000   0.0000   0.0000   0.0000   0.0000
     0.0000   0.0000   0.0000   0.0000   0.0000   0.0000   0.0000   0.0000
     0.0000   0.0000   0.0000   0.0000   0.0000   0.0000   0.0000   0.0000
     0.0000   0.0000   0.0000   0.0000   0.0000

          k = 0.1667 0.1920 0.0298 ( 26762 PWs)   bands (ev):

   -68.4215 -68.2879 -68.0813 -67.7196 -52.8523 -35.1975 -35.1601 -35.1596
   -35.0465 -35.0430 -35.0246 -34.8443 -34.8360 -34.8156 -34.4786 -34.4708
   -34.4610 -29.1690 -29.0816 -29.0573 -23.7201 -23.4898 -15.2136 -15.1754
   -14.6734 -14.6048 -14.1126 -13.9409 -13.9227 -13.7884 -13.7647 -13.6807
   -13.6521 -13.4712 -13.3472 -13.3012 -13.1666 -13.1069 -13.0323 -12.9892
   -12.8695 -12.6846 -12.5589 -12.5077 -12.4707 -12.3901  -7.2622  -7.2019
    -7.1897  -7.0030  -6.9821  -6.9586  -4.3508  -4.2970  -3.1033  -3.0237
    -2.0724  -1.8964  -1.7001  -1.6408  -1.5893  -1.3071  -1.2165  -1.1667
    -1.0587  -0.9023  -0.7158  -0.5416  -0.4116  -0.2675  -0.2596  -0.1690
    -0.0375   0.0849   0.1572   0.3065   0.3939   0.4871   0.5421   0.7135
     0.9266   0.9500   1.0617   1.2055   1.2751   1.3020   1.3638   1.4184
     1.5020   1.5460   1.5908   1.6655   1.7984   1.8235   1.9268   2.0171
     2.0621   2.1539   2.2155   2.2985   2.3096   2.4321   2.4814   2.5342
     2.6261   2.7042   2.7884   2.8246   2.8676   2.9278   2.9684   2.9971
     3.0495   3.0754   3.1122   3.1459   3.2495   3.3216   3.3526   3.4198
     3.4445   3.5452   3.6794   3.6988   6.7540   6.9499   7.1146   9.2425
     9.3366   9.6033  10.2264  10.6136  11.2539  11.4493  11.7642  12.0581
    12.2492  12.3447  12.4522  12.5871  12.6528  12.7675  12.8626  12.9742
    13.0783  13.1213  13.2303  13.3087  13.3188

     occupation numbers 
     1.0000   1.0000   1.0000   1.0000   1.0000   1.0000   1.0000   1.0000
     1.0000   1.0000   1.0000   1.0000   1.0000   1.0000   1.0000   1.0000
     1.0000   1.0000   1.0000   1.0000   1.0000   1.0000   1.0000   1.0000
     1.0000   1.0000   1.0000   1.0000   1.0000   1.0000   1.0000   1.0000
     1.0000   1.0000   1.0000   1.0000   1.0000   1.0000   1.0000   1.0000
     1.0000   1.0000   1.0000   1.0000   1.0000   1.0000   1.0000   1.0000
     1.0000   1.0000   1.0000   1.0000   1.0000   1.0000   1.0000   1.0000
     1.0000   1.0000   1.0000   1.0000   1.0000   1.0000   1.0000   1.0000
     1.0000   1.0000   1.0000   1.0000   1.0000   1.0000   1.0000   1.0000
     1.0000   1.0000   1.0000   1.0000   1.0000   1.0000   1.0000   1.0000
     1.0000   1.0000   1.0000   1.0000   1.0000   1.0000   1.0000   1.0000
     1.0000   1.0000   1.0000   1.0000   1.0000   1.0000   1.0000   1.0000
     1.0000   1.0000   1.0000   1.0000   1.0000   1.0000   1.0000   1.0000
     1.0000   1.0000   1.0000   1.0000   1.0000   1.0000   1.0000   1.0000
     1.0000   1.0000   1.0000   1.0000   1.0000   1.0000   1.0000   1.0000
     1.0000   1.0000   1.0000   1.0000   0.0000   0.0000   0.0000   0.0000
     0.0000   0.0000   0.0000   0.0000   0.0000   0.0000   0.0000   0.0000
     0.0000   0.0000   0.0000   0.0000   0.0000   0.0000   0.0000   0.0000
     0.0000   0.0000   0.0000   0.0000   0.0000

          k = 0.1667 0.1920 0.2028 ( 26761 PWs)   bands (ev):

   -68.4215 -68.2879 -68.0813 -67.7196 -52.8523 -35.1975 -35.1601 -35.1596
   -35.0465 -35.0430 -35.0246 -34.8443 -34.8360 -34.8156 -34.4786 -34.4708
   -34.4610 -29.1690 -29.0816 -29.0573 -23.7201 -23.4898 -15.2019 -15.1876
   -14.6593 -14.6206 -14.1093 -13.9421 -13.9244 -13.7875 -13.7604 -13.6928
   -13.6433 -13.4712 -13.3430 -13.3063 -13.1583 -13.1149 -13.0222 -13.0019
   -12.8645 -12.6816 -12.5610 -12.5099 -12.4682 -12.3932  -7.2622  -7.2019
    -7.1896  -7.0030  -6.9821  -6.9586  -4.3442  -4.3038  -3.0876  -3.0408
    -2.0586  -1.8938  -1.7078  -1.6363  -1.5918  -1.2967  -1.2221  -1.1627
    -1.0405  -0.8606  -0.7676  -0.5697  -0.3966  -0.3425  -0.2511  -0.1713
    -0.0260   0.0641   0.1704   0.3056   0.3876   0.4785   0.5244   0.7088
     0.9206   0.9526   1.0771   1.2104   1.2578   1.3744   1.4069   1.4447
     1.5361   1.5754   1.6328   1.7298   1.7987   1.8378   1.8628   1.9994
     2.0637   2.1380   2.1768   2.2451   2.2745   2.3793   2.4597   2.5329
     2.6446   2.7321   2.7770   2.8228   2.8897   2.9278   2.9765   2.9890
     3.0526   3.0715   3.1177   3.1732   3.2292   3.3176   3.3398   3.3860
     3.4390   3.5681   3.6914   3.7068   6.7539   6.9520   7.1120   9.2219
     9.5058   9.7468  10.1158  10.4594  10.8404  11.4350  11.9522  12.1685
    12.2439  12.3712  12.4960  12.7297  12.7764  12.9015  12.9450  12.9688
    13.1079  13.1595  13.2287  13.2526  13.3017

     occupation numbers 
     1.0000   1.0000   1.0000   1.0000   1.0000   1.0000   1.0000   1.0000
     1.0000   1.0000   1.0000   1.0000   1.0000   1.0000   1.0000   1.0000
     1.0000   1.0000   1.0000   1.0000   1.0000   1.0000   1.0000   1.0000
     1.0000   1.0000   1.0000   1.0000   1.0000   1.0000   1.0000   1.0000
     1.0000   1.0000   1.0000   1.0000   1.0000   1.0000   1.0000   1.0000
     1.0000   1.0000   1.0000   1.0000   1.0000   1.0000   1.0000   1.0000
     1.0000   1.0000   1.0000   1.0000   1.0000   1.0000   1.0000   1.0000
     1.0000   1.0000   1.0000   1.0000   1.0000   1.0000   1.0000   1.0000
     1.0000   1.0000   1.0000   1.0000   1.0000   1.0000   1.0000   1.0000
     1.0000   1.0000   1.0000   1.0000   1.0000   1.0000   1.0000   1.0000
     1.0000   1.0000   1.0000   1.0000   1.0000   1.0000   1.0000   1.0000
     1.0000   1.0000   1.0000   1.0000   1.0000   1.0000   1.0000   1.0000
     1.0000   1.0000   1.0000   1.0000   1.0000   1.0000   1.0000   1.0000
     1.0000   1.0000   1.0000   1.0000   1.0000   1.0000   1.0000   1.0000
     1.0000   1.0000   1.0000   1.0000   1.0000   1.0000   1.0000   1.0000
     1.0000   1.0000   1.0000   1.0000   0.0000   0.0000   0.0000   0.0000
     0.0000   0.0000   0.0000   0.0000   0.0000   0.0000   0.0000   0.0000
     0.0000   0.0000   0.0000   0.0000   0.0000   0.0000   0.0000   0.0000
     0.0000   0.0000   0.0000   0.0000   0.0000

          k = 0.1667 0.1920-0.1432 ( 26775 PWs)   bands (ev):

   -68.4215 -68.2879 -68.0813 -67.7196 -52.8523 -35.1975 -35.1601 -35.1596
   -35.0465 -35.0430 -35.0246 -34.8443 -34.8360 -34.8156 -34.4786 -34.4708
   -34.4610 -29.1690 -29.0816 -29.0573 -23.7201 -23.4898 -15.2068 -15.1826
   -14.6633 -14.6164 -14.1092 -13.9451 -13.9215 -13.7886 -13.7625 -13.6817
   -13.6517 -13.4716 -13.3325 -13.3173 -13.1568 -13.1177 -13.0236 -12.9974
   -12.8666 -12.6819 -12.5597 -12.5079 -12.4685 -12.3945  -7.2623  -7.2019
    -7.1896  -7.0030  -6.9821  -6.9586  -4.3375  -4.3107  -3.0812  -3.0474
    -2.0639  -1.8942  -1.7051  -1.6308  -1.5981  -1.2982  -1.2211  -1.1597
    -1.0446  -0.8693  -0.7548  -0.5696  -0.3890  -0.3306  -0.2602  -0.1629
    -0.0564   0.0744   0.1698   0.3021   0.3898   0.5088   0.5201   0.7305
     0.9063   0.9751   1.0959   1.1714   1.2650   1.3605   1.3942   1.4495
     1.5131   1.5453   1.5943   1.6983   1.7816   1.8373   1.8854   2.0298
     2.0485   2.1473   2.2274   2.2646   2.2944   2.4103   2.4953   2.5346
     2.6578   2.6911   2.7774   2.8105   2.8595   2.8933   3.0029   3.0142
     3.0251   3.0691   3.1016   3.1729   3.2551   3.3137   3.3405   3.3785
     3.4373   3.5654   3.6884   3.7165   6.7544   6.9508   7.1150   9.1880
     9.5310   9.6084  10.3132  10.3957  10.9786  11.4974  11.8927  12.1209
    12.2040  12.3976  12.4718  12.6702  12.7265  12.8415  12.9434  12.9708
    13.0713  13.1274  13.1982  13.2867  13.3624

     occupation numbers 
     1.0000   1.0000   1.0000   1.0000   1.0000   1.0000   1.0000   1.0000
     1.0000   1.0000   1.0000   1.0000   1.0000   1.0000   1.0000   1.0000
     1.0000   1.0000   1.0000   1.0000   1.0000   1.0000   1.0000   1.0000
     1.0000   1.0000   1.0000   1.0000   1.0000   1.0000   1.0000   1.0000
     1.0000   1.0000   1.0000   1.0000   1.0000   1.0000   1.0000   1.0000
     1.0000   1.0000   1.0000   1.0000   1.0000   1.0000   1.0000   1.0000
     1.0000   1.0000   1.0000   1.0000   1.0000   1.0000   1.0000   1.0000
     1.0000   1.0000   1.0000   1.0000   1.0000   1.0000   1.0000   1.0000
     1.0000   1.0000   1.0000   1.0000   1.0000   1.0000   1.0000   1.0000
     1.0000   1.0000   1.0000   1.0000   1.0000   1.0000   1.0000   1.0000
     1.0000   1.0000   1.0000   1.0000   1.0000   1.0000   1.0000   1.0000
     1.0000   1.0000   1.0000   1.0000   1.0000   1.0000   1.0000   1.0000
     1.0000   1.0000   1.0000   1.0000   1.0000   1.0000   1.0000   1.0000
     1.0000   1.0000   1.0000   1.0000   1.0000   1.0000   1.0000   1.0000
     1.0000   1.0000   1.0000   1.0000   1.0000   1.0000   1.0000   1.0000
     1.0000   1.0000   1.0000   1.0000   0.0000   0.0000   0.0000   0.0000
     0.0000   0.0000   0.0000   0.0000   0.0000   0.0000   0.0000   0.0000
     0.0000   0.0000   0.0000   0.0000   0.0000   0.0000   0.0000   0.0000
     0.0000   0.0000   0.0000   0.0000   0.0000

          k = 0.3333 0.0000 0.0596 ( 26753 PWs)   bands (ev):

   -68.4215 -68.2879 -68.0813 -67.7196 -52.8523 -35.1975 -35.1602 -35.1595
   -35.0464 -35.0431 -35.0245 -34.8442 -34.8361 -34.8156 -34.4785 -34.4710
   -34.4610 -29.1694 -29.0814 -29.0574 -23.7199 -23.4895 -15.1005 -15.0611
   -14.5853 -14.5488 -14.2261 -14.1617 -14.0517 -13.7944 -13.7415 -13.6326
   -13.5976 -13.5182 -13.3872 -13.3429 -13.1311 -13.1021 -13.0710 -13.0384
   -12.7955 -12.6599 -12.5889 -12.5779 -12.4613 -12.3887  -7.2643  -7.2007
    -7.1881  -7.0080  -6.9814  -6.9526  -4.0182  -3.9657  -2.8651  -2.7659
    -2.2034  -2.1028  -1.8841  -1.7897  -1.7107  -1.3599  -1.2683  -1.1926
    -0.9665  -0.7560  -0.6896  -0.4285  -0.3549  -0.3197  -0.2011  -0.1200
    -0.0791   0.0535   0.1354   0.2366   0.3499   0.3811   0.5517   0.6507
     0.7519   0.9093   1.0875   1.1341   1.1750   1.3059   1.3478   1.4205
     1.4890   1.5381   1.7006   1.7611   1.8186   1.9298   1.9665   2.0140
     2.1417   2.1711   2.2353   2.2864   2.3279   2.3941   2.4249   2.4767
     2.5513   2.6055   2.6789   2.7430   2.8071   2.8712   2.9499   2.9997
     3.0279   3.0700   3.0922   3.1163   3.2000   3.2481   3.2735   3.4065
     3.4475   3.4984   3.6183   3.7067   6.7506   6.9943   7.0491   9.3392
     9.4077   9.8560  10.8010  11.1344  11.5952  11.6857  11.7363  11.8117
    12.1712  12.3215  12.3287  12.5376  12.6696  12.7438  12.8673  12.9591
    13.0961  13.1157  13.2024  13.2764  13.5002

     occupation numbers 
     1.0000   1.0000   1.0000   1.0000   1.0000   1.0000   1.0000   1.0000
     1.0000   1.0000   1.0000   1.0000   1.0000   1.0000   1.0000   1.0000
     1.0000   1.0000   1.0000   1.0000   1.0000   1.0000   1.0000   1.0000
     1.0000   1.0000   1.0000   1.0000   1.0000   1.0000   1.0000   1.0000
     1.0000   1.0000   1.0000   1.0000   1.0000   1.0000   1.0000   1.0000
     1.0000   1.0000   1.0000   1.0000   1.0000   1.0000   1.0000   1.0000
     1.0000   1.0000   1.0000   1.0000   1.0000   1.0000   1.0000   1.0000
     1.0000   1.0000   1.0000   1.0000   1.0000   1.0000   1.0000   1.0000
     1.0000   1.0000   1.0000   1.0000   1.0000   1.0000   1.0000   1.0000
     1.0000   1.0000   1.0000   1.0000   1.0000   1.0000   1.0000   1.0000
     1.0000   1.0000   1.0000   1.0000   1.0000   1.0000   1.0000   1.0000
     1.0000   1.0000   1.0000   1.0000   1.0000   1.0000   1.0000   1.0000
     1.0000   1.0000   1.0000   1.0000   1.0000   1.0000   1.0000   1.0000
     1.0000   1.0000   1.0000   1.0000   1.0000   1.0000   1.0000   1.0000
     1.0000   1.0000   1.0000   1.0000   1.0000   1.0000   1.0000   1.0000
     1.0000   1.0000   1.0000   1.0000   0.0000   0.0000   0.0000   0.0000
     0.0000   0.0000   0.0000   0.0000   0.0000   0.0000   0.0000   0.0000
     0.0000   0.0000   0.0000   0.0000   0.0000   0.0000   0.0000   0.0000
     0.0000   0.0000   0.0000   0.0000   0.0000

          k = 0.3333 0.0000 0.2326 ( 26737 PWs)   bands (ev):

   -68.4215 -68.2879 -68.0813 -67.7196 -52.8523 -35.1975 -35.1602 -35.1595
   -35.0464 -35.0431 -35.0245 -34.8442 -34.8361 -34.8156 -34.4785 -34.4710
   -34.4610 -29.1694 -29.0814 -29.0574 -23.7199 -23.4895 -15.0867 -15.0756
   -14.5781 -14.5564 -14.2118 -14.1801 -14.0472 -13.7946 -13.7399 -13.6383
   -13.5940 -13.5185 -13.3782 -13.3509 -13.1251 -13.0990 -13.0741 -13.0460
   -12.7922 -12.6561 -12.5900 -12.5790 -12.4601 -12.3929  -7.2643  -7.2007
    -7.1881  -7.0080  -6.9814  -6.9526  -4.0168  -3.9672  -2.8481  -2.7852
    -2.1785  -2.1327  -1.8730  -1.7863  -1.7131  -1.3544  -1.2583  -1.2015
    -0.9518  -0.7957  -0.6397  -0.4567  -0.3383  -0.3230  -0.2393  -0.1288
    -0.0722   0.0652   0.1280   0.2336   0.3092   0.3914   0.5560   0.6285
     0.7530   0.9191   1.0294   1.1721   1.2356   1.2914   1.3522   1.4449
     1.5006   1.6108   1.6894   1.7649   1.8731   1.9240   1.9649   2.0053
     2.1044   2.1529   2.1765   2.2630   2.3593   2.3690   2.4454   2.4788
     2.5390   2.6187   2.6997   2.7399   2.8378   2.8510   2.9112   2.9705
     3.0261   3.0824   3.1040   3.1286   3.1827   3.2366   3.2859   3.4024
     3.4250   3.5056   3.6398   3.7154   6.7494   6.9952   7.0494   9.3351
     9.4175  10.2112  10.2793  11.1786  11.5705  11.6330  11.7309  11.9943
    12.1159  12.2597  12.3160  12.5715  12.7955  12.8333  12.9240  13.0636
    13.0939  13.1126  13.1806  13.2809  13.3143

     occupation numbers 
     1.0000   1.0000   1.0000   1.0000   1.0000   1.0000   1.0000   1.0000
     1.0000   1.0000   1.0000   1.0000   1.0000   1.0000   1.0000   1.0000
     1.0000   1.0000   1.0000   1.0000   1.0000   1.0000   1.0000   1.0000
     1.0000   1.0000   1.0000   1.0000   1.0000   1.0000   1.0000   1.0000
     1.0000   1.0000   1.0000   1.0000   1.0000   1.0000   1.0000   1.0000
     1.0000   1.0000   1.0000   1.0000   1.0000   1.0000   1.0000   1.0000
     1.0000   1.0000   1.0000   1.0000   1.0000   1.0000   1.0000   1.0000
     1.0000   1.0000   1.0000   1.0000   1.0000   1.0000   1.0000   1.0000
     1.0000   1.0000   1.0000   1.0000   1.0000   1.0000   1.0000   1.0000
     1.0000   1.0000   1.0000   1.0000   1.0000   1.0000   1.0000   1.0000
     1.0000   1.0000   1.0000   1.0000   1.0000   1.0000   1.0000   1.0000
     1.0000   1.0000   1.0000   1.0000   1.0000   1.0000   1.0000   1.0000
     1.0000   1.0000   1.0000   1.0000   1.0000   1.0000   1.0000   1.0000
     1.0000   1.0000   1.0000   1.0000   1.0000   1.0000   1.0000   1.0000
     1.0000   1.0000   1.0000   1.0000   1.0000   1.0000   1.0000   1.0000
     1.0000   1.0000   1.0000   1.0000   0.0000   0.0000   0.0000   0.0000
     0.0000   0.0000   0.0000   0.0000   0.0000   0.0000   0.0000   0.0000
     0.0000   0.0000   0.0000   0.0000   0.0000   0.0000   0.0000   0.0000
     0.0000   0.0000   0.0000   0.0000   0.0000

          k = 0.3333 0.0000-0.1134 ( 26755 PWs)   bands (ev):

   -68.4215 -68.2879 -68.0813 -67.7196 -52.8523 -35.1975 -35.1602 -35.1595
   -35.0464 -35.0431 -35.0245 -34.8442 -34.8361 -34.8156 -34.4785 -34.4710
   -34.4610 -29.1694 -29.0814 -29.0573 -23.7199 -23.4895 -15.0952 -15.0668
   -14.5775 -14.5570 -14.2198 -14.1697 -14.0494 -13.7949 -13.7432 -13.6244
   -13.6044 -13.5184 -13.3735 -13.3563 -13.1223 -13.1100 -13.0665 -13.0438
   -12.7964 -12.6569 -12.5887 -12.5753 -12.4599 -12.3942  -7.2644  -7.2007
    -7.1880  -7.0080  -6.9814  -6.9525  -3.9992  -3.9851  -2.8499  -2.7837
    -2.1929  -2.1129  -1.8780  -1.7923  -1.7159  -1.3374  -1.2870  -1.1789
    -0.9621  -0.7823  -0.6406  -0.4496  -0.3496  -0.3099  -0.2706  -0.1048
    -0.0654   0.0343   0.1195   0.2306   0.3477   0.3833   0.5814   0.6474
     0.7803   0.8874   1.0622   1.1652   1.2426   1.2986   1.3153   1.3758
     1.4634   1.5525   1.7358   1.7871   1.8388   1.9262   1.9644   1.9915
     2.1386   2.1971   2.2330   2.2637   2.3514   2.3812   2.4316   2.4834
     2.6026   2.6132   2.7122   2.7272   2.7854   2.8467   2.8843   2.9530
     2.9955   3.0768   3.1010   3.1369   3.1845   3.2315   3.3336   3.4043
     3.4251   3.5067   3.6267   3.7229   6.7495   6.9944   7.0512   9.3348
     9.4687   9.8113  10.7265  11.2395  11.4965  11.6954  11.8019  11.9282
    12.1754  12.2326  12.3140  12.5152  12.6499  12.7610  12.8890  12.9472
    13.0984  13.1092  13.2259  13.2506  13.3996

     occupation numbers 
     1.0000   1.0000   1.0000   1.0000   1.0000   1.0000   1.0000   1.0000
     1.0000   1.0000   1.0000   1.0000   1.0000   1.0000   1.0000   1.0000
     1.0000   1.0000   1.0000   1.0000   1.0000   1.0000   1.0000   1.0000
     1.0000   1.0000   1.0000   1.0000   1.0000   1.0000   1.0000   1.0000
     1.0000   1.0000   1.0000   1.0000   1.0000   1.0000   1.0000   1.0000
     1.0000   1.0000   1.0000   1.0000   1.0000   1.0000   1.0000   1.0000
     1.0000   1.0000   1.0000   1.0000   1.0000   1.0000   1.0000   1.0000
     1.0000   1.0000   1.0000   1.0000   1.0000   1.0000   1.0000   1.0000
     1.0000   1.0000   1.0000   1.0000   1.0000   1.0000   1.0000   1.0000
     1.0000   1.0000   1.0000   1.0000   1.0000   1.0000   1.0000   1.0000
     1.0000   1.0000   1.0000   1.0000   1.0000   1.0000   1.0000   1.0000
[...]
     atom   19 type  6   force =     0.00165995    0.00003398    0.00748621
     atom   20 type  6   force =    -0.00165965    0.00003399   -0.00748621
     atom   21 type  6   force =     0.00117772   -0.00009141   -0.00204308
     atom   22 type  6   force =    -0.00117747   -0.00009142    0.00204295
     atom   23 type  6   force =     0.00483250   -0.00217324   -0.00523937
     atom   24 type  6   force =    -0.00483246   -0.00217316    0.00523916
     atom   25 type  6   force =    -0.00360592    0.00016815   -0.00692655
     atom   26 type  6   force =     0.00360632    0.00016814    0.00692627
     atom   27 type  6   force =    -0.00143034    0.00209429    0.00786914
     atom   28 type  6   force =     0.00143035    0.00209444   -0.00786936
     atom   29 type  6   force =     0.00071585   -0.00173362   -0.00704950
     atom   30 type  6   force =    -0.00071584   -0.00173344    0.00704928
     atom   31 type  6   force =    -0.00208497   -0.00291633   -0.00694780
     atom   32 type  6   force =     0.00208529   -0.00291634    0.00694760
     atom   33 type  6   force =     0.00114042    0.00406653    0.00685520
     atom   34 type  6   force =    -0.00114025    0.00406661   -0.00685543
     atom   35 type  6   force =     0.00682822   -0.00868064   -0.00318014
     atom   36 type  6   force =    -0.00682789   -0.00868080    0.00317980
     atom   37 type  6   force =    -0.00030134   -0.00140434    0.01106358
     atom   38 type  6   force =     0.00030186   -0.00140431   -0.01106340
     atom   39 type  3   force =     0.00000000    0.00000000    0.00000000
     atom   40 type  3   force =     0.00000000    0.00000000    0.00000000
     atom   41 type  3   force =     0.00000000    0.00000000    0.00000000
     atom   42 type  3   force =     0.00000000    0.00000000    0.00000000
     atom   43 type  2   force =     0.00000468   -0.00993831   -0.00000486
     The Hubbard contrib.    to forces
     atom    1 type  4   force =     0.00000000    0.00000000    0.00000000
     atom    2 type  4   force =     0.00000000    0.00000000    0.00000000
     atom    3 type  5   force =     0.00000000    0.00000000    0.00000000
     atom    4 type  5   force =     0.00000000    0.00000000    0.00000000
     atom    5 type  5   force =     0.00000000    0.00000000    0.00000000
     atom    6 type  5   force =     0.00000000    0.00000000    0.00000000
     atom    7 type  7   force =     0.00000000    0.00000000    0.00000000
     atom    8 type  7   force =     0.00000000    0.00000000    0.00000000
     atom    9 type  7   force =     0.00000000    0.00000000    0.00000000
     atom   10 type  7   force =     0.00000000    0.00000000    0.00000000
     atom   11 type  7   force =     0.00000000    0.00000000    0.00000000
     atom   12 type  7   force =     0.00000000    0.00000000    0.00000000
     atom   13 type  1   force =     0.00000000    0.00000000    0.00000000
     atom   14 type  1   force =     0.00000000    0.00000000    0.00000000
     atom   15 type  6   force =     0.00000000    0.00000000    0.00000000
     atom   16 type  6   force =     0.00000000    0.00000000    0.00000000
     atom   17 type  6   force =     0.00000000    0.00000000    0.00000000
     atom   18 type  6   force =     0.00000000    0.00000000    0.00000000
     atom   19 type  6   force =     0.00000000    0.00000000    0.00000000
     atom   20 type  6   force =     0.00000000    0.00000000    0.00000000
     atom   21 type  6   force =     0.00000000    0.00000000    0.00000000
     atom   22 type  6   force =     0.00000000    0.00000000    0.00000000
     atom   23 type  6   force =     0.00000000    0.00000000    0.00000000
     atom   24 type  6   force =     0.00000000    0.00000000    0.00000000
     atom   25 type  6   force =     0.00000000    0.00000000    0.00000000
     atom   26 type  6   force =     0.00000000    0.00000000    0.00000000
     atom   27 type  6   force =     0.00000000    0.00000000    0.00000000
     atom   28 type  6   force =     0.00000000    0.00000000    0.00000000
     atom   29 type  6   force =     0.00000000    0.00000000    0.00000000
     atom   30 type  6   force =     0.00000000    0.00000000    0.00000000
     atom   31 type  6   force =     0.00000000    0.00000000    0.00000000
     atom   32 type  6   force =     0.00000000    0.00000000    0.00000000
     atom   33 type  6   force =     0.00000000    0.00000000    0.00000000
     atom   34 type  6   force =     0.00000000    0.00000000    0.00000000
     atom   35 type  6   force =     0.00000000    0.00000000    0.00000000
     atom   36 type  6   force =     0.00000000    0.00000000    0.00000000
     atom   37 type  6   force =     0.00000000    0.00000000    0.00000000
     atom   38 type  6   force =     0.00000000    0.00000000    0.00000000
     atom   39 type  3   force =     0.00000000    0.00000000    0.00000000
     atom   40 type  3   force =     0.00000000    0.00000000    0.00000000
     atom   41 type  3   force =     0.00000000    0.00000000    0.00000000
     atom   42 type  3   force =     0.00000000    0.00000000    0.00000000
     atom   43 type  2   force =     0.00000000    0.00000000    0.00000000
     The SCF correction term to forces
     atom    1 type  4   force =     0.00000000    0.00000619   -0.00000000
     atom    2 type  4   force =    -0.00000000   -0.00002814    0.00000000
     atom    3 type  5   force =    -0.00000000    0.00000979    0.00000000
     atom    4 type  5   force =    -0.00000000   -0.00002009    0.00000000
     atom    5 type  5   force =    -0.00000000   -0.00004705    0.00000000
     atom    6 type  5   force =    -0.00000000    0.00001264    0.00000000
     atom    7 type  7   force =     0.00000144    0.00001073   -0.00001422
     atom    8 type  7   force =    -0.00000144    0.00001073    0.00001422
     atom    9 type  7   force =    -0.00000071   -0.00000934    0.00002078
     atom   10 type  7   force =     0.00000071   -0.00000934   -0.00002078
     atom   11 type  7   force =     0.00000510   -0.00000193   -0.00002010
     atom   12 type  7   force =    -0.00000510   -0.00000193    0.00002010
     atom   13 type  1   force =    -0.00000214    0.00000698    0.00000586
     atom   14 type  1   force =     0.00000214    0.00000698   -0.00000586
     atom   15 type  6   force =    -0.00002762    0.00004247    0.00001374
     atom   16 type  6   force =     0.00002762    0.00004247   -0.00001374
     atom   17 type  6   force =     0.00000012   -0.00003520    0.00004214
     atom   18 type  6   force =    -0.00000012   -0.00003520   -0.00004214
     atom   19 type  6   force =     0.00001545   -0.00003216    0.00000948
     atom   20 type  6   force =    -0.00001545   -0.00003216   -0.00000948
     atom   21 type  6   force =    -0.00004472    0.00005425   -0.00003533
     atom   22 type  6   force =     0.00004472    0.00005425    0.00003533
     atom   23 type  6   force =    -0.00001674    0.00002553   -0.00003877
     atom   24 type  6   force =     0.00001674    0.00002553    0.00003877
     atom   25 type  6   force =     0.00005031   -0.00002433   -0.00004388
     atom   26 type  6   force =    -0.00005031   -0.00002433    0.00004388
     atom   27 type  6   force =     0.00001446    0.00000022    0.00001733
     atom   28 type  6   force =    -0.00001446    0.00000022   -0.00001733
     atom   29 type  6   force =    -0.00002464    0.00001543    0.00004190
     atom   30 type  6   force =     0.00002464    0.00001543   -0.00004190
     atom   31 type  6   force =     0.00003053    0.00000051   -0.00001794
     atom   32 type  6   force =    -0.00003053    0.00000051    0.00001794
     atom   33 type  6   force =     0.00000644    0.00001801    0.00000802
     atom   34 type  6   force =    -0.00000644    0.00001801   -0.00000802
     atom   35 type  6   force =     0.00000162   -0.00002971    0.00001461
     atom   36 type  6   force =    -0.00000162   -0.00002971   -0.00001461
     atom   37 type  6   force =     0.00000702   -0.00000389   -0.00001292
     atom   38 type  6   force =    -0.00000702   -0.00000389    0.00001292
     atom   39 type  3   force =     0.00000234   -0.00000988    0.00000061
     atom   40 type  3   force =    -0.00000234   -0.00000988   -0.00000061
     atom   41 type  3   force =     0.00000021   -0.00000145   -0.00000537
     atom   42 type  3   force =    -0.00000021   -0.00000145    0.00000537
     atom   43 type  2   force =     0.00000000    0.00013114   -0.00000000

     DFT-D3 dispersion contribution to forces:
     atom    1 type  4   force =     0.00000001    0.00044660   -0.00000000
     atom    2 type  4   force =    -0.00000000   -0.00039078    0.00000000
     atom    3 type  5   force =    -0.00000000   -0.00200349    0.00000000
     atom    4 type  5   force =     0.00000000    0.00073665   -0.00000000
     atom    5 type  5   force =     0.00000000   -0.00026069   -0.00000000
     atom    6 type  5   force =     0.00000000   -0.00083641   -0.00000000
     atom    7 type  7   force =     0.00001548    0.00013464   -0.00031449
     atom    8 type  7   force =    -0.00001548    0.00013464    0.00031449
     atom    9 type  7   force =     0.00047401   -0.00024650   -0.00066914
     atom   10 type  7   force =    -0.00047400   -0.00024650    0.00066913
     atom   11 type  7   force =     0.00063518   -0.00004140    0.00047850
     atom   12 type  7   force =    -0.00063518   -0.00004140   -0.00047851
     atom   13 type  1   force =     0.00007315   -0.00017524   -0.00069436
     atom   14 type  1   force =    -0.00007315   -0.00017524    0.00069437
     atom   15 type  6   force =     0.00009115   -0.00018417    0.00034248
     atom   16 type  6   force =    -0.00009115   -0.00018417   -0.00034248
     atom   17 type  6   force =     0.00023038    0.00016015   -0.00063912
     atom   18 type  6   force =    -0.00023038    0.00016015    0.00063912
     atom   19 type  6   force =    -0.00006052    0.00014886    0.00061035
     atom   20 type  6   force =     0.00006052    0.00014886   -0.00061035
     atom   21 type  6   force =     0.00004300   -0.00009629    0.00018201
     atom   22 type  6   force =    -0.00004300   -0.00009629   -0.00018201
     atom   23 type  6   force =    -0.00018553    0.00092961    0.00022070
     atom   24 type  6   force =     0.00018553    0.00092961   -0.00022070
     atom   25 type  6   force =     0.00089732    0.00011783    0.00015344
     atom   26 type  6   force =    -0.00089732    0.00011783   -0.00015344
     atom   27 type  6   force =     0.00033291   -0.00035629   -0.00019512
     atom   28 type  6   force =    -0.00033291   -0.00035630    0.00019512
     atom   29 type  6   force =    -0.00020357    0.00028931    0.00033392
     atom   30 type  6   force =     0.00020356    0.00028930   -0.00033392
     atom   31 type  6   force =     0.00087930   -0.00048261    0.00041859
     atom   32 type  6   force =    -0.00087930   -0.00048261   -0.00041859
     atom   33 type  6   force =     0.00063072   -0.00059322   -0.00026669
     atom   34 type  6   force =    -0.00063072   -0.00059322    0.00026669
     atom   35 type  6   force =     0.00011153    0.00036957   -0.00048282
     atom   36 type  6   force =    -0.00011153    0.00036957    0.00048282
     atom   37 type  6   force =     0.00000326    0.00015065   -0.00058100
     atom   38 type  6   force =    -0.00000326    0.00015065    0.00058100
     atom   39 type  3   force =    -0.00038062    0.00047325   -0.00002719
     atom   40 type  3   force =     0.00038062    0.00047325    0.00002719
     atom   41 type  3   force =    -0.00011058   -0.00012656   -0.00037010
     atom   42 type  3   force =     0.00011058   -0.00012656    0.00037010
     atom   43 type  2   force =    -0.00000000    0.00136495   -0.00000000

     Total force =     0.004312     Total SCF correction =     0.000279

     DFT-D3 dispersion Force =     0.004989


     Computing stress (Cartesian axis) and pressure

          total   stress  (Ry/bohr**3)                   (kbar)     P=        0.35
  -0.00000002   0.00000000   0.00000128           -0.00        0.00        0.19
   0.00000000   0.00000210   0.00000000            0.00        0.31        0.00
   0.00000128   0.00000000   0.00000516            0.19        0.00        0.76

     kinetic stress (kbar)  18488.31      0.00     -2.97
                                0.00  18408.42      0.00
                               -2.97      0.00  18375.55

     local   stress (kbar) -29450.95     -0.00    -66.47
                               -0.00 -28250.13      0.00
                              -66.47      0.00   7558.03

     nonloc. stress (kbar)   3899.70      0.00     -2.17
                                0.00   3892.64      0.00
                               -2.17      0.00   3894.20

     hartree stress (kbar)  16348.32      0.00      4.18
                                0.00  15786.77     -0.00
                                4.18     -0.00  -1564.15

     exc-cor stress (kbar)  -2356.18      0.00      0.43
                                0.00  -2355.35      0.00
                                0.43      0.00  -2356.26

     corecor stress (kbar)  -1982.22     -0.00     -0.17
                               -0.00  -1981.89     -0.00
                               -0.17     -0.00  -1983.23

     ewald   stress (kbar)  -4932.40      0.00     67.29
                                0.00  -5485.91     -0.00
                               67.29     -0.00 -23911.81

     hubbard stress (kbar)      0.00      0.00      0.00
                                0.00      0.00      0.00
                                0.00      0.00      0.00

     DFT-D   stress (kbar)    -14.58      0.00      0.07
                                0.00    -14.25      0.00
                                0.07      0.00    -11.58

     XDM     stress (kbar)      0.00      0.00      0.00
                                0.00      0.00      0.00
                                0.00      0.00      0.00

     dft-nl  stress (kbar)      0.00      0.00      0.00
                                0.00      0.00      0.00
                                0.00      0.00      0.00

     TS-vdW  stress (kbar)      0.00      0.00      0.00
                                0.00      0.00      0.00
                                0.00      0.00      0.00

     MDB     stress (kbar)      0.00      0.00      0.00
                                0.00      0.00      0.00
                                0.00      0.00      0.00

     3D-RISM stress (kbar)      0.00      0.00      0.00
                                0.00      0.00      0.00
                                0.00      0.00      0.00

     Energy error            =      3.9E-05 Ry
     Gradient error          =      1.1E-03 Ry/Bohr
     Cell gradient error     =      7.6E-01 kbar

     number of scf cycles    =  11
     number of bfgs steps    =  10

     enthalpy           old  =   -2344.3755919192 Ry
     enthalpy           new  =   -2344.3756314143 Ry

     CASE: enthalpy          _new < enthalpy          _old

     new trust radius        =       0.0034026977 bohr
ibrav =    -12
 celldm(1) =     10.03551904
 celldm(2) =      1.73253878
 celldm(3) =      1.95689420
 celldm(5) =     -0.17694656
Input lattice vectors:
     0.99717612     0.00000000     0.00003351
     0.00000000     1.72764631     0.00000000
    -0.34535244     0.00000000     1.92056487
New lattice vectors in INITIAL alat:
     0.99717612     0.00000000     0.00000000
     0.00000000     1.72764631     0.00000000
    -0.34528789     0.00000000     1.92057648
New lattice vectors in NEW alat (for information only):
     1.00000000     0.00000000     0.00000000
     0.00000000     1.73253878     0.00000000
    -0.34626570     0.00000000     1.92601531
Discrepancy in bohr =     0.000034    0.000000    0.000066
     new conv_thr            =       0.0000000100 Ry

     new unit-cell volume =   3372.57966 a.u.^3 (   499.76474 Ang^3 )
     density =      2.77034 g/cm^3

CELL_PARAMETERS (alat= 10.06393834)
   0.997176125   0.000000000   0.000000000
   0.000000000   1.727646311   0.000000000
  -0.345287890   0.000000000   1.920576479

ATOMIC_POSITIONS (crystal)
K                0.0000000000        0.4975636785        0.0000000000
K                0.5000001190        0.0014423415        0.0000000000
Mg               0.0000001800        0.9763903438        0.4999998810
Mg               0.5000002980        0.5042101739        0.4999998810
Mg               0.5000002980        0.8201754419        0.4999998810
Mg               0.5000002980        0.1596607280        0.4999998810
Si               0.0782348175        0.1635086189        0.2247656699
Si               0.9217658085        0.1635086189        0.7752341071
Si               0.9353104358        0.8308932928        0.7694960998
Si               0.0646901382        0.8308932928        0.2305036322
Si               0.5547432910        0.6640646794        0.2253987985
Si               0.4452572750        0.6640646794        0.7746009335
Al               0.4159227072        0.3314468251        0.7762427784
Al               0.5840778588        0.3314468251        0.2237569986
O                0.1199315358        0.1709432669        0.3878129912
O                0.8800690462        0.1709432669        0.6121867408
O                0.8615945129        0.8321805710        0.6138662396
O                0.1384060981        0.8321805710        0.3861334624
O                0.6001422098        0.6592093473        0.3823241145
O                0.3998583862        0.6592093473        0.6176756475
O                0.3482424341        0.3285003180        0.6005065400
O                0.6517582209        0.3285003180        0.3994931620
O                0.3432474415        0.2016513714        0.1753793660
O                0.6567530955        0.2016513714        0.8246203210
O                0.9961719035        0.9966053406        0.1725092472
O                0.0038286925        0.9966053406        0.8274904998
O                0.6946746535        0.7695208537        0.8368141366
O                0.3053259135        0.7695208537        0.1631856244
O                0.8066675149        0.7348229667        0.1720176199
O                0.1933331111        0.7348229667        0.8279821561
O                0.5016904981        0.5043163923        0.1595949445
O                0.4983100379        0.5043163923        0.8404048475
O                0.1510382795        0.2699775095        0.8402272204
O                0.8489623315        0.2699775095        0.1597725116
O                0.1212339626        0.4831113916        0.3941485986
O                0.8787666484        0.4831113916        0.6058511324
O                0.6356979950        0.9961117321        0.4007086680
O                0.3643026610        0.9961117321        0.5992911230
H                0.0335393157        0.5774668843        0.3896870054
H                0.9664613623        0.5774668843        0.6103126966
H                0.6018797414        0.0047258849        0.3064910977
H                0.3981208836        0.0047258849        0.6935086943
Ti               0.0000001800        0.3371486224        0.4999998810



     Writing config-only to output data dir ./temp/phl-ti1-ti2-v3.save/ :
     XML data file
     NEW-OLD atomic charge density approx. for the potential

     Check: negative core charge=   -0.000003
     Generating pointlists ...

     total cpu time spent up to now is    61269.4 secs

     Self-consistent Calculation

     iteration #  1     ecut=    60.00 Ry     beta= 0.70
     Davidson diagonalization with overlap

---- Real-time Memory Report at c_bands before calling an iterative solver
           922 MiB given to the printing process from OS
             0 MiB allocation reported by mallinfo(arena+hblkhd)
          8155 MiB available memory on the node where the printing process lives
------------------
