
     Program PWSCF v.7.3.1 starts on 28Mar2025 at  4:39:52 

     This program is part of the open-source Quantum ESPRESSO suite
     for quantum simulation of materials; please cite
         "P. Giannozzi et al., J. Phys.:Condens. Matter 21 395502 (2009);
         "P. Giannozzi et al., J. Phys.:Condens. Matter 29 465901 (2017);
         "P. Giannozzi et al., J. Chem. Phys. 152 154105 (2020);
          URL http://www.quantum-espresso.org", 
     in publications or presentations arising from this work. More details at
     http://www.quantum-espresso.org/quote

     Parallel version (MPI), running on     6 processors

     MPI processes distributed on     1 nodes
     14838 MiB available memory on the printing compute node when the environment starts

     Reading input from vc_relax.in

     Current dimensions of program PWSCF are:
     Max number of different atomic species (ntypx) = 10
     Max number of k-points (npk) =  40000
     Max angular momentum in pseudopotentials (lmaxx) =  4
     file Al.pbe-n-kjpaw_psl.1.0.0.UPF: wavefunction(s)  3S 3P renormalized
     file Ti.pbe-spn-kjpaw_psl.1.0.0.UPF: wavefunction(s)  3S 3P 3D renormalized
     file H.pbe-kjpaw_psl.1.0.0.UPF: wavefunction(s)  1S renormalized
     file K.pbe-spn-kjpaw_psl.1.0.0.UPF: wavefunction(s)  3S renormalized
     file Mg.pbe-spnl-kjpaw_psl.1.0.0.UPF: wavefunction(s)  2P renormalized
     file O.pbe-n-kjpaw_psl.1.0.0.UPF: wavefunction(s)  2S 2P renormalized
     file Si.pbe-n-kjpaw_psl.1.0.0.UPF: wavefunction(s)  3S 3P renormalized

     R & G space division:  proc/nbgrp/npool/nimage =       6
     Subspace diagonalization in iterative solution of the eigenvalue problem:
     a serial algorithm will be used


     Parallelization info
     --------------------
     sticks:   dense  smooth     PW     G-vecs:    dense   smooth      PW
     Min        1119     557    150               100894    35666    5065
     Max        1120     558    151               100896    35670    5069
     Sum        6719    3347    905               605369   214013   30407

     Using Slab Decomposition



     bravais-lattice index     =          -12
     lattice parameter (alat)  =      10.0639  a.u.
     unit-cell volume          =    3408.7535 (a.u.)^3
     number of atoms/cell      =           43
     number of atomic types    =            7
     number of electrons       =       248.00
     number of Kohn-Sham states=          149
     kinetic-energy cutoff     =      60.0000  Ry
     charge density cutoff     =     480.0000  Ry
     scf convergence threshold =      1.0E-06
     mixing beta               =       0.7000
     number of iterations used =            8  plain     mixing
     energy convergence thresh.=      1.0E-04
     force convergence thresh. =      1.0E-03
     press convergence thresh. =      5.0E-01
     Exchange-correlation= SLA  PW   PBX  PBC
                           (   1   4   3   4   0   0   0)
     nstep                     =           50


     celldm(1)=  10.063938  celldm(2)=   1.736001  celldm(3)=   1.956921
     celldm(4)=   0.000000  celldm(5)=  -0.175986  celldm(6)=   0.000000

     crystal axes: (cart. coord. in units of alat)
               a(1) = (   1.000000   0.000000   0.000000 )  
               a(2) = (   0.000000   1.736001   0.000000 )  
               a(3) = (  -0.344390   0.000000   1.926379 )  

     reciprocal axes: (cart. coord. in units 2 pi/alat)
               b(1) = (  1.000000 -0.000000  0.178776 )  
               b(2) = (  0.000000  0.576037 -0.000000 )  
               b(3) = (  0.000000  0.000000  0.519109 )  


     PseudoPot. # 1 for Al read from file:
     ./../../../pseudos/Al.pbe-n-kjpaw_psl.1.0.0.UPF
     MD5 check sum: 502b6b27b9c6270cab5dd1084b96fa6d
     Pseudo is Projector augmented-wave + core cor, Zval =  3.0
     Generated using &quot;atomic&quot; code by A. Dal Corso  v.6.3
     Shape of augmentation charge: PSQ
     Using radial grid of 1135 points,  6 beta functions with: 
                l(1) =   0
                l(2) =   0
                l(3) =   1
                l(4) =   1
                l(5) =   2
                l(6) =   2
     Q(r) pseudized with 0 coefficients 


     PseudoPot. # 2 for Ti read from file:
     ./../../../pseudos/Ti.pbe-spn-kjpaw_psl.1.0.0.UPF
     MD5 check sum: 01f69b0d8ba4438b2e03ac6ea4af1c0b
     Pseudo is Projector augmented-wave + core cor, Zval = 12.0
     Generated using &quot;atomic&quot; code by A. Dal Corso  v.6.2.2
     Shape of augmentation charge: PSQ
     Using radial grid of 1177 points,  6 beta functions with: 
                l(1) =   0
                l(2) =   0
                l(3) =   1
                l(4) =   1
                l(5) =   2
                l(6) =   2
     Q(r) pseudized with 0 coefficients 


     PseudoPot. # 3 for H  read from file:
     ./../../../pseudos/H.pbe-kjpaw_psl.1.0.0.UPF
     MD5 check sum: d81a744832360e4a8af0b0b5b123bc2a
     Pseudo is Projector augmented-wave, Zval =  1.0
     Generated using &quot;atomic&quot; code by A. Dal Corso  v.6.3MaX
     Shape of augmentation charge: PSQ
     Using radial grid of  929 points,  2 beta functions with: 
                l(1) =   0
                l(2) =   0
     Q(r) pseudized with 0 coefficients 


     PseudoPot. # 4 for K  read from file:
     ./../../../pseudos/K.pbe-spn-kjpaw_psl.1.0.0.UPF
     MD5 check sum: 34cc42130a09071ebe376fd42eb21491
     Pseudo is Projector augmented-wave + core cor, Zval =  9.0
     Generated using &quot;atomic&quot; code by A. Dal Corso  v.6.2.2
     Shape of augmentation charge: PSQ
     Using radial grid of 1165 points,  6 beta functions with: 
                l(1) =   0
                l(2) =   0
                l(3) =   1
                l(4) =   1
                l(5) =   2
                l(6) =   2
     Q(r) pseudized with 0 coefficients 


     PseudoPot. # 5 for Mg read from file:
     ./../../../pseudos/Mg.pbe-spnl-kjpaw_psl.1.0.0.UPF
     MD5 check sum: fda14e0d92a6a9a5ebed782e5a4b3067
     Pseudo is Projector augmented-wave + core cor, Zval = 10.0
     Generated using &quot;atomic&quot; code by A. Dal Corso  v.6.3
     Shape of augmentation charge: PSQ
     Using radial grid of 1129 points,  4 beta functions with: 
                l(1) =   0
                l(2) =   0
                l(3) =   1
                l(4) =   1
     Q(r) pseudized with 0 coefficients 


     PseudoPot. # 6 for O  read from file:
     ./../../../pseudos/O.pbe-n-kjpaw_psl.1.0.0.UPF
     MD5 check sum: e99d9cef9b487d1ca56f5b95ecd0fd7a
     Pseudo is Projector augmented-wave + core cor, Zval =  6.0
     Generated using &quot;atomic&quot; code by A. Dal Corso  v.6.3
     Shape of augmentation charge: PSQ
     Using radial grid of 1095 points,  4 beta functions with: 
                l(1) =   0
                l(2) =   0
                l(3) =   1
                l(4) =   1
     Q(r) pseudized with 0 coefficients 


     PseudoPot. # 7 for Si read from file:
     ./../../../pseudos/Si.pbe-n-kjpaw_psl.1.0.0.UPF
     MD5 check sum: c39c59da582df4a0d9f10159256ea34e
     Pseudo is Projector augmented-wave + core cor, Zval =  4.0
     Generated using &quot;atomic&quot; code by A. Dal Corso  v.6.3
     Shape of augmentation charge: PSQ
     Using radial grid of 1141 points,  6 beta functions with: 
                l(1) =   0
                l(2) =   0
                l(3) =   1
                l(4) =   1
                l(5) =   2
                l(6) =   2
     Q(r) pseudized with 0 coefficients 


     atomic species   valence    mass     pseudopotential
     Al                3.00    26.98154     Al( 1.00)
     Ti               12.00    47.86700     Ti( 1.00)
     H                 1.00     1.00794     H ( 1.00)
     K                 9.00    39.09830     K ( 1.00)
     Mg               10.00    24.30500     Mg( 1.00)
     O                 6.00    15.99940     O ( 1.00)
     Si                4.00    28.08550     Si( 1.00)

     Starting magnetic structure 
     atomic species   magnetization
     Al              0.000
     Ti              0.300
     H               0.000
     K               0.000
     Mg              0.000
     O               0.000
     Si              0.000

      2 Sym. Ops. (no inversion) found


                                    s                        frac. trans.

      isym =  1     identity                                     

 cryst.   s( 1) = (     1          0          0      )
                  (     0          1          0      )
                  (     0          0          1      )

 cart.    s( 1) = (  1.0000000  0.0000000  0.0000000 )
                  (  0.0000000  1.0000000  0.0000000 )
                  (  0.0000000  0.0000000  1.0000000 )


      isym =  2     180 deg rotation - cart. axis [0,1,0]        

 cryst.   s( 2) = (    -1          0          0      )
                  (     0          1          0      )
                  (     0          0         -1      )

 cart.    s( 2) = ( -1.0000000  0.0000000 -0.0000000 )
                  (  0.0000000  1.0000000  0.0000000 )
                  (  0.0000000  0.0000000 -1.0000000 )


     point group C_2  (2)   
     there are  2 classes
     the character table:

       E     C2   
A      1.00  1.00
B      1.00 -1.00

     the symmetry operations in each class and the name of the first element:

     E        1
          identity                                               
     C2       2
          180 deg rotation - cart. axis [0,1,0]                  

   Cartesian axes

     site n.     atom                  positions (alat units)
         1        K      tau(   1) = (   0.0000000   0.8607119   0.0000000  )
         2        K      tau(   2) = (   0.5000001   0.0073171   0.0000000  )
         3        Mg     tau(   3) = (  -0.1721948   1.6951275   0.9631892  )
         4        Mg     tau(   4) = (   0.3278053   0.8773094   0.9631892  )
         5        Mg     tau(   5) = (   0.3278053   1.4257858   0.9631892  )
         6        Mg     tau(   6) = (   0.3278053   0.2782711   0.9631892  )
         7        Si     tau(   7) = (  -0.0005543   0.2831889   0.4339877  )
         8        Si     tau(   8) = (   0.6561649   0.2831889   1.4923907  )
         9        Si     tau(   9) = (   0.6701923   1.4424402   1.4818157  )
        10        Si     tau(  10) = (  -0.0145817   1.4424402   0.4445627  )
        11        Si     tau(  11) = (   0.4771851   1.1535300   0.4352233  )
        12        Si     tau(  12) = (   0.1784255   1.1535300   1.4911550  )
        13        Al     tau(  13) = (   0.1496195   0.5755490   1.4937351  )
        14        Al     tau(  14) = (   0.5059911   0.5755490   0.4326433  )
        15        O      tau(  15) = (  -0.0143425   0.2960900   0.7474296  )
        16        O      tau(  16) = (   0.6699531   0.2960900   1.1789488  )
        17        O      tau(  17) = (   0.6500793   1.4461406   1.1827388  )
        18        O      tau(  18) = (   0.0055313   1.4461406   0.7436395  )
        19        O      tau(  19) = (   0.4674833   1.1465020   0.7368712  )
        20        O      tau(  20) = (   0.1881273   1.1465020   1.1895071  )
        21        O      tau(  21) = (   0.1410541   0.5705741   1.1560813  )
        22        O      tau(  22) = (   0.5145566   0.5705741   0.7702969  )
        23        O      tau(  23) = (   0.2794169   0.3545702   0.3388838  )
        24        O      tau(  24) = (   0.3761936   0.3545702   1.5874944  )
        25        O      tau(  25) = (   0.9403575   1.7296768   0.3333080  )
        26        O      tau(  26) = (  -0.2847469   1.7296768   1.5930703  )
        27        O      tau(  27) = (   0.4080411   1.3329313   1.6112630  )
        28        O      tau(  28) = (   0.2475695   1.3329313   0.3151153  )
        29        O      tau(  29) = (   0.7460245   1.2786237   0.3326485  )
        30        O      tau(  30) = (  -0.0904139   1.2786237   1.5937299  )
        31        O      tau(  31) = (   0.4502684   0.8760397   0.3105712  )
        32        O      tau(  32) = (   0.2053421   0.8760397   1.6158072  )
        33        O      tau(  33) = (  -0.1343245   0.4634634   1.6175381  )
        34        O      tau(  34) = (   0.7899351   0.4634634   0.3088402  )
        35        O      tau(  35) = (  -0.0131138   0.8364765   0.7603549  )
        36        O      tau(  36) = (   0.6687244   0.8364765   1.1660235  )
        37        O      tau(  37) = (   0.4976317   1.7308030   0.7732835  )
        38        O      tau(  38) = (   0.1579789   1.7308030   1.1530949  )
        39        H      tau(  39) = (  -0.1006665   0.9985569   0.7506854  )
        40        H      tau(  40) = (   0.7562772   0.9985569   1.1756929  )
        41        H      tau(  41) = (   0.4958325   0.0073027   0.5922024  )
        42        H      tau(  42) = (   0.1597781   0.0073027   1.3341760  )
        43        Ti     tau(  43) = (  -0.1721948   0.5836331   0.9631892  )

     --------------------------------------------
     DFT-D3 Dispersion Correction (3-body terms):
     --------------------------------------------
       Reference C6 values for interpolation: 

         atom   Coordination number   C6
         H          0.912             6.05
         H          0.000            15.18
         O          0.000            31.01
         O          0.993            25.63
         O          1.989            20.74
         Mg         0.000          1366.75
         Mg         0.963           902.54
         Mg         1.950           351.12
         Al         0.000          1081.08
         Al         0.965           875.51
         Al         1.931           513.50
         Al         2.915           307.19
         Si         0.000           635.71
         Si         0.951           540.53
         Si         1.944           466.25
         Si         2.941           443.01
         Si         3.868           299.55
         K          0.000          9967.00
         K          0.977           676.04
         Ti         0.000          2723.84
         Ti         1.830           604.00
         Ti         3.868           643.18

       Values used:

         atom   Coordination number  R0_AB[au]  C6      C8
         K         12.114            4.007    676.04 129074.98
         K         12.533            4.007    676.04 129074.98
         Mg        10.328            3.292    351.12  31436.69
         Mg        10.066            3.292    351.12  31436.69
         Mg        10.273            3.292    351.12  31436.69
         Mg        11.219            3.292    351.12  31436.69
         Si         6.497            3.583    299.55  21425.58
         Si         6.497            3.583    299.55  21425.58
         Si         6.142            3.583    299.55  21425.58
         Si         6.142            3.583    299.55  21425.58
         Si         6.273            3.583    299.55  21425.58
         Si         6.273            3.583    299.55  21425.58
         Al         7.331            3.789    307.19  29441.29
         Al         7.331            3.789    307.19  29441.29
         O          3.755            2.345     20.74    418.58
         O          3.755            2.345     20.74    418.58
         O          3.004            2.345     20.74    418.58
         O          3.004            2.345     20.74    418.58
         O          3.007            2.345     20.74    418.58
         O          3.007            2.345     20.74    418.58
         O          3.899            2.345     20.74    418.58
         O          3.899            2.345     20.74    418.58
         O          3.075            2.345     20.74    418.58
         O          3.075            2.345     20.74    418.58
         O          3.050            2.345     20.74    418.58
         O          3.050            2.345     20.74    418.58
         O          3.057            2.345     20.74    418.58
         O          3.057            2.345     20.74    418.58
         O          2.930            2.345     20.74    418.58
         O          2.930            2.345     20.74    418.58
         O          3.154            2.345     20.74    418.58
         O          3.154            2.345     20.74    418.58
         O          3.213            2.345     20.74    418.58
         O          3.213            2.345     20.74    418.58
         O          3.021            2.345     20.74    418.58
         O          3.021            2.345     20.74    418.58
         O          3.971            2.345     20.74    418.58
         O          3.971            2.345     20.74    418.58
         H          1.102            2.062      6.11     73.91
         H          1.102            2.062      6.11     73.91
         H          1.228            2.062      6.08     73.47
         H          1.228            2.062      6.08     73.47
         Ti        10.377            3.557    643.18  76289.64

         Molecular C6 ( Ry / a.u.^6 ) =    158928.66


   Crystallographic axes

     site n.     atom                  positions (cryst. coord.)
         1        K      tau(   1) = (  0.0000000  0.4958015  0.0000000  )
         2        K      tau(   2) = (  0.5000001  0.0042149  0.0000000  )
         3        Mg     tau(   3) = (  0.0000002  0.9764553  0.4999999  )
         4        Mg     tau(   4) = (  0.5000003  0.5053622  0.4999999  )
         5        Mg     tau(   5) = (  0.5000003  0.8213047  0.4999999  )
         6        Mg     tau(   6) = (  0.5000003  0.1602943  0.4999999  )
         7        Si     tau(   7) = (  0.0770322  0.1631272  0.2252868  )
         8        Si     tau(   8) = (  0.9229684  0.1631272  0.7747130  )
         9        Si     tau(   9) = (  0.9351052  0.8308982  0.7692234  )
        10        Si     tau(  10) = (  0.0648954  0.8308982  0.2307763  )
        11        Si     tau(  11) = (  0.5549925  0.6644754  0.2259282  )
        12        Si     tau(  12) = (  0.4450081  0.6644754  0.7740715  )
        13        Al     tau(  13) = (  0.4166633  0.3315372  0.7754109  )
        14        Al     tau(  14) = (  0.5833372  0.3315372  0.2245889  )
        15        O      tau(  15) = (  0.1192798  0.1705586  0.3879972  )
        16        O      tau(  16) = (  0.8807207  0.1705586  0.6120026  )
        17        O      tau(  17) = (  0.8615245  0.8330297  0.6139700  )
        18        O      tau(  18) = (  0.1384761  0.8330297  0.3860297  )
        19        O      tau(  19) = (  0.5992181  0.6604270  0.3825163  )
        20        O      tau(  20) = (  0.4007825  0.6604270  0.6174835  )
        21        O      tau(  21) = (  0.3477336  0.3286715  0.6001319  )
        22        O      tau(  22) = (  0.6522671  0.3286715  0.3998678  )
        23        O      tau(  23) = (  0.3400012  0.2042454  0.1759176  )
        24        O      tau(  24) = (  0.6599994  0.2042454  0.8240821  )
        25        O      tau(  25) = (  0.9999449  0.9963570  0.1730231  )
        26        O      tau(  26) = (  0.0000557  0.9963570  0.8269767  )
        27        O      tau(  27) = (  0.6960961  0.7678171  0.8364207  )
        28        O      tau(  28) = (  0.3039045  0.7678171  0.1635791  )
        29        O      tau(  29) = (  0.8054941  0.7365339  0.1726807  )
        30        O      tau(  30) = (  0.1945066  0.7365339  0.8273190  )
        31        O      tau(  31) = (  0.5057910  0.5046309  0.1612202  )
        32        O      tau(  32) = (  0.4942095  0.5046309  0.8387796  )
        33        O      tau(  33) = (  0.1548523  0.2669719  0.8396781  )
        34        O      tau(  34) = (  0.8451483  0.2669719  0.1603216  )
        35        O      tau(  35) = (  0.1228193  0.4818410  0.3947068  )
        36        O      tau(  36) = (  0.8771813  0.4818410  0.6052929  )
        37        O      tau(  37) = (  0.6358762  0.9970057  0.4014182  )
        38        O      tau(  38) = (  0.3641245  0.9970057  0.5985816  )
        39        H      tau(  39) = (  0.0335379  0.5752052  0.3896873  )
        40        H      tau(  40) = (  0.9664627  0.5752052  0.6103124  )
        41        H      tau(  41) = (  0.6017040  0.0042066  0.3074174  )
        42        H      tau(  42) = (  0.3982966  0.0042066  0.6925824  )
        43        Ti     tau(  43) = (  0.0000002  0.3361940  0.4999999  )

     number of k points=    20  Gaussian smearing, width (Ry)=  0.0010
                       cart. coord. in units 2pi/alat
        k(    1) = (   0.0000000   0.0000000   0.0000000), wk =   0.0185185
        k(    2) = (   0.0000000   0.0000000   0.1730362), wk =   0.0370370
        k(    3) = (   0.0000000   0.1920122   0.0000000), wk =   0.0370370
        k(    4) = (   0.0000000   0.1920122   0.1730362), wk =   0.0740741
        k(    5) = (   0.1666667   0.0000000   0.0297960), wk =   0.0370370
        k(    6) = (   0.1666667   0.0000000   0.2028322), wk =   0.0370370
        k(    7) = (   0.1666667   0.0000000  -0.1432402), wk =   0.0370370
        k(    8) = (   0.1666667   0.1920122   0.0297960), wk =   0.0740741
        k(    9) = (   0.1666667   0.1920122   0.2028322), wk =   0.0740741
        k(   10) = (   0.1666667   0.1920122  -0.1432402), wk =   0.0740741
        k(   11) = (   0.3333333   0.0000000   0.0595920), wk =   0.0370370
        k(   12) = (   0.3333333   0.0000000   0.2326282), wk =   0.0370370
        k(   13) = (   0.3333333   0.0000000  -0.1134443), wk =   0.0370370
        k(   14) = (   0.3333333   0.1920122   0.0595920), wk =   0.0740741
        k(   15) = (   0.3333333   0.1920122   0.2326282), wk =   0.0740741
        k(   16) = (   0.3333333   0.1920122  -0.1134443), wk =   0.0740741
        k(   17) = (  -0.5000000   0.0000000  -0.0893879), wk =   0.0185185
        k(   18) = (  -0.5000000   0.0000000   0.0836483), wk =   0.0370370
        k(   19) = (  -0.5000000   0.1920122  -0.0893879), wk =   0.0370370
        k(   20) = (  -0.5000000   0.1920122   0.0836483), wk =   0.0740741

                       cryst. coord.
        k(    1) = (   0.0000000   0.0000000   0.0000000), wk =   0.0185185
        k(    2) = (   0.0000000   0.0000000   0.3333333), wk =   0.0370370
        k(    3) = (   0.0000000   0.3333333   0.0000000), wk =   0.0370370
        k(    4) = (   0.0000000   0.3333333   0.3333333), wk =   0.0740741
        k(    5) = (   0.1666667   0.0000000   0.0000000), wk =   0.0370370
        k(    6) = (   0.1666667   0.0000000   0.3333333), wk =   0.0370370
        k(    7) = (   0.1666667   0.0000000  -0.3333333), wk =   0.0370370
        k(    8) = (   0.1666667   0.3333333   0.0000000), wk =   0.0740741
        k(    9) = (   0.1666667   0.3333333   0.3333333), wk =   0.0740741
        k(   10) = (   0.1666667   0.3333333  -0.3333333), wk =   0.0740741
        k(   11) = (   0.3333333   0.0000000   0.0000000), wk =   0.0370370
        k(   12) = (   0.3333333   0.0000000   0.3333333), wk =   0.0370370
        k(   13) = (   0.3333333   0.0000000  -0.3333333), wk =   0.0370370
        k(   14) = (   0.3333333   0.3333333   0.0000000), wk =   0.0740741
        k(   15) = (   0.3333333   0.3333333   0.3333333), wk =   0.0740741
        k(   16) = (   0.3333333   0.3333333  -0.3333333), wk =   0.0740741
        k(   17) = (  -0.5000000   0.0000000   0.0000000), wk =   0.0185185
        k(   18) = (  -0.5000000   0.0000000   0.3333333), wk =   0.0370370
        k(   19) = (  -0.5000000   0.3333333   0.0000000), wk =   0.0370370
        k(   20) = (  -0.5000000   0.3333333   0.3333333), wk =   0.0740741

     Dense  grid:   605369 G-vectors     FFT dimensions: (  72, 125, 144)

     Smooth grid:   214013 G-vectors     FFT dimensions: (  50,  90, 100)

     Dynamical RAM for                 wfc:      10.14 MB

     Dynamical RAM for     wfc (w. buffer):     415.56 MB

     Dynamical RAM for           str. fact:      10.78 MB

     Dynamical RAM for           local pot:       0.00 MB

     Dynamical RAM for          nlocal pot:      29.25 MB

     Dynamical RAM for                qrad:      24.61 MB

     Dynamical RAM for          rho,v,vnew:      19.12 MB

     Dynamical RAM for               rhoin:       6.37 MB

     Dynamical RAM for            rho*nmix:      49.27 MB

     Dynamical RAM for           G-vectors:       6.05 MB

     Dynamical RAM for          h,s,v(r/c):       4.07 MB

     Dynamical RAM for          <psi|beta>:       0.98 MB

     Dynamical RAM for                 psi:      20.27 MB

     Dynamical RAM for                hpsi:      20.27 MB

     Dynamical RAM for                spsi:      20.27 MB

     Dynamical RAM for      wfcinit/wfcrot:      20.78 MB

     Dynamical RAM for           addusdens:     324.84 MB

     Dynamical RAM for          addusforce:     395.85 MB

     Dynamical RAM for         addusstress:     311.76 MB

     Estimated static dynamical RAM per process >     533.94 MB

     Estimated max dynamical RAM per process >     979.06 MB

     Estimated total dynamical RAM >       5.74 GB

     Atomic positions and unit cell read from directory:
     ./temp/phl-ti1-ti2-v3.save/
     Atomic positions from file used, from input discarded


     Check: negative core charge=   -0.000003
     Generating pointlists ...
     new r_m :   0.1355 (alat units)  1.3642 (a.u.) for type    1
     new r_m :   0.1486 (alat units)  1.4951 (a.u.) for type    2
     new r_m :   0.0749 (alat units)  0.7538 (a.u.) for type    3
     new r_m :   0.2183 (alat units)  2.1972 (a.u.) for type    4
     new r_m :   0.1551 (alat units)  1.5607 (a.u.) for type    5
     new r_m :   0.0749 (alat units)  0.7538 (a.u.) for type    6
     new r_m :   0.1236 (alat units)  1.2436 (a.u.) for type    7

     The initial density is read from file :
     ./temp/phl-ti1-ti2-v3.save/charge-density


     starting charge     247.9722, renormalised to     248.0000
     Cannot read wfcs: file not found
     Starting wfcs are  178 randomized atomic wfcs
     Checking if some PAW data can be deallocated... 
       PAW data deallocated on    5 nodes for type:  1
       PAW data deallocated on    5 nodes for type:  2
       PAW data deallocated on    5 nodes for type:  3
       PAW data deallocated on    5 nodes for type:  4
       PAW data deallocated on    5 nodes for type:  5
       PAW data deallocated on    1 nodes for type:  6
       PAW data deallocated on    4 nodes for type:  7

     total cpu time spent up to now is      146.7 secs

     Self-consistent Calculation

     iteration #  1     ecut=    60.00 Ry     beta= 0.70
     Davidson diagonalization with overlap

---- Real-time Memory Report at c_bands before calling an iterative solver
           593 MiB given to the printing process from OS
             0 MiB allocation reported by mallinfo(arena+hblkhd)
         11380 MiB available memory on the node where the printing process lives
------------------
     c_bands:  2 eigenvalues not converged
     c_bands:  1 eigenvalues not converged
     c_bands:  1 eigenvalues not converged
     c_bands:  1 eigenvalues not converged
     c_bands:  2 eigenvalues not converged
     c_bands:  2 eigenvalues not converged
     c_bands:  1 eigenvalues not converged
     c_bands:  1 eigenvalues not converged
     c_bands:  1 eigenvalues not converged
     c_bands:  1 eigenvalues not converged
     c_bands:  1 eigenvalues not converged
     c_bands:  3 eigenvalues not converged
     c_bands:  1 eigenvalues not converged
     c_bands:  2 eigenvalues not converged
     c_bands:  2 eigenvalues not converged
     c_bands:  3 eigenvalues not converged
     c_bands:  1 eigenvalues not converged
     c_bands:  1 eigenvalues not converged
     c_bands:  3 eigenvalues not converged
     c_bands:  1 eigenvalues not converged
     c_bands:  3 eigenvalues not converged
     c_bands:  1 eigenvalues not converged
     c_bands:  1 eigenvalues not converged
     c_bands:  2 eigenvalues not converged
     c_bands:  3 eigenvalues not converged
     c_bands:  1 eigenvalues not converged
     c_bands:  1 eigenvalues not converged
     c_bands:  1 eigenvalues not converged
     ethr =  1.00E-05,  avg # of iterations = 39.8

     total cpu time spent up to now is     3733.0 secs

     total energy              =   -2344.37415717 Ry
     estimated scf accuracy    <       0.00418827 Ry

     total magnetization       =    -0.00 Bohr mag/cell
     absolute magnetization    =     0.00 Bohr mag/cell

     iteration #  2     ecut=    60.00 Ry     beta= 0.70
     Davidson diagonalization with overlap

---- Real-time Memory Report at c_bands before calling an iterative solver
           899 MiB given to the printing process from OS
             0 MiB allocation reported by mallinfo(arena+hblkhd)
         11111 MiB available memory on the node where the printing process lives
------------------
     c_bands:  1 eigenvalues not converged
     c_bands:  1 eigenvalues not converged
     c_bands:  1 eigenvalues not converged
     ethr =  1.69E-06,  avg # of iterations =  7.4

     total cpu time spent up to now is     4203.6 secs

     total energy              =   -2344.37493313 Ry
     estimated scf accuracy    <       0.00120685 Ry

     total magnetization       =    -0.00 Bohr mag/cell
     absolute magnetization    =     0.00 Bohr mag/cell

     iteration #  3     ecut=    60.00 Ry     beta= 0.70
     Davidson diagonalization with overlap

---- Real-time Memory Report at c_bands before calling an iterative solver
           902 MiB given to the printing process from OS
             0 MiB allocation reported by mallinfo(arena+hblkhd)
         11095 MiB available memory on the node where the printing process lives
------------------
     c_bands:  1 eigenvalues not converged
     c_bands:  1 eigenvalues not converged
     ethr =  4.87E-07,  avg # of iterations =  3.9

     total cpu time spent up to now is     4646.8 secs

     total energy              =   -2344.37516182 Ry
     estimated scf accuracy    <       0.00221315 Ry

     total magnetization       =    -0.00 Bohr mag/cell
     absolute magnetization    =     0.00 Bohr mag/cell

     iteration #  4     ecut=    60.00 Ry     beta= 0.70
     Davidson diagonalization with overlap

---- Real-time Memory Report at c_bands before calling an iterative solver
           904 MiB given to the printing process from OS
             0 MiB allocation reported by mallinfo(arena+hblkhd)
         11082 MiB available memory on the node where the printing process lives
------------------
     ethr =  4.87E-07,  avg # of iterations =  2.0

     total cpu time spent up to now is     5003.8 secs

     total energy              =   -2344.37556627 Ry
     estimated scf accuracy    <       0.00005179 Ry

     total magnetization       =     0.00 Bohr mag/cell
     absolute magnetization    =     0.00 Bohr mag/cell

     iteration #  5     ecut=    60.00 Ry     beta= 0.70
     Davidson diagonalization with overlap

---- Real-time Memory Report at c_bands before calling an iterative solver
           907 MiB given to the printing process from OS
             0 MiB allocation reported by mallinfo(arena+hblkhd)
         11067 MiB available memory on the node where the printing process lives
------------------
     ethr =  2.09E-08,  avg # of iterations = 10.8

     total cpu time spent up to now is     6030.7 secs

     total energy              =   -2344.37564986 Ry
     estimated scf accuracy    <       0.00001390 Ry

     total magnetization       =     0.00 Bohr mag/cell
     absolute magnetization    =     0.00 Bohr mag/cell

     iteration #  6     ecut=    60.00 Ry     beta= 0.70
     Davidson diagonalization with overlap

---- Real-time Memory Report at c_bands before calling an iterative solver
           909 MiB given to the printing process from OS
             0 MiB allocation reported by mallinfo(arena+hblkhd)
         11051 MiB available memory on the node where the printing process lives
------------------
     ethr =  5.60E-09,  avg # of iterations =  6.2

     Magnetic moment per site  (integrated on atomic sphere of radius R)
     atom   1 (R=0.218)  charge=  7.5829  magn=  0.0000
     atom   2 (R=0.218)  charge=  7.5872  magn=  0.0000
     atom   3 (R=0.155)  charge=  8.0855  magn= -0.0000
     atom   4 (R=0.155)  charge=  8.0801  magn= -0.0000
     atom   5 (R=0.155)  charge=  8.0821  magn= -0.0000
     atom   6 (R=0.155)  charge=  8.0834  magn= -0.0000
     atom   7 (R=0.124)  charge=  0.5176  magn= -0.0000
     atom   8 (R=0.124)  charge=  0.5176  magn= -0.0000
     atom   9 (R=0.124)  charge=  0.5158  magn=  0.0000
     atom  10 (R=0.124)  charge=  0.5158  magn=  0.0000
     atom  11 (R=0.124)  charge=  0.5147  magn=  0.0000
     atom  12 (R=0.124)  charge=  0.5147  magn=  0.0000
     atom  13 (R=0.136)  charge=  0.3440  magn=  0.0000
     atom  14 (R=0.136)  charge=  0.3440  magn=  0.0000
     atom  15 (R=0.075)  charge=  1.9368  magn=  0.0000
     atom  16 (R=0.075)  charge=  1.9368  magn=  0.0000
     atom  17 (R=0.075)  charge=  1.9441  magn=  0.0000
     atom  18 (R=0.075)  charge=  1.9441  magn=  0.0000
     atom  19 (R=0.075)  charge=  1.9444  magn= -0.0000
     atom  20 (R=0.075)  charge=  1.9444  magn= -0.0000
     atom  21 (R=0.075)  charge=  1.9366  magn= -0.0000
     atom  22 (R=0.075)  charge=  1.9366  magn= -0.0000
     atom  23 (R=0.075)  charge=  1.9475  magn= -0.0000
     atom  24 (R=0.075)  charge=  1.9475  magn= -0.0000
     atom  25 (R=0.075)  charge=  1.9529  magn=  0.0000
     atom  26 (R=0.075)  charge=  1.9529  magn=  0.0000
     atom  27 (R=0.075)  charge=  1.9488  magn= -0.0000
     atom  28 (R=0.075)  charge=  1.9488  magn= -0.0000
     atom  29 (R=0.075)  charge=  1.9505  magn= -0.0000
     atom  30 (R=0.075)  charge=  1.9505  magn= -0.0000
     atom  31 (R=0.075)  charge=  1.9459  magn= -0.0000
     atom  32 (R=0.075)  charge=  1.9459  magn= -0.0000
     atom  33 (R=0.075)  charge=  1.9486  magn= -0.0000
     atom  34 (R=0.075)  charge=  1.9486  magn= -0.0000
     atom  35 (R=0.075)  charge=  1.9394  magn= -0.0000
     atom  36 (R=0.075)  charge=  1.9394  magn= -0.0000
     atom  37 (R=0.075)  charge=  1.9454  magn=  0.0000
     atom  38 (R=0.075)  charge=  1.9454  magn=  0.0000
     atom  39 (R=0.075)  charge=  0.3768  magn=  0.0000
     atom  40 (R=0.075)  charge=  0.3768  magn=  0.0000
     atom  41 (R=0.075)  charge=  0.3999  magn= -0.0000
     atom  42 (R=0.075)  charge=  0.3999  magn= -0.0000
     atom  43 (R=0.149)  charge=  8.3835  magn= -0.0000

     total cpu time spent up to now is     6538.3 secs

     End of self-consistent calculation

 ------ SPIN UP ------------


          k = 0.0000 0.0000 0.0000 ( 26779 PWs)   bands (ev):

   -68.2876 -68.1561 -67.9672 -67.6003 -52.7200 -35.0635 -35.0280 -35.0264
   -34.9163 -34.9130 -34.8918 -34.7318 -34.7224 -34.7013 -34.3615 -34.3513
   -34.3418 -29.0429 -28.9534 -28.9280 -23.5613 -23.3007 -15.2133 -15.1696
   -14.5674 -14.5105 -14.0733 -13.7568 -13.7415 -13.7112 -13.6804 -13.6524
   -13.6336 -13.3484 -13.2139 -13.1686 -13.0662 -13.0086 -12.8931 -12.8801
   -12.8335 -12.6154 -12.4837 -12.4057 -12.3804 -12.3144  -7.1065  -7.0481
    -7.0371  -6.8145  -6.8003  -6.7773  -4.4670  -4.4120  -2.9008  -2.8078
    -2.0236  -1.8420  -1.5798  -1.5259  -1.5123  -1.1693  -1.1528  -1.0904
    -0.9690  -0.8537  -0.6195  -0.5359  -0.3643  -0.2806  -0.1491  -0.0233
     0.1117   0.1701   0.3430   0.4027   0.5167   0.5591   0.8491   0.9077
     0.9395   0.9974   1.0817   1.1682   1.2348   1.2627   1.4066   1.4851
     1.5577   1.7223   1.7243   1.7766   1.7897   1.9641   2.0388   2.1770
     2.2162   2.2625   2.3246   2.3701   2.4241   2.4618   2.5193   2.6547
     2.7515   2.8288   2.8635   2.9495   3.0345   3.0353   3.0643   3.0682
     3.0902   3.1997   3.2057   3.3427   3.4016   3.5015   3.5316   3.5687
     3.5848   3.7102   3.7486   3.8531   6.8630   7.0565   7.2880   8.8225
     9.4803   9.7705  10.3494  11.0600  11.2929  11.5993  11.7355  11.9832
    12.1158  12.4708  12.6357  12.6440  12.8413  12.9229  12.9785  13.1606
    13.2105  13.3206  13.4495  13.5224  13.5856

     occupation numbers 
     1.0000   1.0000   1.0000   1.0000   1.0000   1.0000   1.0000   1.0000
     1.0000   1.0000   1.0000   1.0000   1.0000   1.0000   1.0000   1.0000
     1.0000   1.0000   1.0000   1.0000   1.0000   1.0000   1.0000   1.0000
     1.0000   1.0000   1.0000   1.0000   1.0000   1.0000   1.0000   1.0000
     1.0000   1.0000   1.0000   1.0000   1.0000   1.0000   1.0000   1.0000
     1.0000   1.0000   1.0000   1.0000   1.0000   1.0000   1.0000   1.0000
     1.0000   1.0000   1.0000   1.0000   1.0000   1.0000   1.0000   1.0000
     1.0000   1.0000   1.0000   1.0000   1.0000   1.0000   1.0000   1.0000
     1.0000   1.0000   1.0000   1.0000   1.0000   1.0000   1.0000   1.0000
     1.0000   1.0000   1.0000   1.0000   1.0000   1.0000   1.0000   1.0000
     1.0000   1.0000   1.0000   1.0000   1.0000   1.0000   1.0000   1.0000
     1.0000   1.0000   1.0000   1.0000   1.0000   1.0000   1.0000   1.0000
     1.0000   1.0000   1.0000   1.0000   1.0000   1.0000   1.0000   1.0000
     1.0000   1.0000   1.0000   1.0000   1.0000   1.0000   1.0000   1.0000
     1.0000   1.0000   1.0000   1.0000   1.0000   1.0000   1.0000   1.0000
     1.0000   1.0000   1.0000   1.0000   0.0000   0.0000   0.0000   0.0000
     0.0000   0.0000   0.0000   0.0000   0.0000   0.0000   0.0000   0.0000
     0.0000   0.0000   0.0000   0.0000   0.0000   0.0000   0.0000   0.0000
     0.0000   0.0000   0.0000   0.0000   0.0000

          k = 0.0000 0.0000 0.1736 ( 26756 PWs)   bands (ev):

   -68.2876 -68.1561 -67.9672 -67.6003 -52.7200 -35.0635 -35.0280 -35.0264
   -34.9163 -34.9130 -34.8918 -34.7318 -34.7224 -34.7013 -34.3615 -34.3513
   -34.3418 -29.0429 -28.9534 -28.9280 -23.5613 -23.3007 -15.2029 -15.1808
   -14.5547 -14.5238 -14.0709 -13.7709 -13.7387 -13.7012 -13.6857 -13.6511
   -13.6294 -13.3485 -13.2048 -13.1797 -13.0562 -13.0166 -12.8970 -12.8761
   -12.8325 -12.6122 -12.4858 -12.4023 -12.3822 -12.3182  -7.1065  -7.0481
    -7.0371  -6.8146  -6.8002  -6.7773  -4.4602  -4.4190  -2.8795  -2.8316
    -2.0049  -1.8363  -1.5845  -1.5438  -1.4967  -1.1636  -1.1554  -1.0729
    -0.9762  -0.8065  -0.6834  -0.5575  -0.3325  -0.2701  -0.2397  -0.0337
     0.1140   0.1994   0.2801   0.4083   0.5301   0.5535   0.8303   0.8598
     0.9694   0.9923   1.1158   1.1978   1.2503   1.3254   1.3528   1.5336
     1.7037   1.7144   1.7585   1.7834   1.8346   1.9681   1.9843   2.1611
     2.2175   2.2464   2.2808   2.3371   2.3808   2.4544   2.5524   2.5836
     2.7581   2.8169   2.8749   2.9384   2.9912   3.0489   3.0595   3.0967
     3.1491   3.1780   3.2173   3.3376   3.3847   3.4750   3.5220   3.5516
     3.5730   3.7393   3.7636   3.8537   6.8640   7.0582   7.2852   9.1247
     9.4690   9.7644   9.8553  11.1576  11.3537  11.5350  11.7696  11.9160
    12.2872  12.4588  12.6829  12.8145  12.8511  12.9883  12.9975  13.0634
    13.2290  13.3151  13.3923  13.4916  13.5829

     occupation numbers 
     1.0000   1.0000   1.0000   1.0000   1.0000   1.0000   1.0000   1.0000
     1.0000   1.0000   1.0000   1.0000   1.0000   1.0000   1.0000   1.0000
     1.0000   1.0000   1.0000   1.0000   1.0000   1.0000   1.0000   1.0000
     1.0000   1.0000   1.0000   1.0000   1.0000   1.0000   1.0000   1.0000
     1.0000   1.0000   1.0000   1.0000   1.0000   1.0000   1.0000   1.0000
     1.0000   1.0000   1.0000   1.0000   1.0000   1.0000   1.0000   1.0000
     1.0000   1.0000   1.0000   1.0000   1.0000   1.0000   1.0000   1.0000
     1.0000   1.0000   1.0000   1.0000   1.0000   1.0000   1.0000   1.0000
     1.0000   1.0000   1.0000   1.0000   1.0000   1.0000   1.0000   1.0000
     1.0000   1.0000   1.0000   1.0000   1.0000   1.0000   1.0000   1.0000
     1.0000   1.0000   1.0000   1.0000   1.0000   1.0000   1.0000   1.0000
     1.0000   1.0000   1.0000   1.0000   1.0000   1.0000   1.0000   1.0000
     1.0000   1.0000   1.0000   1.0000   1.0000   1.0000   1.0000   1.0000
     1.0000   1.0000   1.0000   1.0000   1.0000   1.0000   1.0000   1.0000
     1.0000   1.0000   1.0000   1.0000   1.0000   1.0000   1.0000   1.0000
     1.0000   1.0000   1.0000   1.0000   0.0000   0.0000   0.0000   0.0000
     0.0000   0.0000   0.0000   0.0000   0.0000   0.0000   0.0000   0.0000
     0.0000   0.0000   0.0000   0.0000   0.0000   0.0000   0.0000   0.0000
     0.0000   0.0000   0.0000   0.0000   0.0000

          k = 0.0000 0.1929 0.0000 ( 26787 PWs)   bands (ev):

   -68.2876 -68.1561 -67.9672 -67.6003 -52.7200 -35.0636 -35.0281 -35.0264
   -34.9163 -34.9130 -34.8918 -34.7318 -34.7224 -34.7013 -34.3615 -34.3513
   -34.3418 -29.0429 -28.9534 -28.9280 -23.5613 -23.3007 -15.1996 -15.1599
   -14.6248 -14.5484 -14.0146 -13.7400 -13.7138 -13.6866 -13.6804 -13.6473
   -13.6051 -13.3477 -13.2506 -13.2083 -13.0902 -13.0210 -12.8959 -12.8807
   -12.8255 -12.6176 -12.4770 -12.3963 -12.3858 -12.3072  -7.1064  -7.0481
    -7.0370  -6.8150  -6.8000  -6.7774  -4.4090  -4.3525  -3.0631  -2.9792
    -2.0171  -1.8117  -1.5747  -1.4145  -1.3498  -1.1383  -1.1367  -1.0996
    -0.9806  -0.9571  -0.6360  -0.5274  -0.3682  -0.2134  -0.1700  -0.0677
     0.0427   0.2261   0.3590   0.3829   0.5002   0.5394   0.7758   0.8099
     0.9250   1.0672   1.1105   1.2524   1.3675   1.3880   1.4766   1.5234
     1.6183   1.7082   1.7321   1.7648   1.7764   1.8745   1.9143   2.0932
     2.1758   2.2822   2.2882   2.4269   2.4477   2.4877   2.5932   2.6455
     2.7194   2.7889   2.9067   2.9293   3.0094   3.0239   3.0815   3.1355
     3.1452   3.2131   3.2557   3.3057   3.3511   3.4317   3.4839   3.4872
     3.5184   3.6819   3.7739   3.8278   6.8770   7.0613   7.2863   9.2043
     9.4043   9.7749  10.2103  10.6163  11.2919  11.5719  11.8284  12.1976
    12.3591  12.4745  12.6182  12.6600  12.7331  12.9618  13.0226  13.1056
    13.1972  13.3023  13.3083  13.4354  13.5252

     occupation numbers 
     1.0000   1.0000   1.0000   1.0000   1.0000   1.0000   1.0000   1.0000
     1.0000   1.0000   1.0000   1.0000   1.0000   1.0000   1.0000   1.0000
     1.0000   1.0000   1.0000   1.0000   1.0000   1.0000   1.0000   1.0000
     1.0000   1.0000   1.0000   1.0000   1.0000   1.0000   1.0000   1.0000
     1.0000   1.0000   1.0000   1.0000   1.0000   1.0000   1.0000   1.0000
     1.0000   1.0000   1.0000   1.0000   1.0000   1.0000   1.0000   1.0000
     1.0000   1.0000   1.0000   1.0000   1.0000   1.0000   1.0000   1.0000
     1.0000   1.0000   1.0000   1.0000   1.0000   1.0000   1.0000   1.0000
     1.0000   1.0000   1.0000   1.0000   1.0000   1.0000   1.0000   1.0000
     1.0000   1.0000   1.0000   1.0000   1.0000   1.0000   1.0000   1.0000
     1.0000   1.0000   1.0000   1.0000   1.0000   1.0000   1.0000   1.0000
     1.0000   1.0000   1.0000   1.0000   1.0000   1.0000   1.0000   1.0000
     1.0000   1.0000   1.0000   1.0000   1.0000   1.0000   1.0000   1.0000
     1.0000   1.0000   1.0000   1.0000   1.0000   1.0000   1.0000   1.0000
     1.0000   1.0000   1.0000   1.0000   1.0000   1.0000   1.0000   1.0000
     1.0000   1.0000   1.0000   1.0000   0.0000   0.0000   0.0000   0.0000
     0.0000   0.0000   0.0000   0.0000   0.0000   0.0000   0.0000   0.0000
     0.0000   0.0000   0.0000   0.0000   0.0000   0.0000   0.0000   0.0000
     0.0000   0.0000   0.0000   0.0000   0.0000

          k = 0.0000 0.1929 0.1736 ( 26783 PWs)   bands (ev):

   -68.2876 -68.1561 -67.9672 -67.6003 -52.7200 -35.0635 -35.0281 -35.0264
   -34.9163 -34.9130 -34.8919 -34.7318 -34.7224 -34.7013 -34.3615 -34.3513
   -34.3418 -29.0429 -28.9534 -28.9280 -23.5613 -23.3007 -15.1899 -15.1701
   -14.6127 -14.5621 -14.0121 -13.7382 -13.7072 -13.6952 -13.6864 -13.6493
   -13.5969 -13.3479 -13.2408 -13.2198 -13.0817 -13.0287 -12.8987 -12.8775
   -12.8240 -12.6147 -12.4794 -12.3928 -12.3875 -12.3107  -7.1064  -7.0481
    -7.0369  -6.8150  -6.8000  -6.7774  -4.3995  -4.3624  -3.0437  -3.0001
    -2.0024  -1.8093  -1.5796  -1.3985  -1.3656  -1.1390  -1.1273  -1.0815
    -0.9900  -0.9067  -0.6963  -0.5607  -0.3375  -0.2681  -0.2019  -0.0749
     0.0592   0.2395   0.2943   0.4037   0.5079   0.5253   0.7857   0.8164
     0.9139   1.0832   1.1248   1.3261   1.3476   1.4059   1.5133   1.5521
     1.6955   1.7180   1.7476   1.7597   1.8066   1.8669   1.9022   2.0451
     2.1914   2.2694   2.3068   2.3296   2.4258   2.4444   2.5535   2.6461
     2.7604   2.7911   2.8813   2.9403   2.9901   3.0520   3.0868   3.1210
     3.1804   3.2163   3.2265   3.3090   3.3449   3.4264   3.4627   3.4802
     3.5119   3.7060   3.7838   3.8310   6.8779   7.0635   7.2830   9.2993
     9.5522   9.7869  10.1655  10.4129  10.9146  11.5794  12.0268  12.2667
    12.3889  12.5396  12.6794  12.8316  12.8970  12.9647  13.0579  13.1225
    13.1623  13.2715  13.3499  13.4032  13.4987

     occupation numbers 
     1.0000   1.0000   1.0000   1.0000   1.0000   1.0000   1.0000   1.0000
     1.0000   1.0000   1.0000   1.0000   1.0000   1.0000   1.0000   1.0000
     1.0000   1.0000   1.0000   1.0000   1.0000   1.0000   1.0000   1.0000
     1.0000   1.0000   1.0000   1.0000   1.0000   1.0000   1.0000   1.0000
     1.0000   1.0000   1.0000   1.0000   1.0000   1.0000   1.0000   1.0000
     1.0000   1.0000   1.0000   1.0000   1.0000   1.0000   1.0000   1.0000
     1.0000   1.0000   1.0000   1.0000   1.0000   1.0000   1.0000   1.0000
     1.0000   1.0000   1.0000   1.0000   1.0000   1.0000   1.0000   1.0000
     1.0000   1.0000   1.0000   1.0000   1.0000   1.0000   1.0000   1.0000
     1.0000   1.0000   1.0000   1.0000   1.0000   1.0000   1.0000   1.0000
     1.0000   1.0000   1.0000   1.0000   1.0000   1.0000   1.0000   1.0000
     1.0000   1.0000   1.0000   1.0000   1.0000   1.0000   1.0000   1.0000
     1.0000   1.0000   1.0000   1.0000   1.0000   1.0000   1.0000   1.0000
     1.0000   1.0000   1.0000   1.0000   1.0000   1.0000   1.0000   1.0000
     1.0000   1.0000   1.0000   1.0000   1.0000   1.0000   1.0000   1.0000
     1.0000   1.0000   1.0000   1.0000   0.0000   0.0000   0.0000   0.0000
     0.0000   0.0000   0.0000   0.0000   0.0000   0.0000   0.0000   0.0000
     0.0000   0.0000   0.0000   0.0000   0.0000   0.0000   0.0000   0.0000
     0.0000   0.0000   0.0000   0.0000   0.0000

          k = 0.1671 0.0000 0.0300 ( 26772 PWs)   bands (ev):

   -68.2876 -68.1561 -67.9672 -67.6003 -52.7200 -35.0635 -35.0281 -35.0264
   -34.9163 -34.9130 -34.8918 -34.7318 -34.7224 -34.7013 -34.3614 -34.3514
   -34.3418 -29.0431 -28.9533 -28.9280 -23.5612 -23.3006 -15.1631 -15.1201
   -14.5453 -14.4949 -14.0739 -13.8887 -13.8655 -13.6836 -13.6589 -13.6158
   -13.5825 -13.3657 -13.2322 -13.1821 -13.0588 -13.0109 -12.9499 -12.9038
   -12.7819 -12.6075 -12.4910 -12.4207 -12.3870 -12.3102  -7.1073  -7.0477
    -7.0362  -6.8174  -6.7998  -6.7739  -4.3136  -4.2594  -2.8269  -2.7330
    -1.9947  -1.8741  -1.7112  -1.6473  -1.5907  -1.1651  -1.1168  -1.0984
    -0.9672  -0.7740  -0.6283  -0.4724  -0.3426  -0.2448  -0.1434  -0.0082
     0.1017   0.1657   0.2140   0.3967   0.5098   0.5678   0.7074   0.7237
     0.9736   1.0685   1.1462   1.2176   1.2723   1.3129   1.4463   1.4665
     1.5541   1.6782   1.6976   1.7787   1.9411   1.9810   2.0613   2.1250
     2.1442   2.2586   2.3345   2.3695   2.3894   2.5024   2.5302   2.6596
     2.7193   2.7991   2.8404   2.8884   2.9654   3.0001   3.0334   3.0741
     3.1202   3.1681   3.2155   3.2976   3.3777   3.4384   3.4926   3.5247
     3.5987   3.6712   3.7585   3.7707   6.8677   7.0823   7.2539   9.1252
     9.4821   9.7298  10.5574  11.1505  11.4066  11.6977  11.8255  12.0762
    12.1798  12.5461  12.6099  12.7217  12.7783  12.8300  12.9127  13.1216
    13.1614  13.3206  13.3714  13.4681  13.6007

     occupation numbers 
     1.0000   1.0000   1.0000   1.0000   1.0000   1.0000   1.0000   1.0000
     1.0000   1.0000   1.0000   1.0000   1.0000   1.0000   1.0000   1.0000
     1.0000   1.0000   1.0000   1.0000   1.0000   1.0000   1.0000   1.0000
     1.0000   1.0000   1.0000   1.0000   1.0000   1.0000   1.0000   1.0000
     1.0000   1.0000   1.0000   1.0000   1.0000   1.0000   1.0000   1.0000
     1.0000   1.0000   1.0000   1.0000   1.0000   1.0000   1.0000   1.0000
     1.0000   1.0000   1.0000   1.0000   1.0000   1.0000   1.0000   1.0000
     1.0000   1.0000   1.0000   1.0000   1.0000   1.0000   1.0000   1.0000
     1.0000   1.0000   1.0000   1.0000   1.0000   1.0000   1.0000   1.0000
     1.0000   1.0000   1.0000   1.0000   1.0000   1.0000   1.0000   1.0000
     1.0000   1.0000   1.0000   1.0000   1.0000   1.0000   1.0000   1.0000
     1.0000   1.0000   1.0000   1.0000   1.0000   1.0000   1.0000   1.0000
     1.0000   1.0000   1.0000   1.0000   1.0000   1.0000   1.0000   1.0000
     1.0000   1.0000   1.0000   1.0000   1.0000   1.0000   1.0000   1.0000
     1.0000   1.0000   1.0000   1.0000   1.0000   1.0000   1.0000   1.0000
     1.0000   1.0000   1.0000   1.0000   0.0000   0.0000   0.0000   0.0000
     0.0000   0.0000   0.0000   0.0000   0.0000   0.0000   0.0000   0.0000
     0.0000   0.0000   0.0000   0.0000   0.0000   0.0000   0.0000   0.0000
     0.0000   0.0000   0.0000   0.0000   0.0000

          k = 0.1671 0.0000 0.2036 ( 26774 PWs)   bands (ev):

   -68.2876 -68.1561 -67.9672 -67.6003 -52.7200 -35.0635 -35.0281 -35.0264
   -34.9163 -34.9130 -34.8918 -34.7318 -34.7224 -34.7013 -34.3614 -34.3514
   -34.3418 -29.0431 -28.9533 -28.9280 -23.5612 -23.3006 -15.1501 -15.1338
   -14.5312 -14.5096 -14.0687 -13.9086 -13.8507 -13.6845 -13.6555 -13.6243
   -13.5753 -13.3656 -13.2296 -13.1856 -13.0513 -13.0159 -12.9433 -12.9157
   -12.7766 -12.6040 -12.4929 -12.4219 -12.3856 -12.3138  -7.1073  -7.0477
    -7.0361  -6.8174  -6.7997  -6.7739  -4.3105  -4.2627  -2.8115  -2.7512
    -1.9745  -1.8581  -1.7483  -1.6311  -1.5900  -1.1464  -1.1147  -1.1102
    -0.9600  -0.7151  -0.6969  -0.4950  -0.3236  -0.2408  -0.2089  -0.0091
     0.0754   0.1591   0.2410   0.4001   0.5195   0.5618   0.6367   0.7208
     0.9712   1.0718   1.1731   1.1935   1.3298   1.3580   1.4262   1.5221
     1.6176   1.6890   1.7604   1.8503   1.9394   1.9825   2.0025   2.1114
     2.1529   2.2496   2.2805   2.3323   2.3563   2.4589   2.5563   2.5801
     2.7272   2.8378   2.8760   2.8930   2.9222   2.9833   3.0369   3.0995
     3.1170   3.1910   3.2251   3.3031   3.3609   3.4201   3.4755   3.4989
     3.5829   3.6960   3.7704   3.7862   6.8678   7.0840   7.2516   9.4073
     9.4758   9.8196   9.9686  11.2337  11.4645  11.6048  11.9141  11.9812
    12.2686  12.5675  12.5815  12.7305  12.9199  12.9721  13.0454  13.1206
    13.2240  13.2997  13.3873  13.4071  13.4814

     occupation numbers 
     1.0000   1.0000   1.0000   1.0000   1.0000   1.0000   1.0000   1.0000
     1.0000   1.0000   1.0000   1.0000   1.0000   1.0000   1.0000   1.0000
     1.0000   1.0000   1.0000   1.0000   1.0000   1.0000   1.0000   1.0000
     1.0000   1.0000   1.0000   1.0000   1.0000   1.0000   1.0000   1.0000
     1.0000   1.0000   1.0000   1.0000   1.0000   1.0000   1.0000   1.0000
     1.0000   1.0000   1.0000   1.0000   1.0000   1.0000   1.0000   1.0000
     1.0000   1.0000   1.0000   1.0000   1.0000   1.0000   1.0000   1.0000
     1.0000   1.0000   1.0000   1.0000   1.0000   1.0000   1.0000   1.0000
     1.0000   1.0000   1.0000   1.0000   1.0000   1.0000   1.0000   1.0000
     1.0000   1.0000   1.0000   1.0000   1.0000   1.0000   1.0000   1.0000
     1.0000   1.0000   1.0000   1.0000   1.0000   1.0000   1.0000   1.0000
     1.0000   1.0000   1.0000   1.0000   1.0000   1.0000   1.0000   1.0000
     1.0000   1.0000   1.0000   1.0000   1.0000   1.0000   1.0000   1.0000
     1.0000   1.0000   1.0000   1.0000   1.0000   1.0000   1.0000   1.0000
     1.0000   1.0000   1.0000   1.0000   1.0000   1.0000   1.0000   1.0000
     1.0000   1.0000   1.0000   1.0000   0.0000   0.0000   0.0000   0.0000
     0.0000   0.0000   0.0000   0.0000   0.0000   0.0000   0.0000   0.0000
     0.0000   0.0000   0.0000   0.0000   0.0000   0.0000   0.0000   0.0000
     0.0000   0.0000   0.0000   0.0000   0.0000

          k = 0.1671 0.0000-0.1435 ( 26772 PWs)   bands (ev):

   -68.2876 -68.1561 -67.9672 -67.6003 -52.7200 -35.0635 -35.0281 -35.0264
   -34.9163 -34.9130 -34.8918 -34.7318 -34.7224 -34.7013 -34.3614 -34.3514
   -34.3418 -29.0431 -28.9533 -28.9280 -23.5612 -23.3006 -15.1553 -15.1284
   -14.5352 -14.5057 -14.0697 -13.9030 -13.8549 -13.6875 -13.6579 -13.6111
   -13.5837 -13.3660 -13.2175 -13.1986 -13.0485 -13.0220 -12.9405 -12.9129
   -12.7790 -12.6044 -12.4921 -12.4188 -12.3864 -12.3150  -7.1074  -7.0477
    -7.0361  -6.8174  -6.7997  -6.7739  -4.3021  -4.2713  -2.8046  -2.7579
    -1.9827  -1.8616  -1.7360  -1.6339  -1.5938  -1.1515  -1.1136  -1.1029
    -0.9625  -0.7503  -0.6506  -0.4982  -0.3098  -0.2634  -0.2046  -0.0034
     0.0723   0.1570   0.2516   0.3713   0.5095   0.5825   0.6978   0.7453
     0.9947   1.0356   1.1220   1.1916   1.3289   1.3588   1.4123   1.5168
     1.6429   1.6607   1.7009   1.8071   1.9640   1.9803   2.0100   2.1230
     2.1504   2.2394   2.3353   2.3413   2.3691   2.4807   2.5528   2.6577
     2.7376   2.7939   2.8841   2.8994   2.9557   2.9772   2.9894   3.0514
     3.0923   3.1613   3.2425   3.2899   3.3846   3.4538   3.4659   3.4973
     3.5829   3.6980   3.7625   3.7973   6.8680   7.0830   7.2541   9.3190
     9.4747   9.6713  10.2713  11.2642  11.5174  11.6071  11.8553  12.0127
    12.2286  12.5715  12.6702  12.6881  12.8609  12.8912  12.9736  13.0036
    13.2291  13.2375  13.3892  13.4380  13.5706

     occupation numbers 
     1.0000   1.0000   1.0000   1.0000   1.0000   1.0000   1.0000   1.0000
     1.0000   1.0000   1.0000   1.0000   1.0000   1.0000   1.0000   1.0000
     1.0000   1.0000   1.0000   1.0000   1.0000   1.0000   1.0000   1.0000
     1.0000   1.0000   1.0000   1.0000   1.0000   1.0000   1.0000   1.0000
     1.0000   1.0000   1.0000   1.0000   1.0000   1.0000   1.0000   1.0000
     1.0000   1.0000   1.0000   1.0000   1.0000   1.0000   1.0000   1.0000
     1.0000   1.0000   1.0000   1.0000   1.0000   1.0000   1.0000   1.0000
     1.0000   1.0000   1.0000   1.0000   1.0000   1.0000   1.0000   1.0000
     1.0000   1.0000   1.0000   1.0000   1.0000   1.0000   1.0000   1.0000
     1.0000   1.0000   1.0000   1.0000   1.0000   1.0000   1.0000   1.0000
     1.0000   1.0000   1.0000   1.0000   1.0000   1.0000   1.0000   1.0000
     1.0000   1.0000   1.0000   1.0000   1.0000   1.0000   1.0000   1.0000
     1.0000   1.0000   1.0000   1.0000   1.0000   1.0000   1.0000   1.0000
     1.0000   1.0000   1.0000   1.0000   1.0000   1.0000   1.0000   1.0000
     1.0000   1.0000   1.0000   1.0000   1.0000   1.0000   1.0000   1.0000
     1.0000   1.0000   1.0000   1.0000   0.0000   0.0000   0.0000   0.0000
     0.0000   0.0000   0.0000   0.0000   0.0000   0.0000   0.0000   0.0000
     0.0000   0.0000   0.0000   0.0000   0.0000   0.0000   0.0000   0.0000
     0.0000   0.0000   0.0000   0.0000   0.0000

          k = 0.1671 0.1929 0.0300 ( 26762 PWs)   bands (ev):

   -68.2876 -68.1561 -67.9672 -67.6003 -52.7200 -35.0635 -35.0281 -35.0264
   -34.9163 -34.9130 -34.8918 -34.7318 -34.7224 -34.7013 -34.3614 -34.3514
   -34.3418 -29.0431 -28.9533 -28.9280 -23.5612 -23.3006 -15.1501 -15.1110
   -14.5992 -14.5300 -14.0165 -13.8610 -13.8455 -13.6891 -13.6639 -13.5987
   -13.5592 -13.3670 -13.2621 -13.2142 -13.0783 -13.0196 -12.9434 -12.9000
   -12.7807 -12.6089 -12.4847 -12.4197 -12.3865 -12.3055  -7.1073  -7.0477
    -7.0361  -6.8179  -6.7994  -6.7741  -4.2599  -4.2044  -2.9990  -2.9179
    -1.9848  -1.8046  -1.6044  -1.5519  -1.4991  -1.2205  -1.1265  -1.0771
    -0.9746  -0.8211  -0.6276  -0.4465  -0.3163  -0.1825  -0.1794  -0.0809
     0.0475   0.1671   0.2376   0.3875   0.4723   0.5731   0.6234   0.7948
     1.0104   1.0288   1.1418   1.2901   1.3615   1.3848   1.4537   1.5074
     1.5928   1.6366   1.6770   1.7548   1.8928   1.9185   2.0175   2.1070
     2.1520   2.2460   2.3166   2.3931   2.4089   2.5304   2.5851   2.6269
     2.7193   2.8024   2.8814   2.9110   2.9678   3.0267   3.0574   3.0858
     3.1391   3.1671   3.2059   3.2289   3.3297   3.4010   3.4381   3.5150
     3.5345   3.6377   3.7702   3.7926   6.8816   7.0857   7.2510   9.3942
     9.4907   9.7466  10.3898  10.7755  11.4099  11.6092  11.9354  12.1961
    12.3934  12.4872  12.6137  12.7270  12.8048  12.8836  12.9807  13.1010
    13.1928  13.2398  13.3522  13.4287  13.4491

     occupation numbers 
     1.0000   1.0000   1.0000   1.0000   1.0000   1.0000   1.0000   1.0000
     1.0000   1.0000   1.0000   1.0000   1.0000   1.0000   1.0000   1.0000
     1.0000   1.0000   1.0000   1.0000   1.0000   1.0000   1.0000   1.0000
     1.0000   1.0000   1.0000   1.0000   1.0000   1.0000   1.0000   1.0000
     1.0000   1.0000   1.0000   1.0000   1.0000   1.0000   1.0000   1.0000
     1.0000   1.0000   1.0000   1.0000   1.0000   1.0000   1.0000   1.0000
     1.0000   1.0000   1.0000   1.0000   1.0000   1.0000   1.0000   1.0000
     1.0000   1.0000   1.0000   1.0000   1.0000   1.0000   1.0000   1.0000
     1.0000   1.0000   1.0000   1.0000   1.0000   1.0000   1.0000   1.0000
     1.0000   1.0000   1.0000   1.0000   1.0000   1.0000   1.0000   1.0000
     1.0000   1.0000   1.0000   1.0000   1.0000   1.0000   1.0000   1.0000
     1.0000   1.0000   1.0000   1.0000   1.0000   1.0000   1.0000   1.0000
     1.0000   1.0000   1.0000   1.0000   1.0000   1.0000   1.0000   1.0000
     1.0000   1.0000   1.0000   1.0000   1.0000   1.0000   1.0000   1.0000
     1.0000   1.0000   1.0000   1.0000   1.0000   1.0000   1.0000   1.0000
     1.0000   1.0000   1.0000   1.0000   0.0000   0.0000   0.0000   0.0000
     0.0000   0.0000   0.0000   0.0000   0.0000   0.0000   0.0000   0.0000
     0.0000   0.0000   0.0000   0.0000   0.0000   0.0000   0.0000   0.0000
     0.0000   0.0000   0.0000   0.0000   0.0000

          k = 0.1671 0.1929 0.2036 ( 26761 PWs)   bands (ev):

   -68.2876 -68.1561 -67.9672 -67.6003 -52.7200 -35.0635 -35.0281 -35.0264
   -34.9163 -34.9130 -34.8918 -34.7318 -34.7224 -34.7013 -34.3614 -34.3514
   -34.3418 -29.0431 -28.9533 -28.9280 -23.5612 -23.3006 -15.1382 -15.1235
   -14.5846 -14.5465 -14.0127 -13.8662 -13.8432 -13.6859 -13.6614 -13.6118
   -13.5501 -13.3671 -13.2580 -13.2193 -13.0702 -13.0273 -12.9344 -12.9120
   -12.7755 -12.6059 -12.4870 -12.4219 -12.3838 -12.3088  -7.1072  -7.0477
    -7.0360  -6.8179  -6.7993  -6.7741  -4.2533  -4.2113  -2.9832  -2.9351
    -1.9701  -1.8018  -1.6127  -1.5461  -1.5025  -1.2095  -1.1322  -1.0719
    -0.9561  -0.7795  -0.6826  -0.4762  -0.3138  -0.2498  -0.1647  -0.0842
     0.0591   0.1451   0.2515   0.3877   0.4674   0.5618   0.6069   0.7888
     1.0066   1.0311   1.1572   1.2941   1.3420   1.4633   1.4962   1.5336
     1.6226   1.6662   1.7251   1.8250   1.8901   1.9300   1.9539   2.0929
     2.1521   2.2266   2.2659   2.3482   2.3695   2.4730   2.5589   2.6363
     2.7410   2.8299   2.8794   2.9131   2.9858   3.0151   3.0676   3.0819
     3.1410   3.1657   3.2049   3.2562   3.3106   3.4054   3.4199   3.4778
     3.5263   3.6628   3.7851   3.7990   6.8816   7.0878   7.2484   9.3725
     9.6533   9.8996  10.2760  10.6238  11.0019  11.5961  12.0966  12.3230
    12.3934  12.5166  12.6473  12.8524  12.9087  13.0160  13.0701  13.0908
    13.2374  13.2826  13.3483  13.3758  13.4242

     occupation numbers 
     1.0000   1.0000   1.0000   1.0000   1.0000   1.0000   1.0000   1.0000
     1.0000   1.0000   1.0000   1.0000   1.0000   1.0000   1.0000   1.0000
     1.0000   1.0000   1.0000   1.0000   1.0000   1.0000   1.0000   1.0000
     1.0000   1.0000   1.0000   1.0000   1.0000   1.0000   1.0000   1.0000
     1.0000   1.0000   1.0000   1.0000   1.0000   1.0000   1.0000   1.0000
     1.0000   1.0000   1.0000   1.0000   1.0000   1.0000   1.0000   1.0000
     1.0000   1.0000   1.0000   1.0000   1.0000   1.0000   1.0000   1.0000
     1.0000   1.0000   1.0000   1.0000   1.0000   1.0000   1.0000   1.0000
     1.0000   1.0000   1.0000   1.0000   1.0000   1.0000   1.0000   1.0000
     1.0000   1.0000   1.0000   1.0000   1.0000   1.0000   1.0000   1.0000
     1.0000   1.0000   1.0000   1.0000   1.0000   1.0000   1.0000   1.0000
     1.0000   1.0000   1.0000   1.0000   1.0000   1.0000   1.0000   1.0000
     1.0000   1.0000   1.0000   1.0000   1.0000   1.0000   1.0000   1.0000
     1.0000   1.0000   1.0000   1.0000   1.0000   1.0000   1.0000   1.0000
     1.0000   1.0000   1.0000   1.0000   1.0000   1.0000   1.0000   1.0000
     1.0000   1.0000   1.0000   1.0000   0.0000   0.0000   0.0000   0.0000
     0.0000   0.0000   0.0000   0.0000   0.0000   0.0000   0.0000   0.0000
     0.0000   0.0000   0.0000   0.0000   0.0000   0.0000   0.0000   0.0000
     0.0000   0.0000   0.0000   0.0000   0.0000

          k = 0.1671 0.1929-0.1435 ( 26775 PWs)   bands (ev):

   -68.2876 -68.1561 -67.9672 -67.6003 -52.7200 -35.0635 -35.0281 -35.0264
   -34.9163 -34.9130 -34.8918 -34.7318 -34.7224 -34.7013 -34.3614 -34.3514
   -34.3418 -29.0431 -28.9533 -28.9280 -23.5612 -23.3006 -15.1432 -15.1184
   -14.5888 -14.5420 -14.0123 -13.8697 -13.8402 -13.6890 -13.6625 -13.6000
   -13.5584 -13.3675 -13.2464 -13.2314 -13.0684 -13.0306 -12.9341 -12.9090
   -12.7775 -12.6062 -12.4858 -12.4194 -12.3844 -12.3102  -7.1073  -7.0477
    -7.0360  -6.8179  -6.7994  -6.7740  -4.2467  -4.2180  -2.9766  -2.9420
    -1.9757  -1.8022  -1.6102  -1.5412  -1.5078  -1.2110  -1.1312  -1.0700
    -0.9589  -0.7886  -0.6690  -0.4763  -0.2964  -0.2473  -0.1751  -0.0746
     0.0282   0.1551   0.2512   0.3838   0.4670   0.5981   0.6013   0.8100
     0.9898   1.0578   1.1783   1.2501   1.3506   1.4478   1.4838   1.5365
     1.6039   1.6352   1.6848   1.7878   1.8754   1.9301   1.9750   2.1181
     2.1412   2.2374   2.3220   2.3623   2.3940   2.5073   2.5951   2.6351
     2.7537   2.7884   2.8754   2.9100   2.9502   2.9875   3.0892   3.1055
     3.1136   3.1576   3.1871   3.2596   3.3362   3.3977   3.4289   3.4657
     3.5267   3.6632   3.7862   3.8025   6.8821   7.0866   7.2514   9.3388
     9.6792   9.7600  10.4741  10.5595  11.1424  11.6581  12.0479  12.2644
    12.3604  12.5375  12.6241  12.8040  12.8335  12.9700  13.0637  13.0870
    13.2082  13.2502  13.3152  13.4139  13.4932

     occupation numbers 
     1.0000   1.0000   1.0000   1.0000   1.0000   1.0000   1.0000   1.0000
     1.0000   1.0000   1.0000   1.0000   1.0000   1.0000   1.0000   1.0000
     1.0000   1.0000   1.0000   1.0000   1.0000   1.0000   1.0000   1.0000
     1.0000   1.0000   1.0000   1.0000   1.0000   1.0000   1.0000   1.0000
     1.0000   1.0000   1.0000   1.0000   1.0000   1.0000   1.0000   1.0000
     1.0000   1.0000   1.0000   1.0000   1.0000   1.0000   1.0000   1.0000
     1.0000   1.0000   1.0000   1.0000   1.0000   1.0000   1.0000   1.0000
     1.0000   1.0000   1.0000   1.0000   1.0000   1.0000   1.0000   1.0000
     1.0000   1.0000   1.0000   1.0000   1.0000   1.0000   1.0000   1.0000
     1.0000   1.0000   1.0000   1.0000   1.0000   1.0000   1.0000   1.0000
     1.0000   1.0000   1.0000   1.0000   1.0000   1.0000   1.0000   1.0000
     1.0000   1.0000   1.0000   1.0000   1.0000   1.0000   1.0000   1.0000
     1.0000   1.0000   1.0000   1.0000   1.0000   1.0000   1.0000   1.0000
     1.0000   1.0000   1.0000   1.0000   1.0000   1.0000   1.0000   1.0000
     1.0000   1.0000   1.0000   1.0000   1.0000   1.0000   1.0000   1.0000
     1.0000   1.0000   1.0000   1.0000   0.0000   0.0000   0.0000   0.0000
     0.0000   0.0000   0.0000   0.0000   0.0000   0.0000   0.0000   0.0000
     0.0000   0.0000   0.0000   0.0000   0.0000   0.0000   0.0000   0.0000
     0.0000   0.0000   0.0000   0.0000   0.0000

          k = 0.3343 0.0000 0.0601 ( 26753 PWs)   bands (ev):

   -68.2876 -68.1561 -67.9672 -67.6003 -52.7200 -35.0635 -35.0282 -35.0263
   -34.9162 -34.9131 -34.8918 -34.7317 -34.7225 -34.7012 -34.3613 -34.3515
   -34.3418 -29.0435 -28.9532 -28.9281 -23.5609 -23.3003 -15.0352 -14.9948
   -14.5138 -14.4763 -14.1480 -14.0870 -13.9534 -13.6854 -13.6460 -13.5501
   -13.5045 -13.4180 -13.3022 -13.2534 -13.0440 -13.0157 -12.9791 -12.9488
   -12.7068 -12.5850 -12.5120 -12.4914 -12.3801 -12.3048  -7.1093  -7.0465
    -7.0344  -6.8232  -6.7987  -6.7672  -3.9254  -3.8714  -2.7724  -2.6722
    -2.1107  -2.0083  -1.7922  -1.6969  -1.6138  -1.2671  -1.1771  -1.0978
    -0.8807  -0.6704  -0.6095  -0.3413  -0.2647  -0.2362  -0.1218  -0.0413
     0.0139   0.1500   0.2192   0.3181   0.4374   0.4585   0.6340   0.7268
     0.8348   0.9961   1.1699   1.2186   1.2572   1.3882   1.4372   1.5011
     1.5741   1.6263   1.7963   1.8566   1.9135   2.0202   2.0548   2.0922
     2.2385   2.2643   2.3278   2.3726   2.4295   2.4912   2.5208   2.5745
     2.6491   2.7016   2.7746   2.8415   2.9019   2.9698   3.0473   3.0936
     3.1258   3.1586   3.1858   3.2064   3.2846   3.3463   3.3603   3.4997
     3.5444   3.5906   3.7084   3.7945   6.8766   7.1289   7.1854   9.4916
     9.5525  10.0119  10.9639  11.3001  11.7288  11.8547  11.8781  11.9685
    12.3016  12.4475  12.4550  12.6908  12.8030  12.8756  12.9936  13.0785
    13.2280  13.2426  13.3780  13.4114  13.6183

     occupation numbers 
     1.0000   1.0000   1.0000   1.0000   1.0000   1.0000   1.0000   1.0000
     1.0000   1.0000   1.0000   1.0000   1.0000   1.0000   1.0000   1.0000
     1.0000   1.0000   1.0000   1.0000   1.0000   1.0000   1.0000   1.0000
     1.0000   1.0000   1.0000   1.0000   1.0000   1.0000   1.0000   1.0000
     1.0000   1.0000   1.0000   1.0000   1.0000   1.0000   1.0000   1.0000
     1.0000   1.0000   1.0000   1.0000   1.0000   1.0000   1.0000   1.0000
     1.0000   1.0000   1.0000   1.0000   1.0000   1.0000   1.0000   1.0000
     1.0000   1.0000   1.0000   1.0000   1.0000   1.0000   1.0000   1.0000
     1.0000   1.0000   1.0000   1.0000   1.0000   1.0000   1.0000   1.0000
     1.0000   1.0000   1.0000   1.0000   1.0000   1.0000   1.0000   1.0000
     1.0000   1.0000   1.0000   1.0000   1.0000   1.0000   1.0000   1.0000
     1.0000   1.0000   1.0000   1.0000   1.0000   1.0000   1.0000   1.0000
     1.0000   1.0000   1.0000   1.0000   1.0000   1.0000   1.0000   1.0000
     1.0000   1.0000   1.0000   1.0000   1.0000   1.0000   1.0000   1.0000
     1.0000   1.0000   1.0000   1.0000   1.0000   1.0000   1.0000   1.0000
     1.0000   1.0000   1.0000   1.0000   0.0000   0.0000   0.0000   0.0000
     0.0000   0.0000   0.0000   0.0000   0.0000   0.0000   0.0000   0.0000
     0.0000   0.0000   0.0000   0.0000   0.0000   0.0000   0.0000   0.0000
     0.0000   0.0000   0.0000   0.0000   0.0000

          k = 0.3343 0.0000 0.2337 ( 26737 PWs)   bands (ev):

   -68.2876 -68.1561 -67.9672 -67.6003 -52.7200 -35.0635 -35.0282 -35.0263
   -34.9162 -34.9130 -34.8918 -34.7317 -34.7225 -34.7012 -34.3613 -34.3515
   -34.3418 -29.0435 -28.9532 -28.9281 -23.5609 -23.3003 -15.0211 -15.0096
   -14.5067 -14.4837 -14.1322 -14.1062 -13.9494 -13.6857 -13.6444 -13.5557
   -13.5010 -13.4188 -13.2913 -13.2629 -13.0382 -13.0130 -12.9826 -12.9555
   -12.7033 -12.5810 -12.5129 -12.4931 -12.3785 -12.3093  -7.1093  -7.0464
    -7.0344  -6.8232  -6.7987  -6.7671  -3.9242  -3.8726  -2.7550  -2.6921
    -2.0850  -2.0392  -1.7801  -1.6934  -1.6162  -1.2624  -1.1653  -1.1074
    -0.8662  -0.7096  -0.5615  -0.3692  -0.2510  -0.2373  -0.1585  -0.0493
     0.0195   0.1590   0.2127   0.3167   0.3937   0.4708   0.6413   0.7037
     0.8385   1.0059   1.1038   1.2544   1.3190   1.3784   1.4377   1.5279
     1.5888   1.7090   1.7785   1.8585   1.9637   2.0141   2.0538   2.0897
     2.1982   2.2449   2.2680   2.3503   2.4560   2.4675   2.5368   2.5786
     2.6398   2.7161   2.7956   2.8458   2.9404   2.9446   3.0073   3.0579
     3.1182   3.1730   3.1901   3.2231   3.2677   3.3317   3.3795   3.4961
     3.5205   3.5985   3.7322   3.8024   6.8755   7.1298   7.1857   9.4876
     9.5606  10.3729  10.4375  11.3433  11.7320  11.7845  11.8673  12.1473
    12.2484  12.3932  12.4378  12.7161  12.9341  12.9561  13.0362  13.1678
    13.2167  13.2377  13.3245  13.4346  13.4583

     occupation numbers 
     1.0000   1.0000   1.0000   1.0000   1.0000   1.0000   1.0000   1.0000
     1.0000   1.0000   1.0000   1.0000   1.0000   1.0000   1.0000   1.0000
     1.0000   1.0000   1.0000   1.0000   1.0000   1.0000   1.0000   1.0000
     1.0000   1.0000   1.0000   1.0000   1.0000   1.0000   1.0000   1.0000
     1.0000   1.0000   1.0000   1.0000   1.0000   1.0000   1.0000   1.0000
     1.0000   1.0000   1.0000   1.0000   1.0000   1.0000   1.0000   1.0000
     1.0000   1.0000   1.0000   1.0000   1.0000   1.0000   1.0000   1.0000
     1.0000   1.0000   1.0000   1.0000   1.0000   1.0000   1.0000   1.0000
     1.0000   1.0000   1.0000   1.0000   1.0000   1.0000   1.0000   1.0000
     1.0000   1.0000   1.0000   1.0000   1.0000   1.0000   1.0000   1.0000
     1.0000   1.0000   1.0000   1.0000   1.0000   1.0000   1.0000   1.0000
     1.0000   1.0000   1.0000   1.0000   1.0000   1.0000   1.0000   1.0000
     1.0000   1.0000   1.0000   1.0000   1.0000   1.0000   1.0000   1.0000
     1.0000   1.0000   1.0000   1.0000   1.0000   1.0000   1.0000   1.0000
     1.0000   1.0000   1.0000   1.0000   1.0000   1.0000   1.0000   1.0000
     1.0000   1.0000   1.0000   1.0000   0.0000   0.0000   0.0000   0.0000
     0.0000   0.0000   0.0000   0.0000   0.0000   0.0000   0.0000   0.0000
     0.0000   0.0000   0.0000   0.0000   0.0000   0.0000   0.0000   0.0000
     0.0000   0.0000   0.0000   0.0000   0.0000

          k = 0.3343 0.0000-0.1135 ( 26755 PWs)   bands (ev):

   -68.2876 -68.1561 -67.9672 -67.6003 -52.7200 -35.0635 -35.0282 -35.0263
   -34.9162 -34.9131 -34.8918 -34.7317 -34.7225 -34.7012 -34.3613 -34.3516
   -34.3418 -29.0435 -28.9532 -28.9281 -23.5609 -23.3003 -15.0299 -15.0005
   -14.5061 -14.4844 -14.1416 -14.0947 -13.9514 -13.6863 -13.6483 -13.5412
   -13.5113 -13.4185 -13.2879 -13.2672 -13.0352 -13.0237 -12.9751 -12.9536
   -12.7078 -12.5819 -12.5111 -12.4894 -12.3783 -12.3108  -7.1093  -7.0464
    -7.0344  -6.8232  -6.7987  -6.7671  -3.9065  -3.8906  -2.7568  -2.6907
    -2.1000  -2.0186  -1.7856  -1.6995  -1.6196  -1.2439  -1.1961  -1.0835
    -0.8763  -0.6968  -0.5606  -0.3624  -0.2602  -0.2265  -0.1919  -0.0258
     0.0263   0.1271   0.2074   0.3113   0.4350   0.4613   0.6672   0.7214
     0.8684   0.9736   1.1401   1.2526   1.3244   1.3829   1.3960   1.4595
     1.5523   1.6409   1.8276   1.8827   1.9334   2.0141   2.0501   2.0771
     2.2349   2.2831   2.3220   2.3563   2.4556   2.4779   2.5257   2.5838
     2.6997   2.7188   2.8148   2.8238   2.8808   2.9420   2.9739   3.0498
     3.0865   3.1610   3.1897   3.2316   3.2704   3.3208   3.4256   3.5009
     3.5216   3.6062   3.7177   3.8079   6.8756   7.1290   7.1875   9.4876
     9.6115   9.9692  10.8864  11.4073  11.6616  11.8330  11.9383  12.0897
    12.3016  12.3760  12.4573  12.6504  12.7968  12.8688  12.9854  13.0700
    13.2147  13.2468  13.3570  13.4158  13.5299

     occupation numbers 
     1.0000   1.0000   1.0000   1.0000   1.0000   1.0000   1.0000   1.0000
     1.0000   1.0000   1.0000   1.0000   1.0000   1.0000   1.0000   1.0000
     1.0000   1.0000   1.0000   1.0000   1.0000   1.0000   1.0000   1.0000
     1.0000   1.0000   1.0000   1.0000   1.0000   1.0000   1.0000   1.0000
     1.0000   1.0000   1.0000   1.0000   1.0000   1.0000   1.0000   1.0000
     1.0000   1.0000   1.0000   1.0000   1.0000   1.0000   1.0000   1.0000
     1.0000   1.0000   1.0000   1.0000   1.0000   1.0000   1.0000   1.0000
     1.0000   1.0000   1.0000   1.0000   1.0000   1.0000   1.0000   1.0000
     1.0000   1.0000   1.0000   1.0000   1.0000   1.0000   1.0000   1.0000
     1.0000   1.0000   1.0000   1.0000   1.0000   1.0000   1.0000   1.0000
     1.0000   1.0000   1.0000   1.0000   1.0000   1.0000   1.0000   1.0000
     1.0000   1.0000   1.0000   1.0000   1.0000   1.0000   1.0000   1.0000
     1.0000   1.0000   1.0000   1.0000   1.0000   1.0000   1.0000   1.0000
     1.0000   1.0000   1.0000   1.0000   1.0000   1.0000   1.0000   1.0000
     1.0000   1.0000   1.0000   1.0000   1.0000   1.0000   1.0000   1.0000
     1.0000   1.0000   1.0000   1.0000   0.0000   0.0000   0.0000   0.0000
     0.0000   0.0000   0.0000   0.0000   0.0000   0.0000   0.0000   0.0000
     0.0000   0.0000   0.0000   0.0000   0.0000   0.0000   0.0000   0.0000
     0.0000   0.0000   0.0000   0.0000   0.0000

          k = 0.3343 0.1929 0.0601 ( 26747 PWs)   bands (ev):

   -68.2876 -68.1561 -67.9672 -67.6003 -52.7200 -35.0635 -35.0282 -35.0263
   -34.9162 -34.9130 -34.8918 -34.7317 -34.7225 -34.7012 -34.3613 -34.3516
   -34.3418 -29.0435 -28.9532 -28.9281 -23.5609 -23.3003 -15.0261 -14.9891
   -14.5470 -14.4973 -14.1338 -14.0686 -13.9249 -13.6880 -13.6548 -13.5459
   -13.4918 -13.4263 -13.3152 -13.2619 -13.0531 -13.0130 -12.9777 -12.9433
   -12.7081 -12.5856 -12.5133 -12.4847 -12.3825 -12.3039  -7.1094  -7.0465
    -7.0343  -6.8239  -6.7982  -6.7672  -3.8920  -3.8395  -2.9105  -2.8293
    -2.0189  -1.8768  -1.7645  -1.6799  -1.5947  -1.2291  -1.1827  -1.0752
    -0.9009  -0.6785  -0.6264  -0.3180  -0.2535  -0.2137  -0.1641  -0.0809
    -0.0083   0.0960   0.2476   0.3182   0.4091   0.5675   0.6212   0.7366
     0.8663   0.9514   1.1322   1.2122   1.2777   1.3853   1.4401   1.5253
     1.5830   1.6142   1.7855   1.8616   1.9214   1.9724   2.0338   2.0655
     2.1425   2.2235   2.3267   2.3530   2.4233   2.5089   2.5764   2.6097
     2.6593   2.7186   2.8322   2.9167   2.9496   2.9773   3.0270   3.0701
     3.1180   3.1394   3.1777   3.1915   3.2669   3.3150   3.3659   3.4872
     3.5534   3.5785   3.7126   3.7994   6.8882   7.1310   7.1816   9.4369
     9.6255  10.1997  10.8799  11.1267  11.5641  11.6748  12.0309  12.1055
    12.2466  12.3152  12.5979  12.7929  12.8435  12.8706  12.9876  13.0605
    13.1730  13.2571  13.3774  13.4621  13.5940

     occupation numbers 
     1.0000   1.0000   1.0000   1.0000   1.0000   1.0000   1.0000   1.0000
     1.0000   1.0000   1.0000   1.0000   1.0000   1.0000   1.0000   1.0000
     1.0000   1.0000   1.0000   1.0000   1.0000   1.0000   1.0000   1.0000
     1.0000   1.0000   1.0000   1.0000   1.0000   1.0000   1.0000   1.0000
     1.0000   1.0000   1.0000   1.0000   1.0000   1.0000   1.0000   1.0000
     1.0000   1.0000   1.0000   1.0000   1.0000   1.0000   1.0000   1.0000
     1.0000   1.0000   1.0000   1.0000   1.0000   1.0000   1.0000   1.0000
     1.0000   1.0000   1.0000   1.0000   1.0000   1.0000   1.0000   1.0000
     1.0000   1.0000   1.0000   1.0000   1.0000   1.0000   1.0000   1.0000
     1.0000   1.0000   1.0000   1.0000   1.0000   1.0000   1.0000   1.0000
     1.0000   1.0000   1.0000   1.0000   1.0000   1.0000   1.0000   1.0000
     1.0000   1.0000   1.0000   1.0000   1.0000   1.0000   1.0000   1.0000
     1.0000   1.0000   1.0000   1.0000   1.0000   1.0000   1.0000   1.0000
     1.0000   1.0000   1.0000   1.0000   1.0000   1.0000   1.0000   1.0000
     1.0000   1.0000   1.0000   1.0000   1.0000   1.0000   1.0000   1.0000
     1.0000   1.0000   1.0000   1.0000   0.0000   0.0000   0.0000   0.0000
     0.0000   0.0000   0.0000   0.0000   0.0000   0.0000   0.0000   0.0000
     0.0000   0.0000   0.0000   0.0000   0.0000   0.0000   0.0000   0.0000
     0.0000   0.0000   0.0000   0.0000   0.0000

          k = 0.3343 0.1929 0.2337 ( 26742 PWs)   bands (ev):

   -68.2876 -68.1561 -67.9672 -67.6003 -52.7200 -35.0635 -35.0282 -35.0263
   -34.9162 -34.9130 -34.8918 -34.7317 -34.7225 -34.7012 -34.3613 -34.3516
   -34.3418 -29.0435 -28.9532 -28.9281 -23.5609 -23.3003 -15.0142 -15.0015
   -14.5316 -14.5141 -14.1238 -14.0810 -13.9210 -13.6878 -13.6520 -13.5533
   -13.4882 -13.4281 -13.3013 -13.2737 -13.0459 -13.0155 -12.9752 -12.9518
   -12.7043 -12.5826 -12.5140 -12.4868 -12.3803 -12.3081  -7.1094  -7.0464
    -7.0343  -6.8239  -6.7982  -6.7672  -3.8881  -3.8434  -2.8939  -2.8476
    -2.0064  -1.8932  -1.7653  -1.6667  -1.5983  -1.2194  -1.1736  -1.0884
    -0.8804  -0.7059  -0.5856  -0.3404  -0.2854  -0.2281  -0.1601  -0.0673
     0.0078   0.0904   0.2193   0.2793   0.4060   0.5842   0.6318   0.7244
     0.8663   0.9472   1.1158   1.2033   1.2904   1.4093   1.4873   1.5533
     1.5908   1.6933   1.7585   1.8618   1.9678   1.9763   2.0360   2.0483
     2.1180   2.1875   2.2567   2.3222   2.4416   2.4920   2.5590   2.6226
     2.6800   2.7568   2.8611   2.8925   2.9370   2.9754   3.0248   3.0836
     3.1027   3.1366   3.1750   3.2074   3.2558   3.2871   3.3865   3.4604
     3.5358   3.5910   3.7369   3.8068   6.8871   7.1319   7.1819   9.4244
     9.6159  10.5106  10.6808  11.1136  11.3242  11.5778  11.9957  12.2150
    12.2425  12.4391  12.5456  12.7449  12.8902  12.9965  13.0677  13.1831
    13.2125  13.2648  13.3935  13.4040  13.5864

     occupation numbers 
     1.0000   1.0000   1.0000   1.0000   1.0000   1.0000   1.0000   1.0000
     1.0000   1.0000   1.0000   1.0000   1.0000   1.0000   1.0000   1.0000
     1.0000   1.0000   1.0000   1.0000   1.0000   1.0000   1.0000   1.0000
     1.0000   1.0000   1.0000   1.0000   1.0000   1.0000   1.0000   1.0000
     1.0000   1.0000   1.0000   1.0000   1.0000   1.0000   1.0000   1.0000
     1.0000   1.0000   1.0000   1.0000   1.0000   1.0000   1.0000   1.0000
     1.0000   1.0000   1.0000   1.0000   1.0000   1.0000   1.0000   1.0000
     1.0000   1.0000   1.0000   1.0000   1.0000   1.0000   1.0000   1.0000
     1.0000   1.0000   1.0000   1.0000   1.0000   1.0000   1.0000   1.0000
     1.0000   1.0000   1.0000   1.0000   1.0000   1.0000   1.0000   1.0000
     1.0000   1.0000   1.0000   1.0000   1.0000   1.0000   1.0000   1.0000
     1.0000   1.0000   1.0000   1.0000   1.0000   1.0000   1.0000   1.0000
     1.0000   1.0000   1.0000   1.0000   1.0000   1.0000   1.0000   1.0000
     1.0000   1.0000   1.0000   1.0000   1.0000   1.0000   1.0000   1.0000
     1.0000   1.0000   1.0000   1.0000   1.0000   1.0000   1.0000   1.0000
     1.0000   1.0000   1.0000   1.0000   0.0000   0.0000   0.0000   0.0000
     0.0000   0.0000   0.0000   0.0000   0.0000   0.0000   0.0000   0.0000
     0.0000   0.0000   0.0000   0.0000   0.0000   0.0000   0.0000   0.0000
     0.0000   0.0000   0.0000   0.0000   0.0000

          k = 0.3343 0.1929-0.1135 ( 26749 PWs)   bands (ev):

   -68.2876 -68.1561 -67.9672 -67.6003 -52.7200 -35.0635 -35.0282 -35.0263
   -34.9162 -34.9130 -34.8918 -34.7317 -34.7225 -34.7012 -34.3613 -34.3515
   -34.3418 -29.0435 -28.9532 -28.9281 -23.5609 -23.3003 -15.0217 -14.9937
   -14.5389 -14.5063 -14.1228 -14.0826 -13.9208 -13.6886 -13.6560 -13.5383
   -13.4985 -13.4276 -13.3032 -13.2728 -13.0425 -13.0255 -12.9693 -12.9497
   -12.7087 -12.5829 -12.5108 -12.4847 -12.3802 -12.3097  -7.1095  -7.0465
    -7.0343  -6.8239  -6.7982  -6.7672  -3.8762  -3.8558  -2.8895  -2.8526
    -2.0130  -1.8795  -1.7636  -1.6790  -1.6006  -1.2046  -1.1932  -1.0742
    -0.8934  -0.6862  -0.6004  -0.3363  -0.2628  -0.2256  -0.1774  -0.0640
    -0.0108   0.0797   0.2232   0.2848   0.4153   0.5607   0.6498   0.7601
     0.8990   0.9697   1.1022   1.1973   1.3229   1.3727   1.4375   1.5098
     1.5560   1.6506   1.8044   1.8525   1.9292   1.9754   2.0249   2.0493
     2.1580   2.2014   2.3104   2.3535   2.4779   2.5099   2.5881   2.6341
     2.6831   2.7308   2.8343   2.8667   2.9205   2.9407   3.0250   3.0646
     3.0911   3.1212   3.1953   3.2324   3.2597   3.2985   3.3937   3.4381
     3.5416   3.6040   3.7331   3.8068   6.8876   7.1309   7.1839   9.4170
     9.6445  10.2498  10.9599  11.0076  11.5488  11.6619  12.0150  12.1233
    12.2258  12.3548  12.5262  12.7688  12.8316  12.9503  13.0160  13.1184
    13.2048  13.2932  13.4006  13.4904  13.6158

     occupation numbers 
     1.0000   1.0000   1.0000   1.0000   1.0000   1.0000   1.0000   1.0000
     1.0000   1.0000   1.0000   1.0000   1.0000   1.0000   1.0000   1.0000
     1.0000   1.0000   1.0000   1.0000   1.0000   1.0000   1.0000   1.0000
     1.0000   1.0000   1.0000   1.0000   1.0000   1.0000   1.0000   1.0000
     1.0000   1.0000   1.0000   1.0000   1.0000   1.0000   1.0000   1.0000
     1.0000   1.0000   1.0000   1.0000   1.0000   1.0000   1.0000   1.0000
     1.0000   1.0000   1.0000   1.0000   1.0000   1.0000   1.0000   1.0000
     1.0000   1.0000   1.0000   1.0000   1.0000   1.0000   1.0000   1.0000
     1.0000   1.0000   1.0000   1.0000   1.0000   1.0000   1.0000   1.0000
[...]
     atom    4 type  5   force =    -0.00000214    0.00073709    0.00000144
     atom    5 type  5   force =    -0.00000214   -0.00020539    0.00000145
     atom    6 type  5   force =    -0.00000214   -0.00055090    0.00000144
     atom    7 type  7   force =     0.00116609    0.00967000   -0.00425527
     atom    8 type  7   force =    -0.00116492    0.00967004    0.00425478
     atom    9 type  7   force =    -0.00166282    0.00234536   -0.02115394
     atom   10 type  7   force =     0.00166356    0.00234534    0.02115312
     atom   11 type  7   force =    -0.00245885   -0.01173005    0.01634127
     atom   12 type  7   force =     0.00245951   -0.01173000   -0.01634214
     atom   13 type  1   force =    -0.00138751   -0.00189218    0.00156876
     atom   14 type  1   force =     0.00138818   -0.00189216   -0.00156918
     atom   15 type  6   force =    -0.00007328   -0.00088362    0.00578867
     atom   16 type  6   force =     0.00007358   -0.00088367   -0.00578867
     atom   17 type  6   force =    -0.00003726   -0.00171385   -0.00810073
     atom   18 type  6   force =     0.00003762   -0.00171381    0.00810063
     atom   19 type  6   force =     0.00160152    0.00005116    0.00749312
     atom   20 type  6   force =    -0.00160123    0.00005116   -0.00749312
     atom   21 type  6   force =     0.00116843   -0.00007395   -0.00202303
     atom   22 type  6   force =    -0.00116817   -0.00007396    0.00202289
     atom   23 type  6   force =     0.00483712   -0.00219676   -0.00526949
     atom   24 type  6   force =    -0.00483709   -0.00219668    0.00526927
     atom   25 type  6   force =    -0.00366190    0.00018320   -0.00693062
     atom   26 type  6   force =     0.00366230    0.00018319    0.00693034
     atom   27 type  6   force =    -0.00145935    0.00212808    0.00789115
     atom   28 type  6   force =     0.00145936    0.00212823   -0.00789136
     atom   29 type  6   force =     0.00073600   -0.00176123   -0.00713640
     atom   30 type  6   force =    -0.00073599   -0.00176104    0.00713618
     atom   31 type  6   force =    -0.00216124   -0.00292679   -0.00691815
     atom   32 type  6   force =     0.00216156   -0.00292680    0.00691794
     atom   33 type  6   force =     0.00109771    0.00407974    0.00690890
     atom   34 type  6   force =    -0.00109754    0.00407983   -0.00690913
     atom   35 type  6   force =     0.00682337   -0.00866880   -0.00319346
     atom   36 type  6   force =    -0.00682305   -0.00866897    0.00319311
     atom   37 type  6   force =    -0.00028794   -0.00143931    0.01106652
     atom   38 type  6   force =     0.00028845   -0.00143929   -0.01106635
     atom   39 type  3   force =     0.00000000    0.00000000    0.00000000
     atom   40 type  3   force =     0.00000000    0.00000000    0.00000000
     atom   41 type  3   force =     0.00000000    0.00000000    0.00000000
     atom   42 type  3   force =     0.00000000    0.00000000    0.00000000
     atom   43 type  2   force =     0.00000468   -0.00990886   -0.00000485
     The Hubbard contrib.    to forces
     atom    1 type  4   force =     0.00000000    0.00000000    0.00000000
     atom    2 type  4   force =     0.00000000    0.00000000    0.00000000
     atom    3 type  5   force =     0.00000000    0.00000000    0.00000000
     atom    4 type  5   force =     0.00000000    0.00000000    0.00000000
     atom    5 type  5   force =     0.00000000    0.00000000    0.00000000
     atom    6 type  5   force =     0.00000000    0.00000000    0.00000000
     atom    7 type  7   force =     0.00000000    0.00000000    0.00000000
     atom    8 type  7   force =     0.00000000    0.00000000    0.00000000
     atom    9 type  7   force =     0.00000000    0.00000000    0.00000000
     atom   10 type  7   force =     0.00000000    0.00000000    0.00000000
     atom   11 type  7   force =     0.00000000    0.00000000    0.00000000
     atom   12 type  7   force =     0.00000000    0.00000000    0.00000000
     atom   13 type  1   force =     0.00000000    0.00000000    0.00000000
     atom   14 type  1   force =     0.00000000    0.00000000    0.00000000
     atom   15 type  6   force =     0.00000000    0.00000000    0.00000000
     atom   16 type  6   force =     0.00000000    0.00000000    0.00000000
     atom   17 type  6   force =     0.00000000    0.00000000    0.00000000
     atom   18 type  6   force =     0.00000000    0.00000000    0.00000000
     atom   19 type  6   force =     0.00000000    0.00000000    0.00000000
     atom   20 type  6   force =     0.00000000    0.00000000    0.00000000
     atom   21 type  6   force =     0.00000000    0.00000000    0.00000000
     atom   22 type  6   force =     0.00000000    0.00000000    0.00000000
     atom   23 type  6   force =     0.00000000    0.00000000    0.00000000
     atom   24 type  6   force =     0.00000000    0.00000000    0.00000000
     atom   25 type  6   force =     0.00000000    0.00000000    0.00000000
     atom   26 type  6   force =     0.00000000    0.00000000    0.00000000
     atom   27 type  6   force =     0.00000000    0.00000000    0.00000000
     atom   28 type  6   force =     0.00000000    0.00000000    0.00000000
     atom   29 type  6   force =     0.00000000    0.00000000    0.00000000
     atom   30 type  6   force =     0.00000000    0.00000000    0.00000000
     atom   31 type  6   force =     0.00000000    0.00000000    0.00000000
     atom   32 type  6   force =     0.00000000    0.00000000    0.00000000
     atom   33 type  6   force =     0.00000000    0.00000000    0.00000000
     atom   34 type  6   force =     0.00000000    0.00000000    0.00000000
     atom   35 type  6   force =     0.00000000    0.00000000    0.00000000
     atom   36 type  6   force =     0.00000000    0.00000000    0.00000000
     atom   37 type  6   force =     0.00000000    0.00000000    0.00000000
     atom   38 type  6   force =     0.00000000    0.00000000    0.00000000
     atom   39 type  3   force =     0.00000000    0.00000000    0.00000000
     atom   40 type  3   force =     0.00000000    0.00000000    0.00000000
     atom   41 type  3   force =     0.00000000    0.00000000    0.00000000
     atom   42 type  3   force =     0.00000000    0.00000000    0.00000000
     atom   43 type  2   force =     0.00000000    0.00000000    0.00000000
     The SCF correction term to forces
     atom    1 type  4   force =     0.00000000    0.00000321   -0.00000000
     atom    2 type  4   force =     0.00000000   -0.00000226   -0.00000000
     atom    3 type  5   force =    -0.00000000   -0.00001365    0.00000000
     atom    4 type  5   force =    -0.00000000    0.00001671    0.00000000
     atom    5 type  5   force =    -0.00000000    0.00000186    0.00000000
     atom    6 type  5   force =    -0.00000000   -0.00001627    0.00000000
     atom    7 type  7   force =     0.00000174   -0.00000881   -0.00001776
     atom    8 type  7   force =    -0.00000174   -0.00000881    0.00001776
     atom    9 type  7   force =    -0.00000001    0.00000394    0.00000810
     atom   10 type  7   force =     0.00000001    0.00000394   -0.00000810
     atom   11 type  7   force =     0.00000043    0.00000546   -0.00000296
     atom   12 type  7   force =    -0.00000043    0.00000546    0.00000296
     atom   13 type  1   force =     0.00000126   -0.00000202    0.00001087
     atom   14 type  1   force =    -0.00000126   -0.00000202   -0.00001087
     atom   15 type  6   force =     0.00001089   -0.00001582   -0.00003402
     atom   16 type  6   force =    -0.00001089   -0.00001582    0.00003402
     atom   17 type  6   force =    -0.00000083    0.00000066    0.00000020
     atom   18 type  6   force =     0.00000083    0.00000066   -0.00000020
     atom   19 type  6   force =     0.00000110    0.00000557    0.00000819
     atom   20 type  6   force =    -0.00000110    0.00000557   -0.00000819
     atom   21 type  6   force =     0.00000900    0.00000185    0.00002623
     atom   22 type  6   force =    -0.00000900    0.00000185   -0.00002623
     atom   23 type  6   force =     0.00000089   -0.00000789   -0.00000497
     atom   24 type  6   force =    -0.00000089   -0.00000789    0.00000497
     atom   25 type  6   force =    -0.00000040    0.00000661   -0.00001126
     atom   26 type  6   force =     0.00000040    0.00000661    0.00001126
     atom   27 type  6   force =     0.00000291    0.00001199    0.00001511
     atom   28 type  6   force =    -0.00000291    0.00001199   -0.00001511
     atom   29 type  6   force =     0.00000448    0.00000765   -0.00001266
     atom   30 type  6   force =    -0.00000448    0.00000765    0.00001266
     atom   31 type  6   force =     0.00000023   -0.00000737   -0.00000904
     atom   32 type  6   force =    -0.00000023   -0.00000737    0.00000904
     atom   33 type  6   force =     0.00000198   -0.00000870    0.00000914
     atom   34 type  6   force =    -0.00000198   -0.00000870   -0.00000914
     atom   35 type  6   force =    -0.00000435    0.00001671   -0.00000190
     atom   36 type  6   force =     0.00000435    0.00001671    0.00000190
     atom   37 type  6   force =    -0.00000537   -0.00000675   -0.00000922
     atom   38 type  6   force =     0.00000537   -0.00000675    0.00000922
     atom   39 type  3   force =    -0.00000200    0.00000505   -0.00000023
     atom   40 type  3   force =     0.00000200    0.00000505    0.00000023
     atom   41 type  3   force =    -0.00000042   -0.00000060    0.00000004
     atom   42 type  3   force =     0.00000042   -0.00000060   -0.00000004
     atom   43 type  2   force =    -0.00000000    0.00002523    0.00000000

     DFT-D3 dispersion contribution to forces:
     atom    1 type  4   force =     0.00000001    0.00042108   -0.00000000
     atom    2 type  4   force =    -0.00000000   -0.00032752    0.00000000
     atom    3 type  5   force =    -0.00000000   -0.00201076    0.00000000
     atom    4 type  5   force =     0.00000000    0.00074054   -0.00000000
     atom    5 type  5   force =     0.00000000   -0.00026595   -0.00000000
     atom    6 type  5   force =     0.00000000   -0.00082451   -0.00000000
     atom    7 type  7   force =     0.00001579    0.00013791   -0.00031323
     atom    8 type  7   force =    -0.00001578    0.00013791    0.00031323
     atom    9 type  7   force =     0.00047818   -0.00024464   -0.00066549
     atom   10 type  7   force =    -0.00047818   -0.00024464    0.00066549
     atom   11 type  7   force =     0.00063350   -0.00004018    0.00047595
     atom   12 type  7   force =    -0.00063350   -0.00004018   -0.00047595
     atom   13 type  1   force =     0.00007438   -0.00018051   -0.00068839
     atom   14 type  1   force =    -0.00007438   -0.00018051    0.00068839
     atom   15 type  6   force =     0.00009349   -0.00018338    0.00033582
     atom   16 type  6   force =    -0.00009349   -0.00018338   -0.00033582
     atom   17 type  6   force =     0.00023185    0.00016039   -0.00063378
     atom   18 type  6   force =    -0.00023185    0.00016039    0.00063379
     atom   19 type  6   force =    -0.00004640    0.00014314    0.00060439
     atom   20 type  6   force =     0.00004640    0.00014314   -0.00060439
     atom   21 type  6   force =     0.00004566   -0.00009515    0.00017841
     atom   22 type  6   force =    -0.00004566   -0.00009515   -0.00017841
     atom   23 type  6   force =    -0.00018234    0.00093000    0.00021989
     atom   24 type  6   force =     0.00018234    0.00093000   -0.00021989
     atom   25 type  6   force =     0.00089402    0.00011784    0.00015478
     atom   26 type  6   force =    -0.00089403    0.00011784   -0.00015478
     atom   27 type  6   force =     0.00033891   -0.00036169   -0.00021110
     atom   28 type  6   force =    -0.00033891   -0.00036169    0.00021110
     atom   29 type  6   force =    -0.00020947    0.00029800    0.00036226
     atom   30 type  6   force =     0.00020946    0.00029800   -0.00036226
     atom   31 type  6   force =     0.00087957   -0.00048131    0.00041661
     atom   32 type  6   force =    -0.00087958   -0.00048132   -0.00041661
     atom   33 type  6   force =     0.00063732   -0.00060747   -0.00025872
     atom   34 type  6   force =    -0.00063732   -0.00060747    0.00025872
     atom   35 type  6   force =     0.00011035    0.00036385   -0.00048664
     atom   36 type  6   force =    -0.00011035    0.00036385    0.00048664
     atom   37 type  6   force =     0.00000421    0.00014931   -0.00058443
     atom   38 type  6   force =    -0.00000421    0.00014931    0.00058443
     atom   39 type  3   force =    -0.00038961    0.00047674   -0.00003058
     atom   40 type  3   force =     0.00038961    0.00047674    0.00003058
     atom   41 type  3   force =    -0.00010774   -0.00013022   -0.00037129
     atom   42 type  3   force =     0.00010774   -0.00013022    0.00037129
     atom   43 type  2   force =    -0.00000000    0.00136188   -0.00000000

     Total force =     0.003328     Total SCF correction =     0.000104

     DFT-D3 dispersion Force =     0.004990


     Computing stress (Cartesian axis) and pressure

          total   stress  (Ry/bohr**3)                   (kbar)     P=        0.06
   0.00000135   0.00000000   0.00000068            0.20        0.00        0.10
   0.00000000  -0.00000197   0.00000000            0.00       -0.29        0.00
   0.00000068   0.00000000   0.00000193            0.10        0.00        0.28

     kinetic stress (kbar)  18497.56      0.00     -3.32
                                0.00  18415.44      0.00
                               -3.32      0.00  18382.78

     local   stress (kbar) -29419.62     -0.00    -75.24
                               -0.00 -28241.43      0.00
                              -75.24      0.00   7537.83

     nonloc. stress (kbar)   3901.74      0.00     -2.25
                                0.00   3894.77      0.00
                               -2.25      0.00   3896.51

     hartree stress (kbar)  16337.08      0.00      7.30
                                0.00  15782.34      0.00
                                7.30      0.00  -1553.49

     exc-cor stress (kbar)  -2357.25      0.00      0.44
                                0.00  -2356.36      0.00
                                0.44      0.00  -2357.28

     corecor stress (kbar)  -1983.10     -0.00     -0.17
                               -0.00  -1982.79     -0.00
                               -0.17     -0.00  -1984.14

     ewald   stress (kbar)  -4961.62      0.00     73.27
                                0.00  -5498.00     -0.00
                               73.27     -0.00 -23910.33

     hubbard stress (kbar)      0.00      0.00      0.00
                                0.00      0.00      0.00
                                0.00      0.00      0.00

     DFT-D   stress (kbar)    -14.60      0.00      0.06
                                0.00    -14.26      0.00
                                0.06      0.00    -11.59

     XDM     stress (kbar)      0.00      0.00      0.00
                                0.00      0.00      0.00
                                0.00      0.00      0.00

     dft-nl  stress (kbar)      0.00      0.00      0.00
                                0.00      0.00      0.00
                                0.00      0.00      0.00

     TS-vdW  stress (kbar)      0.00      0.00      0.00
                                0.00      0.00      0.00
                                0.00      0.00      0.00

     MDB     stress (kbar)      0.00      0.00      0.00
                                0.00      0.00      0.00
                                0.00      0.00      0.00

     3D-RISM stress (kbar)      0.00      0.00      0.00
                                0.00      0.00      0.00
                                0.00      0.00      0.00


     Writing all to output data dir ./temp/phl-ti1-ti2-v3.save/ :
     XML data file, charge density, pseudopotentials, collected wavefunctions

     init_run     :    286.94s CPU    289.07s WALL (       2 calls)
     electrons    :  30575.75s CPU  30713.04s WALL (       4 calls)
     update_pot   :      5.57s CPU      5.62s WALL (       2 calls)
     forces       :    426.31s CPU    428.11s WALL (       4 calls)
     force_dftd3  :     15.53s CPU     15.55s WALL (       4 calls)
     stress       :   1538.65s CPU   1548.74s WALL (       4 calls)
     stres_dftd3  :     15.58s CPU     15.59s WALL (       4 calls)

     Called by init_run:
     wfcinit      :    271.93s CPU    273.13s WALL (       2 calls)
     wfcinit:atom :      0.56s CPU      0.56s WALL (      80 calls)
     wfcinit:wfcr :    266.83s CPU    268.01s WALL (      80 calls)
     potinit      :      5.39s CPU      5.49s WALL (       2 calls)
     hinit0       :      2.29s CPU      2.33s WALL (       2 calls)

     Called by electrons:
     c_bands      :  28498.68s CPU  28593.01s WALL (      45 calls)
     sum_band     :   1801.79s CPU   1828.80s WALL (      45 calls)
     v_of_rho     :     18.94s CPU     19.42s WALL (      47 calls)
     v_h          :      0.59s CPU      0.63s WALL (      47 calls)
     v_xc         :     21.48s CPU     22.01s WALL (      55 calls)
     newd         :    163.56s CPU    180.33s WALL (      47 calls)
     PAW_pot      :    105.02s CPU    105.02s WALL (      49 calls)
     mix_rho      :      2.65s CPU      2.72s WALL (      45 calls)
     energy_dftd3 :     11.94s CPU     11.94s WALL (       4 calls)

     Called by c_bands:
     init_us_2    :     66.85s CPU     66.94s WALL (    4080 calls)
     cegterg      :  28366.40s CPU  28459.88s WALL (    1898 calls)

     Called by sum_band:
     sum_band:wei :      0.02s CPU      0.02s WALL (      45 calls)
     sum_band:loo :   1483.30s CPU   1492.72s WALL (      45 calls)
     sum_band:buf :      7.45s CPU      7.47s WALL (    1800 calls)
     sum_band:ini :     29.74s CPU     29.75s WALL (    1800 calls)
     sum_band:cal :   1067.44s CPU   1067.91s WALL (    1880 calls)
     sum_band:bec :      2.99s CPU      2.99s WALL (    1880 calls)
     addusdens    :    316.10s CPU    333.53s WALL (      45 calls)
                                        0.00s GPU  (      45 calls)
     addusd:skk   :      1.03s CPU      1.47s WALL (     315 calls)
                                        0.00s GPU  (     315 calls)

     Called by *egterg:
     cdiaghg      :   1095.17s CPU   1095.26s WALL (   15090 calls)
     cegterg:over :   3641.13s CPU   3643.88s WALL (   13438 calls)
     cegterg:upda :   2176.78s CPU   2179.78s WALL (   13438 calls)
     cegterg:last :   6033.47s CPU   6033.67s WALL (    6706 calls)
     h_psi        :  10633.68s CPU  10710.85s WALL (   15416 calls)
     s_psi        :   4097.54s CPU   4098.27s WALL (   15416 calls)
     g_psi        :     23.88s CPU     23.94s WALL (   13438 calls)

     Called by h_psi:
     h_psi:calbec :   4035.03s CPU   4037.87s WALL (   15416 calls)
     vloc_psi     :   2494.26s CPU   2563.37s WALL (   15416 calls)
     add_vuspsi   :   4079.58s CPU   4079.88s WALL (   15416 calls)

     General routines
     calbec       :   5563.90s CPU   5567.42s WALL (   18096 calls)
     fft          :     10.34s CPU     11.02s WALL (    1333 calls)
     ffts         :      0.40s CPU      0.40s WALL (     184 calls)
     fftw         :   2005.79s CPU   2058.54s WALL ( 2384420 calls)
     interpolate  :      1.17s CPU      1.24s WALL (      94 calls)

     Parallel routines

     PAW routines
     PAW_pot      :    105.02s CPU    105.02s WALL (      49 calls)
     PAW_symme    :      0.03s CPU      0.03s WALL (      93 calls)

     PWSCF        :      9h 8m CPU      9h10m WALL


   This run was terminated on:  13:50:42  28Mar2025            

=------------------------------------------------------------------------------=
   JOB DONE.
=------------------------------------------------------------------------------=

