
     Program PWSCF v.7.3.1 starts on 10Dec2024 at 12: 7:53 

     This program is part of the open-source Quantum ESPRESSO suite
     for quantum simulation of materials; please cite
         "P. Giannozzi et al., J. Phys.:Condens. Matter 21 395502 (2009);
         "P. Giannozzi et al., J. Phys.:Condens. Matter 29 465901 (2017);
         "P. Giannozzi et al., J. Chem. Phys. 152 154105 (2020);
          URL http://www.quantum-espresso.org", 
     in publications or presentations arising from this work. More details at
     http://www.quantum-espresso.org/quote

     Parallel version (MPI), running on    12 processors

     MPI processes distributed on     1 nodes
     11027 MiB available memory on the printing compute node when the environment starts

     Reading input from vc_relax.in

     Current dimensions of program PWSCF are:
     Max number of different atomic species (ntypx) = 10
     Max number of k-points (npk) =  40000
     Max angular momentum in pseudopotentials (lmaxx) =  4
     file Al.pbe-n-kjpaw_psl.1.0.0.UPF: wavefunction(s)  3S 3P renormalized
     file H.pbe-kjpaw_psl.1.0.0.UPF: wavefunction(s)  1S renormalized
     file K.pbe-spn-kjpaw_psl.1.0.0.UPF: wavefunction(s)  3S renormalized
     file Mg.pbe-spnl-kjpaw_psl.1.0.0.UPF: wavefunction(s)  2P renormalized
     file O.pbe-n-kjpaw_psl.1.0.0.UPF: wavefunction(s)  2S 2P renormalized
     file Si.pbe-n-kjpaw_psl.1.0.0.UPF: wavefunction(s)  3S 3P renormalized

     R & G space division:  proc/nbgrp/npool/nimage =      12
     Subspace diagonalization in iterative solution of the eigenvalue problem:
     a serial algorithm will be used


     Parallelization info
     --------------------
     sticks:   dense  smooth     PW     G-vecs:    dense   smooth      PW
     Min         507     507    135                42911    42911    5942
     Max         508     508    136                42915    42915    5947
     Sum        6087    6087   1631               514949   514949   71349

     Using Slab Decomposition



     bravais-lattice index     =          -12
     lattice parameter (alat)  =      10.0136  a.u.
     unit-cell volume          =    3303.4414 (a.u.)^3
     number of atoms/cell      =           44
     number of atomic types    =            6
     number of electrons       =       256.00
     number of Kohn-Sham states=          128
     kinetic-energy cutoff     =     110.0000  Ry
     charge density cutoff     =     440.0000  Ry
     scf convergence threshold =      1.0E-06
     mixing beta               =       0.7000
     number of iterations used =            8  plain     mixing
     energy convergence thresh.=      1.0E-04
     force convergence thresh. =      1.0E-03
     press convergence thresh. =      5.0E-01
     Exchange-correlation= SLA  PW   PBX  PBC
                           (   1   4   3   4   0   0   0)
     nstep                     =           50


     celldm(1)=  10.013640  celldm(2)=   1.735306  celldm(3)=   1.926511
     celldm(4)=   0.000000  celldm(5)=  -0.177565  celldm(6)=   0.000000

     crystal axes: (cart. coord. in units of alat)
               a(1) = (   1.000000   0.000000   0.000000 )  
               a(2) = (   0.000000   1.735306   0.000000 )  
               a(3) = (  -0.342081   0.000000   1.895896 )  

     reciprocal axes: (cart. coord. in units 2 pi/alat)
               b(1) = (  1.000000 -0.000000  0.180432 )  
               b(2) = (  0.000000  0.576267 -0.000000 )  
               b(3) = (  0.000000  0.000000  0.527455 )  


     PseudoPot. # 1 for Al read from file:
     ./../../../pseudos/Al.pbe-n-kjpaw_psl.1.0.0.UPF
     MD5 check sum: 502b6b27b9c6270cab5dd1084b96fa6d
     Pseudo is Projector augmented-wave + core cor, Zval =  3.0
     Generated using &quot;atomic&quot; code by A. Dal Corso  v.6.3
     Shape of augmentation charge: PSQ
     Using radial grid of 1135 points,  6 beta functions with: 
                l(1) =   0
                l(2) =   0
                l(3) =   1
                l(4) =   1
                l(5) =   2
                l(6) =   2
     Q(r) pseudized with 0 coefficients 


     PseudoPot. # 2 for H  read from file:
     ./../../../pseudos/H.pbe-kjpaw_psl.1.0.0.UPF
     MD5 check sum: d81a744832360e4a8af0b0b5b123bc2a
     Pseudo is Projector augmented-wave, Zval =  1.0
     Generated using &quot;atomic&quot; code by A. Dal Corso  v.6.3MaX
     Shape of augmentation charge: PSQ
     Using radial grid of  929 points,  2 beta functions with: 
                l(1) =   0
                l(2) =   0
     Q(r) pseudized with 0 coefficients 


     PseudoPot. # 3 for K  read from file:
     ./../../../pseudos/K.pbe-spn-kjpaw_psl.1.0.0.UPF
     MD5 check sum: 34cc42130a09071ebe376fd42eb21491
     Pseudo is Projector augmented-wave + core cor, Zval =  9.0
     Generated using &quot;atomic&quot; code by A. Dal Corso  v.6.2.2
     Shape of augmentation charge: PSQ
     Using radial grid of 1165 points,  6 beta functions with: 
                l(1) =   0
                l(2) =   0
                l(3) =   1
                l(4) =   1
                l(5) =   2
                l(6) =   2
     Q(r) pseudized with 0 coefficients 


     PseudoPot. # 4 for Mg read from file:
     ./../../../pseudos/Mg.pbe-spnl-kjpaw_psl.1.0.0.UPF
     MD5 check sum: fda14e0d92a6a9a5ebed782e5a4b3067
     Pseudo is Projector augmented-wave + core cor, Zval = 10.0
     Generated using &quot;atomic&quot; code by A. Dal Corso  v.6.3
     Shape of augmentation charge: PSQ
     Using radial grid of 1129 points,  4 beta functions with: 
                l(1) =   0
                l(2) =   0
                l(3) =   1
                l(4) =   1
     Q(r) pseudized with 0 coefficients 


     PseudoPot. # 5 for O  read from file:
     ./../../../pseudos/O.pbe-n-kjpaw_psl.1.0.0.UPF
     MD5 check sum: e99d9cef9b487d1ca56f5b95ecd0fd7a
     Pseudo is Projector augmented-wave + core cor, Zval =  6.0
     Generated using &quot;atomic&quot; code by A. Dal Corso  v.6.3
     Shape of augmentation charge: PSQ
     Using radial grid of 1095 points,  4 beta functions with: 
                l(1) =   0
                l(2) =   0
                l(3) =   1
                l(4) =   1
     Q(r) pseudized with 0 coefficients 


     PseudoPot. # 6 for Si read from file:
     ./../../../pseudos/Si.pbe-n-kjpaw_psl.1.0.0.UPF
     MD5 check sum: c39c59da582df4a0d9f10159256ea34e
     Pseudo is Projector augmented-wave + core cor, Zval =  4.0
     Generated using &quot;atomic&quot; code by A. Dal Corso  v.6.3
     Shape of augmentation charge: PSQ
     Using radial grid of 1141 points,  6 beta functions with: 
                l(1) =   0
                l(2) =   0
                l(3) =   1
                l(4) =   1
                l(5) =   2
                l(6) =   2
     Q(r) pseudized with 0 coefficients 


     atomic species   valence    mass     pseudopotential
     Al                3.00    26.98154     Al( 1.00)
     H                 1.00     1.00794     H ( 1.00)
     K                 9.00    39.09830     K ( 1.00)
     Mg               10.00    24.30500     Mg( 1.00)
     O                 6.00    15.99940     O ( 1.00)
     Si                4.00    28.08550     Si( 1.00)

      2 Sym. Ops. (no inversion) found


                                    s                        frac. trans.

      isym =  1     identity                                     

 cryst.   s( 1) = (     1          0          0      )
                  (     0          1          0      )
                  (     0          0          1      )

 cart.    s( 1) = (  1.0000000  0.0000000 -0.0000000 )
                  (  0.0000000  1.0000000  0.0000000 )
                  (  0.0000000  0.0000000  1.0000000 )


      isym =  2     180 deg rotation - cart. axis [0,1,0]        

 cryst.   s( 2) = (    -1          0          0      )
                  (     0          1          0      )
                  (     0          0         -1      )

 cart.    s( 2) = ( -1.0000000  0.0000000  0.0000000 )
                  (  0.0000000  1.0000000  0.0000000 )
                  (  0.0000000  0.0000000 -1.0000000 )


     point group C_2  (2)   
     there are  2 classes
     the character table:

       E     C2   
A      1.00  1.00
B      1.00 -1.00

     the symmetry operations in each class and the name of the first element:

     E        1
          identity                                               
     C2       2
          180 deg rotation - cart. axis [0,1,0]                  

   Cartesian axes

     site n.     atom                  positions (alat units)
         1        K      tau(   1) = (   0.0000000   0.8559224   0.0000000  )
         2        K      tau(   2) = (   0.5000000   0.0093568   0.0000000  )
         3        Mg     tau(   3) = (  -0.1710407   0.0067712   0.9479482  )
         4        Mg     tau(   4) = (  -0.1710407   0.5780843   0.9479482  )
         5        Mg     tau(   5) = (  -0.1710407   1.1543881   0.9479482  )
         6        Mg     tau(   6) = (   0.3289593   0.8562226   0.9479482  )
         7        Mg     tau(   7) = (   0.3289593   1.4480089   0.9479482  )
         8        Mg     tau(   8) = (   0.3289593   0.2986375   0.9479482  )
         9        Si     tau(   9) = (   0.0066674   0.2865251   0.4219393  )
        10        Si     tau(  10) = (   0.6512512   0.2865251   1.4739571  )
        11        Si     tau(  11) = (   0.6701371   1.4476688   1.4628623  )
        12        Si     tau(  12) = (  -0.0122184   1.4476688   0.4330341  )
        13        Si     tau(  13) = (   0.4872056   1.1568454   0.4292651  )
        14        Si     tau(  14) = (   0.1707131   1.1568454   1.4666313  )
        15        Al     tau(  15) = (   0.1506005   0.5746762   1.4713786  )
        16        Al     tau(  16) = (   0.5073182   0.5746762   0.4245178  )
        17        O      tau(  17) = (  -0.0043508   0.2833738   0.7297400  )
        18        O      tau(  18) = (   0.6622695   0.2833738   1.1661564  )
        19        O      tau(  19) = (   0.6658139   1.4451231   1.1576912  )
        20        O      tau(  20) = (  -0.0078952   1.4451231   0.7382052  )
        21        O      tau(  21) = (   0.4926234   1.1618863   0.7357690  )
        22        O      tau(  22) = (   0.1652953   1.1618863   1.1601274  )
        23        O      tau(  23) = (   0.1548298   0.5779784   1.1454267  )
        24        O      tau(  24) = (   0.5030889   0.5779784   0.7504697  )
        25        O      tau(  25) = (   0.2847398   0.3548857   0.3143567  )
        26        O      tau(  26) = (   0.3731789   0.3548857   1.5815397  )
        27        O      tau(  27) = (   0.9404978   1.7303189   0.3181314  )
        28        O      tau(  28) = (  -0.2825791   1.7303189   1.5777650  )
        29        O      tau(  29) = (   0.3988927   1.3439356   1.5754330  )
        30        O      tau(  30) = (   0.2590260   1.3439356   0.3204634  )
        31        O      tau(  31) = (   0.7582660   1.2710892   0.3185125  )
        32        O      tau(  32) = (  -0.1003473   1.2710892   1.5773839  )
        33        O      tau(  33) = (   0.4432368   0.8811364   0.3085875  )
        34        O      tau(  34) = (   0.2146819   0.8811364   1.5873090  )
        35        O      tau(  35) = (  -0.1423236   0.4782556   1.5925436  )
        36        O      tau(  36) = (   0.8002423   0.4782556   0.3033529  )
        37        O      tau(  37) = (  -0.0041068   0.8750247   0.7469263  )
        38        O      tau(  38) = (   0.6620255   0.8750247   1.1489701  )
        39        O      tau(  39) = (   0.4966158   1.7335917   0.7534577  )
        40        O      tau(  40) = (   0.1613029   1.7335917   1.1424387  )
        41        H      tau(  41) = (  -0.0032097   0.8603995   0.5673129  )
        42        H      tau(  42) = (   0.6611284   0.8603995   1.3285835  )
        43        H      tau(  43) = (   0.4926802   0.0219534   0.5746291  )
        44        H      tau(  44) = (   0.1652385   0.0219534   1.3212673  )

     -------------------------------------------------
     Parameters for Dispersion (Grimme-D2) Correction:
     -------------------------------------------------
       atom      VdW radius       C_6     

        Al         3.097        374.319
        H          1.892          4.857
        K          2.806        374.666
        Mg         2.578        198.087
        O          2.536         24.284
        Si         3.243        320.200

   Crystallographic axes

     site n.     atom                  positions (cryst. coord.)
         1        K      tau(   1) = (  0.0000000  0.4932400  0.0000000  )
         2        K      tau(   2) = (  0.5000000  0.0053920  0.0000000  )
         3        Mg     tau(   3) = (  0.0000000  0.0039020  0.5000000  )
         4        Mg     tau(   4) = (  0.0000000  0.3331310  0.5000000  )
         5        Mg     tau(   5) = (  0.0000000  0.6652360  0.5000000  )
         6        Mg     tau(   6) = (  0.5000000  0.4934130  0.5000000  )
         7        Mg     tau(   7) = (  0.5000000  0.8344400  0.5000000  )
         8        Mg     tau(   8) = (  0.5000000  0.1720950  0.5000000  )
         9        Si     tau(   9) = (  0.0827990  0.1651150  0.2225540  )
        10        Si     tau(  10) = (  0.9172010  0.1651150  0.7774460  )
        11        Si     tau(  11) = (  0.9340850  0.8342440  0.7715940  )
        12        Si     tau(  12) = (  0.0659150  0.8342440  0.2284060  )
        13        Si     tau(  13) = (  0.5646590  0.6666520  0.2264180  )
        14        Si     tau(  14) = (  0.4353410  0.6666520  0.7735820  )
        15        Al     tau(  15) = (  0.4160850  0.3311670  0.7760860  )
        16        Al     tau(  16) = (  0.5839150  0.3311670  0.2239140  )
        17        O      tau(  17) = (  0.1273180  0.1632990  0.3849050  )
        18        O      tau(  18) = (  0.8726820  0.1632990  0.6150950  )
        19        O      tau(  19) = (  0.8746990  0.8327770  0.6106300  )
        20        O      tau(  20) = (  0.1253010  0.8327770  0.3893700  )
        21        O      tau(  21) = (  0.6253800  0.6695570  0.3880850  )
        22        O      tau(  22) = (  0.3746200  0.6695570  0.6119150  )
        23        O      tau(  23) = (  0.3615020  0.3330700  0.6041610  )
        24        O      tau(  24) = (  0.6384980  0.3330700  0.3958390  )
        25        O      tau(  25) = (  0.3414600  0.2045090  0.1658090  )
        26        O      tau(  26) = (  0.6585400  0.2045090  0.8341910  )
        27        O      tau(  27) = (  0.9978990  0.9971260  0.1678000  )
        28        O      tau(  28) = (  0.0021010  0.9971260  0.8322000  )
        29        O      tau(  29) = (  0.6831520  0.7744660  0.8309700  )
        30        O      tau(  30) = (  0.3168480  0.7744660  0.1690300  )
        31        O      tau(  31) = (  0.8157360  0.7324870  0.1680010  )
        32        O      tau(  32) = (  0.1842640  0.7324870  0.8319990  )
        33        O      tau(  33) = (  0.4989160  0.5077700  0.1627660  )
        34        O      tau(  34) = (  0.5010840  0.5077700  0.8372340  )
        35        O      tau(  35) = (  0.1450230  0.2756030  0.8399950  )
        36        O      tau(  36) = (  0.8549770  0.2756030  0.1600050  )
        37        O      tau(  37) = (  0.1306630  0.5042480  0.3939700  )
        38        O      tau(  38) = (  0.8693370  0.5042480  0.6060300  )
        39        O      tau(  39) = (  0.6325640  0.9990120  0.3974150  )
        40        O      tau(  40) = (  0.3674360  0.9990120  0.6025850  )
        41        H      tau(  41) = (  0.0991520  0.4958200  0.2992320  )
        42        H      tau(  42) = (  0.9008480  0.4958200  0.7007680  )
        43        H      tau(  43) = (  0.5963620  0.0126510  0.3030910  )
        44        H      tau(  44) = (  0.4036380  0.0126510  0.6969090  )

     number of k points=     4
                       cart. coord. in units 2pi/alat
        k(    1) = (   0.0000000   0.0000000   0.0000000), wk =   0.5000000
        k(    2) = (   0.0000000  -0.2881336   0.0000000), wk =   0.5000000
        k(    3) = (  -0.5000000   0.0000000  -0.0902162), wk =   0.5000000
        k(    4) = (  -0.5000000  -0.2881336  -0.0902162), wk =   0.5000000

                       cryst. coord.
        k(    1) = (   0.0000000   0.0000000   0.0000000), wk =   0.5000000
        k(    2) = (   0.0000000  -0.5000000   0.0000000), wk =   0.5000000
        k(    3) = (  -0.5000000   0.0000000   0.0000000), wk =   0.5000000
        k(    4) = (  -0.5000000  -0.5000000   0.0000000), wk =   0.5000000

     Dense  grid:   514949 G-vectors     FFT dimensions: (  72, 120, 135)

     Dynamical RAM for                 wfc:      10.47 MB

     Dynamical RAM for     wfc (w. buffer):      52.37 MB

     Dynamical RAM for           str. fact:       3.93 MB

     Dynamical RAM for           local pot:       0.00 MB

     Dynamical RAM for          nlocal pot:      35.02 MB

     Dynamical RAM for                qrad:      20.20 MB

     Dynamical RAM for          rho,v,vnew:       4.34 MB

     Dynamical RAM for               rhoin:       1.45 MB

     Dynamical RAM for            rho*nmix:      10.48 MB

     Dynamical RAM for           G-vectors:       2.78 MB

     Dynamical RAM for          h,s,v(r/c):       3.00 MB

     Dynamical RAM for          <psi|beta>:       0.84 MB

     Dynamical RAM for                 psi:      20.95 MB

     Dynamical RAM for                hpsi:      20.95 MB

     Dynamical RAM for                spsi:      20.95 MB

     Dynamical RAM for      wfcinit/wfcrot:      29.86 MB

     Dynamical RAM for           addusdens:     137.51 MB

     Dynamical RAM for          addusforce:     168.05 MB

     Dynamical RAM for         addusstress:     131.62 MB

     Estimated static dynamical RAM per process >     128.63 MB

     Estimated max dynamical RAM per process >     307.16 MB

     Estimated total dynamical RAM >       3.60 GB

     Check: negative core charge=   -0.000007

     Initial potential from superposition of free atoms

     starting charge     255.9488, renormalised to     256.0000
     Starting wfcs are  178 randomized atomic wfcs
     Checking if some PAW data can be deallocated... 
       PAW data deallocated on   11 nodes for type:  1
       PAW data deallocated on   10 nodes for type:  2
       PAW data deallocated on   11 nodes for type:  3
       PAW data deallocated on   10 nodes for type:  4
       PAW data deallocated on    5 nodes for type:  5
       PAW data deallocated on   10 nodes for type:  6

     total cpu time spent up to now is       41.9 secs

     Self-consistent Calculation

     iteration #  1     ecut=   110.00 Ry     beta= 0.70
     Davidson diagonalization with overlap

---- Real-time Memory Report at c_bands before calling an iterative solver
           250 MiB given to the printing process from OS
             0 MiB allocation reported by mallinfo(arena+hblkhd)
          8933 MiB available memory on the node where the printing process lives
------------------
     ethr =  1.00E-02,  avg # of iterations =  2.0

     total cpu time spent up to now is      132.4 secs

     total energy              =   -2436.57339668 Ry
     estimated scf accuracy    <      12.49045548 Ry

     iteration #  2     ecut=   110.00 Ry     beta= 0.70
     Davidson diagonalization with overlap

---- Real-time Memory Report at c_bands before calling an iterative solver
           341 MiB given to the printing process from OS
             0 MiB allocation reported by mallinfo(arena+hblkhd)
          7256 MiB available memory on the node where the printing process lives
------------------
     ethr =  4.88E-03,  avg # of iterations =  5.5

     total cpu time spent up to now is      297.0 secs

     total energy              =   -2442.12377180 Ry
     estimated scf accuracy    <      10.72822441 Ry

     iteration #  3     ecut=   110.00 Ry     beta= 0.70
     Davidson diagonalization with overlap

---- Real-time Memory Report at c_bands before calling an iterative solver
           343 MiB given to the printing process from OS
             0 MiB allocation reported by mallinfo(arena+hblkhd)
          7443 MiB available memory on the node where the printing process lives
------------------
     ethr =  4.19E-03,  avg # of iterations =  2.0

     total cpu time spent up to now is      376.8 secs

     total energy              =   -2441.29171167 Ry
     estimated scf accuracy    <       2.43607255 Ry

     iteration #  4     ecut=   110.00 Ry     beta= 0.70
     Davidson diagonalization with overlap

---- Real-time Memory Report at c_bands before calling an iterative solver
           345 MiB given to the printing process from OS
             0 MiB allocation reported by mallinfo(arena+hblkhd)
          7239 MiB available memory on the node where the printing process lives
------------------
     ethr =  9.52E-04,  avg # of iterations =  7.0

     total cpu time spent up to now is      566.7 secs

     total energy              =   -2444.11203212 Ry
     estimated scf accuracy    <       2.62382236 Ry

     iteration #  5     ecut=   110.00 Ry     beta= 0.70
     Davidson diagonalization with overlap

---- Real-time Memory Report at c_bands before calling an iterative solver
           346 MiB given to the printing process from OS
             0 MiB allocation reported by mallinfo(arena+hblkhd)
          7218 MiB available memory on the node where the printing process lives
------------------
     ethr =  9.52E-04,  avg # of iterations =  1.0

     total cpu time spent up to now is      634.6 secs

     total energy              =   -2443.39017048 Ry
     estimated scf accuracy    <       1.62643457 Ry

     iteration #  6     ecut=   110.00 Ry     beta= 0.70
     Davidson diagonalization with overlap

---- Real-time Memory Report at c_bands before calling an iterative solver
           347 MiB given to the printing process from OS
             0 MiB allocation reported by mallinfo(arena+hblkhd)
          7247 MiB available memory on the node where the printing process lives
------------------
     ethr =  6.35E-04,  avg # of iterations =  5.0

     total cpu time spent up to now is      732.3 secs

     total energy              =   -2443.68061184 Ry
     estimated scf accuracy    <       0.17027513 Ry

     iteration #  7     ecut=   110.00 Ry     beta= 0.70
     Davidson diagonalization with overlap

---- Real-time Memory Report at c_bands before calling an iterative solver
           349 MiB given to the printing process from OS
             0 MiB allocation reported by mallinfo(arena+hblkhd)
          7351 MiB available memory on the node where the printing process lives
------------------
     ethr =  6.65E-05,  avg # of iterations =  6.8

     total cpu time spent up to now is      901.6 secs

     total energy              =   -2443.86677330 Ry
     estimated scf accuracy    <       0.03371039 Ry

     iteration #  8     ecut=   110.00 Ry     beta= 0.70
     Davidson diagonalization with overlap

---- Real-time Memory Report at c_bands before calling an iterative solver
           350 MiB given to the printing process from OS
             0 MiB allocation reported by mallinfo(arena+hblkhd)
          7228 MiB available memory on the node where the printing process lives
------------------
     ethr =  1.32E-05,  avg # of iterations =  5.8

     total cpu time spent up to now is     1011.8 secs

     total energy              =   -2443.87260588 Ry
     estimated scf accuracy    <       0.01043553 Ry

     iteration #  9     ecut=   110.00 Ry     beta= 0.70
     Davidson diagonalization with overlap

---- Real-time Memory Report at c_bands before calling an iterative solver
           352 MiB given to the printing process from OS
             0 MiB allocation reported by mallinfo(arena+hblkhd)
          7198 MiB available memory on the node where the printing process lives
------------------
     ethr =  4.08E-06,  avg # of iterations =  6.2

     total cpu time spent up to now is     1149.2 secs

     total energy              =   -2443.87658227 Ry
     estimated scf accuracy    <       0.00460885 Ry

     iteration # 10     ecut=   110.00 Ry     beta= 0.70
     Davidson diagonalization with overlap

---- Real-time Memory Report at c_bands before calling an iterative solver
           353 MiB given to the printing process from OS
             0 MiB allocation reported by mallinfo(arena+hblkhd)
          7314 MiB available memory on the node where the printing process lives
------------------
     ethr =  1.80E-06,  avg # of iterations =  6.2

     total cpu time spent up to now is     1282.0 secs

     total energy              =   -2443.87867693 Ry
     estimated scf accuracy    <       0.00319926 Ry

     iteration # 11     ecut=   110.00 Ry     beta= 0.70
     Davidson diagonalization with overlap

---- Real-time Memory Report at c_bands before calling an iterative solver
           353 MiB given to the printing process from OS
             0 MiB allocation reported by mallinfo(arena+hblkhd)
          7341 MiB available memory on the node where the printing process lives
------------------
     ethr =  1.25E-06,  avg # of iterations =  4.8

     total cpu time spent up to now is     1391.2 secs

     total energy              =   -2443.87942037 Ry
     estimated scf accuracy    <       0.00605157 Ry

     iteration # 12     ecut=   110.00 Ry     beta= 0.70
     Davidson diagonalization with overlap

---- Real-time Memory Report at c_bands before calling an iterative solver
           353 MiB given to the printing process from OS
             0 MiB allocation reported by mallinfo(arena+hblkhd)
          7333 MiB available memory on the node where the printing process lives
------------------
     ethr =  1.25E-06,  avg # of iterations =  2.0

     total cpu time spent up to now is     1470.2 secs

     total energy              =   -2443.87741549 Ry
     estimated scf accuracy    <       0.00576149 Ry

     iteration # 13     ecut=   110.00 Ry     beta= 0.70
     Davidson diagonalization with overlap

---- Real-time Memory Report at c_bands before calling an iterative solver
           353 MiB given to the printing process from OS
             0 MiB allocation reported by mallinfo(arena+hblkhd)
          7299 MiB available memory on the node where the printing process lives
------------------
     ethr =  1.25E-06,  avg # of iterations =  2.0

     total cpu time spent up to now is     1560.9 secs

     total energy              =   -2443.87793079 Ry
     estimated scf accuracy    <       0.00194675 Ry

     iteration # 14     ecut=   110.00 Ry     beta= 0.70
     Davidson diagonalization with overlap

---- Real-time Memory Report at c_bands before calling an iterative solver
           353 MiB given to the printing process from OS
             0 MiB allocation reported by mallinfo(arena+hblkhd)
          7367 MiB available memory on the node where the printing process lives
------------------
     ethr =  7.60E-07,  avg # of iterations =  2.0

     total cpu time spent up to now is     1639.1 secs

     total energy              =   -2443.87763076 Ry
     estimated scf accuracy    <       0.00177163 Ry

     iteration # 15     ecut=   110.00 Ry     beta= 0.70
     Davidson diagonalization with overlap

---- Real-time Memory Report at c_bands before calling an iterative solver
           353 MiB given to the printing process from OS
             0 MiB allocation reported by mallinfo(arena+hblkhd)
          7317 MiB available memory on the node where the printing process lives
------------------
     ethr =  6.92E-07,  avg # of iterations =  2.0

     total cpu time spent up to now is     1726.8 secs

     total energy              =   -2443.87757762 Ry
     estimated scf accuracy    <       0.00059435 Ry

     iteration # 16     ecut=   110.00 Ry     beta= 0.70
     Davidson diagonalization with overlap

---- Real-time Memory Report at c_bands before calling an iterative solver
           353 MiB given to the printing process from OS
             0 MiB allocation reported by mallinfo(arena+hblkhd)
          7199 MiB available memory on the node where the printing process lives
------------------
     ethr =  2.32E-07,  avg # of iterations =  7.0

     total cpu time spent up to now is     1877.4 secs

     total energy              =   -2443.87796179 Ry
     estimated scf accuracy    <       0.00012400 Ry

     iteration # 17     ecut=   110.00 Ry     beta= 0.70
     Davidson diagonalization with overlap

---- Real-time Memory Report at c_bands before calling an iterative solver
           353 MiB given to the printing process from OS
             0 MiB allocation reported by mallinfo(arena+hblkhd)
          7247 MiB available memory on the node where the printing process lives
------------------
     ethr =  4.84E-08,  avg # of iterations =  7.8

     total cpu time spent up to now is     1994.1 secs

     total energy              =   -2443.87797920 Ry
     estimated scf accuracy    <       0.00011890 Ry

     iteration # 18     ecut=   110.00 Ry     beta= 0.70
     Davidson diagonalization with overlap

---- Real-time Memory Report at c_bands before calling an iterative solver
           353 MiB given to the printing process from OS
             0 MiB allocation reported by mallinfo(arena+hblkhd)
          7318 MiB available memory on the node where the printing process lives
------------------
     ethr =  4.64E-08,  avg # of iterations =  1.8

     total cpu time spent up to now is     2069.7 secs

     total energy              =   -2443.87794791 Ry
     estimated scf accuracy    <       0.00006005 Ry

     iteration # 19     ecut=   110.00 Ry     beta= 0.70
     Davidson diagonalization with overlap

---- Real-time Memory Report at c_bands before calling an iterative solver
           353 MiB given to the printing process from OS
             0 MiB allocation reported by mallinfo(arena+hblkhd)
          7222 MiB available memory on the node where the printing process lives
------------------
     ethr =  2.35E-08,  avg # of iterations =  6.8

     total cpu time spent up to now is     2219.8 secs

     total energy              =   -2443.87799095 Ry
     estimated scf accuracy    <       0.00002728 Ry

     iteration # 20     ecut=   110.00 Ry     beta= 0.70
     Davidson diagonalization with overlap

---- Real-time Memory Report at c_bands before calling an iterative solver
           353 MiB given to the printing process from OS
             0 MiB allocation reported by mallinfo(arena+hblkhd)
          7188 MiB available memory on the node where the printing process lives
------------------
     ethr =  1.07E-08,  avg # of iterations =  3.5

     total cpu time spent up to now is     2309.8 secs

     total energy              =   -2443.87798970 Ry
     estimated scf accuracy    <       0.00002850 Ry

     iteration # 21     ecut=   110.00 Ry     beta= 0.70
     Davidson diagonalization with overlap

---- Real-time Memory Report at c_bands before calling an iterative solver
           353 MiB given to the printing process from OS
             0 MiB allocation reported by mallinfo(arena+hblkhd)
          7116 MiB available memory on the node where the printing process lives
------------------
     ethr =  1.07E-08,  avg # of iterations =  2.0

     total cpu time spent up to now is     2387.2 secs

     total energy              =   -2443.87797907 Ry
     estimated scf accuracy    <       0.00002243 Ry

     iteration # 22     ecut=   110.00 Ry     beta= 0.70
     Davidson diagonalization with overlap

---- Real-time Memory Report at c_bands before calling an iterative solver
           353 MiB given to the printing process from OS
             0 MiB allocation reported by mallinfo(arena+hblkhd)
          7260 MiB available memory on the node where the printing process lives
------------------
     ethr =  8.76E-09,  avg # of iterations =  5.5

     total cpu time spent up to now is     2506.8 secs

     total energy              =   -2443.87798497 Ry
     estimated scf accuracy    <       0.00000124 Ry

     iteration # 23     ecut=   110.00 Ry     beta= 0.70
     Davidson diagonalization with overlap

---- Real-time Memory Report at c_bands before calling an iterative solver
           353 MiB given to the printing process from OS
             0 MiB allocation reported by mallinfo(arena+hblkhd)
          7105 MiB available memory on the node where the printing process lives
------------------
     ethr =  4.85E-10,  avg # of iterations = 10.8

     total cpu time spent up to now is     2760.2 secs

     End of self-consistent calculation

          k = 0.0000 0.0000 0.0000 ( 64373 PWs)   bands (ev):

   -67.6913 -67.6884 -67.5776 -67.2079 -67.1145 -67.1078 -34.4807 -34.4618
   -34.4573 -34.4510 -34.4422 -34.4397 -34.3530 -34.3502 -34.3245 -33.9784
   -33.9726 -33.9705 -33.9006 -33.9000 -33.8860 -33.8678 -33.8601 -33.8407
   -23.2058 -23.1860 -15.2364 -15.1836 -14.2926 -14.2480 -13.7792 -13.7558
   -13.5384 -13.4307 -13.3923 -13.2156 -13.0198 -12.9755 -12.9696 -12.9596
   -12.8804 -12.7719 -12.6074 -12.5323 -12.4275 -12.3996 -12.3318 -12.1952
   -11.1717 -10.9271  -6.7763  -6.7497  -6.6981  -6.6908  -6.6624  -6.6580
    -4.4394  -4.3811  -2.5676  -2.4719  -1.9361  -1.4517  -1.2972  -1.2921
    -1.2431  -1.1591  -0.7782  -0.7039  -0.5868  -0.4967  -0.4963  -0.2891
    -0.0987  -0.0033   0.1213   0.3637   0.4439   0.4705   0.5691   0.7471
     0.7776   1.0199   1.2024   1.2185   1.2842   1.4064   1.4299   1.5316
     1.7513   1.7545   1.8708   1.9566   1.9600   2.1138   2.1396   2.2015
     2.3160   2.3662   2.5061   2.5185   2.5957   2.6343   2.7413   2.7810
     2.7968   2.8899   2.9098   2.9950   3.1177   3.1806   3.2199   3.2937
     3.3388   3.3869   3.4703   3.4854   3.5427   3.6536   3.7196   3.7268
     3.7869   3.8302   3.8346   4.0188   4.0486   4.2180   4.3831   4.5015

     occupation numbers 
     1.0000   1.0000   1.0000   1.0000   1.0000   1.0000   1.0000   1.0000
     1.0000   1.0000   1.0000   1.0000   1.0000   1.0000   1.0000   1.0000
     1.0000   1.0000   1.0000   1.0000   1.0000   1.0000   1.0000   1.0000
     1.0000   1.0000   1.0000   1.0000   1.0000   1.0000   1.0000   1.0000
     1.0000   1.0000   1.0000   1.0000   1.0000   1.0000   1.0000   1.0000
     1.0000   1.0000   1.0000   1.0000   1.0000   1.0000   1.0000   1.0000
     1.0000   1.0000   1.0000   1.0000   1.0000   1.0000   1.0000   1.0000
     1.0000   1.0000   1.0000   1.0000   1.0000   1.0000   1.0000   1.0000
     1.0000   1.0000   1.0000   1.0000   1.0000   1.0000   1.0000   1.0000
     1.0000   1.0000   1.0000   1.0000   1.0000   1.0000   1.0000   1.0000
     1.0000   1.0000   1.0000   1.0000   1.0000   1.0000   1.0000   1.0000
     1.0000   1.0000   1.0000   1.0000   1.0000   1.0000   1.0000   1.0000
     1.0000   1.0000   1.0000   1.0000   1.0000   1.0000   1.0000   1.0000
     1.0000   1.0000   1.0000   1.0000   1.0000   1.0000   1.0000   1.0000
     1.0000   1.0000   1.0000   1.0000   1.0000   1.0000   1.0000   1.0000
     1.0000   1.0000   1.0000   1.0000   1.0000   1.0000   1.0000   1.0000

          k = 0.0000-0.2881 0.0000 ( 64374 PWs)   bands (ev):

   -67.6913 -67.6884 -67.5776 -67.2079 -67.1145 -67.1078 -34.4807 -34.4618
   -34.4574 -34.4510 -34.4422 -34.4397 -34.3529 -34.3502 -34.3245 -33.9784
   -33.9726 -33.9705 -33.9006 -33.9000 -33.8860 -33.8678 -33.8601 -33.8407
   -23.2058 -23.1860 -15.2298 -15.1770 -14.3364 -14.2878 -13.7793 -13.7559
   -13.4189 -13.3674 -13.2681 -13.2405 -13.1314 -13.0743 -13.0131 -12.9495
   -12.8867 -12.7683 -12.5950 -12.5271 -12.4270 -12.3994 -12.3245 -12.1908
   -11.1700 -10.9263  -6.7710  -6.7553  -6.6975  -6.6880  -6.6646  -6.6591
    -4.3856  -4.3263  -2.7596  -2.6547  -1.8713  -1.5086  -1.2323  -1.2213
    -1.0506  -1.0422  -0.9063  -0.8031  -0.5976  -0.4036  -0.3955  -0.2567
    -0.2256   0.0448   0.0969   0.3147   0.3879   0.4520   0.5786   0.7479
     0.7943   1.0227   1.0708   1.2208   1.2709   1.4182   1.4609   1.5803
     1.8041   1.8360   1.8474   1.9443   2.0689   2.1078   2.1857   2.2976
     2.3030   2.3570   2.4316   2.5450   2.5944   2.6656   2.7452   2.7785
     2.8281   2.8816   2.9797   2.9954   3.1789   3.2344   3.2667   3.2742
     3.3154   3.3870   3.3952   3.4404   3.4767   3.6084   3.6925   3.7190
     3.7907   3.8121   3.8349   3.9903   4.0727   4.1166   4.1792   4.4977

     occupation numbers 
     1.0000   1.0000   1.0000   1.0000   1.0000   1.0000   1.0000   1.0000
     1.0000   1.0000   1.0000   1.0000   1.0000   1.0000   1.0000   1.0000
     1.0000   1.0000   1.0000   1.0000   1.0000   1.0000   1.0000   1.0000
     1.0000   1.0000   1.0000   1.0000   1.0000   1.0000   1.0000   1.0000
     1.0000   1.0000   1.0000   1.0000   1.0000   1.0000   1.0000   1.0000
     1.0000   1.0000   1.0000   1.0000   1.0000   1.0000   1.0000   1.0000
     1.0000   1.0000   1.0000   1.0000   1.0000   1.0000   1.0000   1.0000
     1.0000   1.0000   1.0000   1.0000   1.0000   1.0000   1.0000   1.0000
     1.0000   1.0000   1.0000   1.0000   1.0000   1.0000   1.0000   1.0000
     1.0000   1.0000   1.0000   1.0000   1.0000   1.0000   1.0000   1.0000
     1.0000   1.0000   1.0000   1.0000   1.0000   1.0000   1.0000   1.0000
     1.0000   1.0000   1.0000   1.0000   1.0000   1.0000   1.0000   1.0000
     1.0000   1.0000   1.0000   1.0000   1.0000   1.0000   1.0000   1.0000
     1.0000   1.0000   1.0000   1.0000   1.0000   1.0000   1.0000   1.0000
     1.0000   1.0000   1.0000   1.0000   1.0000   1.0000   1.0000   1.0000
     1.0000   1.0000   1.0000   1.0000   1.0000   1.0000   1.0000   1.0000

          k =-0.5000 0.0000-0.0902 ( 64306 PWs)   bands (ev):

   -67.6909 -67.6888 -67.5776 -67.2079 -67.1144 -67.1080 -34.4770 -34.4691
   -34.4540 -34.4497 -34.4421 -34.4405 -34.3527 -34.3505 -34.3246 -33.9776
   -33.9735 -33.9704 -33.9045 -33.8922 -33.8891 -33.8641 -33.8630 -33.8425
   -23.2052 -23.1854 -14.8658 -14.8234 -14.5928 -14.5540 -14.0318 -13.9961
   -13.2880 -13.2209 -13.1638 -13.1393 -13.0771 -13.0635 -13.0305 -12.9841
   -12.8979 -12.7837 -12.7148 -12.6678 -12.5811 -12.4848 -12.2848 -12.1745
   -11.1599 -10.9473  -6.7756  -6.7673  -6.6919  -6.6842  -6.6631  -6.6446
    -3.4977  -3.4267  -2.9663  -2.8921  -1.8795  -1.7848  -1.3919  -1.3690
    -1.0586  -0.9245  -0.8629  -0.7839  -0.4580  -0.3585  -0.3366  -0.2633
    -0.1028  -0.1011   0.2640   0.2822   0.3355   0.4711   0.5359   0.5370
     0.8679   0.9646   1.0812   1.1135   1.3139   1.3425   1.3560   1.3941
     1.5737   1.6010   1.7076   1.7605   1.9951   2.1306   2.2414   2.2651
     2.2821   2.4641   2.4880   2.5826   2.6592   2.6732   2.8129   2.8421
     2.9148   2.9150   2.9874   2.9973   3.0415   3.0534   3.1641   3.2126
     3.2536   3.2781   3.4015   3.4025   3.4643   3.5243   3.5743   3.6704
     3.6756   3.7346   3.8826   3.9335   3.9402   4.2539   4.2814   4.3283

     occupation numbers 
     1.0000   1.0000   1.0000   1.0000   1.0000   1.0000   1.0000   1.0000
     1.0000   1.0000   1.0000   1.0000   1.0000   1.0000   1.0000   1.0000
     1.0000   1.0000   1.0000   1.0000   1.0000   1.0000   1.0000   1.0000
     1.0000   1.0000   1.0000   1.0000   1.0000   1.0000   1.0000   1.0000
     1.0000   1.0000   1.0000   1.0000   1.0000   1.0000   1.0000   1.0000
     1.0000   1.0000   1.0000   1.0000   1.0000   1.0000   1.0000   1.0000
     1.0000   1.0000   1.0000   1.0000   1.0000   1.0000   1.0000   1.0000
     1.0000   1.0000   1.0000   1.0000   1.0000   1.0000   1.0000   1.0000
     1.0000   1.0000   1.0000   1.0000   1.0000   1.0000   1.0000   1.0000
     1.0000   1.0000   1.0000   1.0000   1.0000   1.0000   1.0000   1.0000
     1.0000   1.0000   1.0000   1.0000   1.0000   1.0000   1.0000   1.0000
     1.0000   1.0000   1.0000   1.0000   1.0000   1.0000   1.0000   1.0000
     1.0000   1.0000   1.0000   1.0000   1.0000   1.0000   1.0000   1.0000
     1.0000   1.0000   1.0000   1.0000   1.0000   1.0000   1.0000   1.0000
     1.0000   1.0000   1.0000   1.0000   1.0000   1.0000   1.0000   1.0000
     1.0000   1.0000   1.0000   1.0000   1.0000   1.0000   1.0000   1.0000

          k =-0.5000-0.2881-0.0902 ( 64388 PWs)   bands (ev):

   -67.6909 -67.6888 -67.5776 -67.2079 -67.1144 -67.1080 -34.4770 -34.4691
   -34.4541 -34.4498 -34.4421 -34.4405 -34.3526 -34.3505 -34.3246 -33.9776
   -33.9734 -33.9704 -33.9045 -33.8922 -33.8891 -33.8641 -33.8631 -33.8425
   -23.2052 -23.1854 -14.8647 -14.8216 -14.5923 -14.5534 -14.0367 -14.0029
   -13.2830 -13.2235 -13.1619 -13.1336 -13.0714 -13.0694 -13.0606 -12.9530
   -12.8882 -12.7935 -12.7113 -12.6594 -12.5894 -12.4917 -12.2836 -12.1746
   -11.1595 -10.9475  -6.7760  -6.7689  -6.6923  -6.6838  -6.6619  -6.6446
    -3.5145  -3.4384  -2.9858  -2.9101  -1.8455  -1.7515  -1.3776  -1.3573
    -1.0689  -0.9491  -0.7671  -0.7133  -0.4368  -0.3592  -0.3503  -0.2612
    -0.1389  -0.1165   0.2095   0.2896   0.4260   0.4476   0.4582   0.5093
     0.7935   0.8414   1.1841   1.1906   1.2852   1.2873   1.4582   1.4640
     1.5213   1.5817   1.6200   1.7107   2.0391   2.0649   2.2319   2.2625
     2.3298   2.4155   2.5018   2.5890   2.6903   2.7422   2.7612   2.8231
     2.8878   2.9180   2.9992   3.0377   3.1100   3.1645   3.1652   3.2168
     3.2431   3.3223   3.3744   3.3751   3.4640   3.4923   3.5661   3.5891
     3.7612   3.8103   3.8150   3.9336   3.9547   4.2214   4.2439   4.2904

     occupation numbers 
     1.0000   1.0000   1.0000   1.0000   1.0000   1.0000   1.0000   1.0000
     1.0000   1.0000   1.0000   1.0000   1.0000   1.0000   1.0000   1.0000
     1.0000   1.0000   1.0000   1.0000   1.0000   1.0000   1.0000   1.0000
     1.0000   1.0000   1.0000   1.0000   1.0000   1.0000   1.0000   1.0000
     1.0000   1.0000   1.0000   1.0000   1.0000   1.0000   1.0000   1.0000
     1.0000   1.0000   1.0000   1.0000   1.0000   1.0000   1.0000   1.0000
     1.0000   1.0000   1.0000   1.0000   1.0000   1.0000   1.0000   1.0000
     1.0000   1.0000   1.0000   1.0000   1.0000   1.0000   1.0000   1.0000
     1.0000   1.0000   1.0000   1.0000   1.0000   1.0000   1.0000   1.0000
     1.0000   1.0000   1.0000   1.0000   1.0000   1.0000   1.0000   1.0000
     1.0000   1.0000   1.0000   1.0000   1.0000   1.0000   1.0000   1.0000
     1.0000   1.0000   1.0000   1.0000   1.0000   1.0000   1.0000   1.0000
     1.0000   1.0000   1.0000   1.0000   1.0000   1.0000   1.0000   1.0000
     1.0000   1.0000   1.0000   1.0000   1.0000   1.0000   1.0000   1.0000
     1.0000   1.0000   1.0000   1.0000   1.0000   1.0000   1.0000   1.0000
     1.0000   1.0000   1.0000   1.0000   1.0000   1.0000   1.0000   1.0000

     highest occupied level (ev):     4.5015

!    total energy              =   -2443.87798692 Ry
     total all-electron energy =    -12886.663118 Ry
     estimated scf accuracy    <       0.00000018 Ry

     The total energy is the sum of the following terms:
     one-electron contribution =   -1332.88624453 Ry
     hartree contribution      =     784.12061230 Ry
     xc contribution           =    -357.28070943 Ry
     ewald contribution        =    -824.02688207 Ry
     Dispersion Correction     =      -0.55825322 Ry
     one-center paw contrib.   =    -713.24650997 Ry
      -> PAW hartree energy AE =     249.88452764 Ry
      -> PAW hartree energy PS =    -248.67445405 Ry
      -> PAW xc energy AE      =    -196.49232620 Ry
      -> PAW xc energy PS      =      54.54029042 Ry
      -> total E_H with PAW    =     785.33068589 Ry
      -> total E_XC with PAW   =    -499.23274521 Ry

     convergence has been achieved in  23 iterations

     Forces acting on atoms (cartesian axes, Ry/au):

     atom    1 type  3   force =     0.00000000    0.00135167    0.00000000
     atom    2 type  3   force =     0.00000000   -0.00163836    0.00000000
     atom    3 type  4   force =     0.00000000    0.00067758    0.00000000
     atom    4 type  4   force =     0.00000000   -0.00017998    0.00000000
     atom    5 type  4   force =     0.00000000   -0.00028654    0.00000000
     atom    6 type  4   force =     0.00000000   -0.00131256    0.00000000
     atom    7 type  4   force =     0.00000000    0.00025862    0.00000000
     atom    8 type  4   force =     0.00000000    0.00127832    0.00000000
     atom    9 type  6   force =    -0.00018301   -0.00140917    0.00860395
     atom   10 type  6   force =     0.00018301   -0.00140917   -0.00860395
     atom   11 type  6   force =    -0.00020423   -0.00125003   -0.00631348
     atom   12 type  6   force =     0.00020423   -0.00125003    0.00631348
     atom   13 type  6   force =     0.00036180    0.00159665    0.00686680
     atom   14 type  6   force =    -0.00036180    0.00159665   -0.00686680
     atom   15 type  1   force =    -0.00010949    0.00058106   -0.00978828
     atom   16 type  1   force =     0.00010949    0.00058106    0.00978828
     atom   17 type  5   force =     0.00005980   -0.00006650    0.00113335
     atom   18 type  5   force =    -0.00005980   -0.00006650   -0.00113335
     atom   19 type  5   force =    -0.00029593    0.00037753   -0.00201593
     atom   20 type  5   force =     0.00029593    0.00037753    0.00201593
     atom   21 type  5   force =     0.00035466   -0.00040859    0.00189509
     atom   22 type  5   force =    -0.00035466   -0.00040859   -0.00189509
     atom   23 type  5   force =    -0.00035124   -0.00010388   -0.00425142
     atom   24 type  5   force =     0.00035124   -0.00010388    0.00425142
     atom   25 type  5   force =     0.00060636   -0.00414902   -0.00634348
     atom   26 type  5   force =    -0.00060636   -0.00414902    0.00634348
     atom   27 type  5   force =    -0.00256420    0.00139557   -0.00473886
     atom   28 type  5   force =     0.00256420    0.00139557    0.00473886
     atom   29 type  5   force =    -0.00114207    0.00257357    0.00444225
     atom   30 type  5   force =     0.00114207    0.00257357   -0.00444225
     atom   31 type  5   force =     0.00002987   -0.00237525   -0.00440035
     atom   32 type  5   force =    -0.00002987   -0.00237525    0.00440035
     atom   33 type  5   force =    -0.00287641    0.00036574   -0.00712268
     atom   34 type  5   force =     0.00287641    0.00036574    0.00712268
     atom   35 type  5   force =    -0.00242017    0.00205126    0.00742266
     atom   36 type  5   force =     0.00242017    0.00205126   -0.00742266
     atom   37 type  5   force =    -0.00031220    0.00187728    0.01809436
     atom   38 type  5   force =     0.00031220    0.00187728   -0.01809436
     atom   39 type  5   force =     0.00033074   -0.00250828    0.01698938
     atom   40 type  5   force =    -0.00033074   -0.00250828   -0.01698938
     atom   41 type  2   force =     0.00017342   -0.00235027   -0.01898177
     atom   42 type  2   force =    -0.00017342   -0.00235027    0.01898177
     atom   43 type  2   force =    -0.00039076    0.00372795   -0.01818119
     atom   44 type  2   force =     0.00039076    0.00372795    0.01818119
     The non-local contrib.  to forces
     atom    1 type  3   force =     0.00000000    0.02901359    0.00000000
     atom    2 type  3   force =     0.00000000   -0.03140607    0.00000000
     atom    3 type  4   force =     0.00000000   -0.07491602    0.00000000
     atom    4 type  4   force =     0.00000000   -0.08120359    0.00000000
     atom    5 type  4   force =     0.00000000    0.12283925    0.00000000
     atom    6 type  4   force =     0.00000000    0.26802415    0.00000000
     atom    7 type  4   force =     0.00000000   -0.09132126    0.00000000
     atom    8 type  4   force =     0.00000000   -0.13875887    0.00000000
     atom    9 type  6   force =    -0.01848192   -0.08381696   -0.05038949
     atom   10 type  6   force =     0.01848192   -0.08381696    0.05038949
     atom   11 type  6   force =    -0.00338266   -0.02683111    0.11052711
     atom   12 type  6   force =     0.00338266   -0.02683111   -0.11052711
     atom   13 type  6   force =     0.01343736    0.09444593   -0.08828046
     atom   14 type  6   force =    -0.01343736    0.09444593    0.08828046
     atom   15 type  1   force =     0.00565031    0.01799863    0.08419275
     atom   16 type  1   force =    -0.00565031    0.01799863   -0.08419275
     atom   17 type  5   force =     0.02402988   -0.02677049   -0.91726431
     atom   18 type  5   force =    -0.02402988   -0.02677049    0.91726431
     atom   19 type  5   force =     0.01433547   -0.00285971    0.99392487
     atom   20 type  5   force =    -0.01433547   -0.00285971   -0.99392487
     atom   21 type  5   force =    -0.01065827    0.02469537   -0.96976896
     atom   22 type  5   force =     0.01065827    0.02469537    0.96976896
     atom   23 type  5   force =    -0.01029893   -0.00710458    0.43858266
     atom   24 type  5   force =     0.01029893   -0.00710458   -0.43858266
     atom   25 type  5   force =    -0.66373961    0.23490236    0.79445048
     atom   26 type  5   force =     0.66373961    0.23490236   -0.79445048
     atom   27 type  5   force =     0.47607886   -0.13065274    0.97252255
     atom   28 type  5   force =    -0.47607886   -0.13065274   -0.97252255
     atom   29 type  5   force =     0.23755930   -0.32699406   -0.99057050
     atom   30 type  5   force =    -0.23755930   -0.32699406    0.99057050
     atom   31 type  5   force =    -0.12663725    0.31548275    1.01566058
     atom   32 type  5   force =     0.12663725    0.31548275   -1.01566058
     atom   33 type  5   force =     0.34981913    0.52198298    0.89131883
     atom   34 type  5   force =    -0.34981913    0.52198298   -0.89131883
     atom   35 type  5   force =    -0.17332417   -0.59749856   -0.88424511
     atom   36 type  5   force =     0.17332417   -0.59749856    0.88424511
     atom   37 type  5   force =    -0.00273122   -0.07564772   -1.37473788
     atom   38 type  5   force =     0.00273122   -0.07564772    1.37473788
     atom   39 type  5   force =    -0.00696259    0.17385535   -1.35184877
     atom   40 type  5   force =     0.00696259    0.17385535    1.35184877
     atom   41 type  2   force =    -0.00067182    0.00972014    0.11102332
     atom   42 type  2   force =     0.00067182    0.00972014   -0.11102332
     atom   43 type  2   force =     0.00271739   -0.01527737    0.11025054
     atom   44 type  2   force =    -0.00271739   -0.01527737   -0.11025054
     The ionic contribution  to forces
     atom    1 type  3   force =    -0.00000045    0.30855259   -0.00000006
     atom    2 type  3   force =     0.00000016   -0.34664394   -0.00000024
     atom    3 type  4   force =    -0.00000167    0.14436481    0.00000086
     atom    4 type  4   force =    -0.00000065    0.41471265    0.00000033
     atom    5 type  4   force =    -0.00000018   -0.73231363   -0.00000031
     atom    6 type  4   force =     0.00000058    0.76106013    0.00000037
     atom    7 type  4   force =     0.00000077   -0.35080339   -0.00000029
     atom    8 type  4   force =     0.00000083   -0.16348396   -0.00000132
     atom    9 type  6   force =    -0.03727065    0.49177783   -7.50538088
     atom   10 type  6   force =     0.03727281    0.49177797    7.50538161
     atom   11 type  6   force =    -0.03652902   -0.33964449    7.82591382
     atom   12 type  6   force =     0.03652891   -0.33964398   -7.82591367
     atom   13 type  6   force =     0.02499011   -0.41716640   -7.75012298
     atom   14 type  6   force =    -0.02498952   -0.41716669    7.75012366
     atom   15 type  1   force =     0.04485873    0.30932651    5.94208114
     atom   16 type  1   force =    -0.04485858    0.30932601   -5.94208113
     atom   17 type  5   force =    -0.08083113    0.77908235  -10.38257845
     atom   18 type  5   force =     0.08083238    0.77908205   10.38257732
     atom   19 type  5   force =    -0.03005478   -0.20450215    9.76338939
     atom   20 type  5   force =     0.03005467   -0.20450221   -9.76338973
     atom   21 type  5   force =    -0.08004509   -0.82403086   -9.91391207
     atom   22 type  5   force =     0.08004531   -0.82403086    9.91391134
     atom   23 type  5   force =    -0.09639529    0.28548210   12.58118176
     atom   24 type  5   force =     0.09639517    0.28548172  -12.58118201
     atom   25 type  5   force =     2.66485613    0.51087871  -11.63452521
     atom   26 type  5   force =    -2.66485913    0.51087918   11.63452754
     atom   27 type  5   force =    -1.55063577    0.36760562  -12.63157841
     atom   28 type  5   force =     1.55063680    0.36760468   12.63157883
     atom   29 type  5   force =    -0.71301478    0.63904762   12.93083395
     atom   30 type  5   force =     0.71301446    0.63904797  -12.93083379
     atom   31 type  5   force =     0.48240566   -1.58579994  -12.96754960
     atom   32 type  5   force =    -0.48240522   -1.58579987   12.96754967
     atom   33 type  5   force =    -0.97186004   -2.63324490  -11.97266463
     atom   34 type  5   force =     0.97185984   -2.63324396   11.97266446
     atom   35 type  5   force =     1.27195504    2.73832819   11.63508048
     atom   36 type  5   force =    -1.27195492    2.73832847  -11.63508074
     atom   37 type  5   force =     0.03835051   -0.27157094  -12.29478866
     atom   38 type  5   force =    -0.03835161   -0.27157091   12.29478854
     atom   39 type  5   force =    -0.08043600    0.05160406  -11.76628809
     atom   40 type  5   force =     0.08043589    0.05160427   11.76628952
     atom   41 type  2   force =     0.01232786   -0.30690023   -5.54579156
     atom   42 type  2   force =    -0.01232778   -0.30690018    5.54579158
     atom   43 type  2   force =    -0.04301647    0.39200427   -5.46079293
     atom   44 type  2   force =     0.04301613    0.39200372    5.46079060
     The local contribution  to forces
     atom    1 type  3   force =    -0.00000000   -0.33718889   -0.00000000
     atom    2 type  3   force =     0.00000000    0.37677869   -0.00000000
     atom    3 type  4   force =     0.00000000   -0.06954139   -0.00000000
     atom    4 type  4   force =     0.00000000   -0.33461460   -0.00000000
     atom    5 type  4   force =     0.00000000    0.61095228   -0.00000000
     atom    6 type  4   force =     0.00000000   -1.02961940   -0.00000000
     atom    7 type  4   force =     0.00000000    0.44090141   -0.00000000
     atom    8 type  4   force =     0.00000000    0.30398615   -0.00000000
     atom    9 type  6   force =     0.05323080   -0.41988425    7.55735671
     atom   10 type  6   force =    -0.05323101   -0.41988413   -7.55735570
     atom   11 type  6   force =     0.03928430    0.36130651   -7.92848438
     atom   12 type  6   force =    -0.03928430    0.36130651    7.92848438
     atom   13 type  6   force =    -0.03626223    0.33618036    7.83339500
     atom   14 type  6   force =     0.03626220    0.33618047   -7.83339551
     atom   15 type  1   force =    -0.04985010   -0.32398308   -6.02269273
     atom   16 type  1   force =     0.04985010   -0.32398308    6.02269273
     atom   17 type  5   force =     0.05718501   -0.75269370   11.29391294
     atom   18 type  5   force =    -0.05716965   -0.75269359  -11.29393421
     atom   19 type  5   force =     0.01540459    0.20789161  -10.75188948
     atom   20 type  5   force =    -0.01540459    0.20789161   10.75188948
     atom   21 type  5   force =     0.09108366    0.79908505   10.87820716
     atom   22 type  5   force =    -0.09108366    0.79908505  -10.87820716
     atom   23 type  5   force =     0.10642825   -0.27833573  -13.02187298
     atom   24 type  5   force =    -0.10642825   -0.27833573   13.02187298
     atom   25 type  5   force =    -2.00564065   -0.75012657   10.83793191
     atom   26 type  5   force =     2.00563723   -0.75012645  -10.83791025
     atom   27 type  5   force =     1.07528156   -0.23649554   11.66092593
     atom   28 type  5   force =    -1.07528385   -0.23649562  -11.66091491
     atom   29 type  5   force =     0.47620544   -0.31227468  -11.94322135
     atom   30 type  5   force =    -0.47620544   -0.31227468   11.94322135
     atom   31 type  5   force =    -0.35701475    1.27076447   11.95532762
     atom   32 type  5   force =     0.35701475    1.27076447  -11.95532762
     atom   33 type  5   force =     0.62087604    2.11674275   11.07969107
     atom   34 type  5   force =    -0.62086143    2.11674260  -11.07970210
     atom   35 type  5   force =    -1.10391137   -2.14262101  -10.74853529
     atom   36 type  5   force =     1.10390562   -2.14262129   10.74853530
     atom   37 type  5   force =    -0.03600982    0.34844138   13.67878201
     atom   38 type  5   force =     0.03600418    0.34844143  -13.67878202
     atom   39 type  5   force =     0.08750624   -0.22676671   13.12673628
     atom   40 type  5   force =    -0.08751013   -0.22676692  -13.12671276
     atom   41 type  2   force =    -0.01146376    0.29498071    5.41501643
     atom   42 type  2   force =     0.01146280    0.29498070   -5.41501644
     atom   43 type  2   force =     0.03969146   -0.37298391    5.33151940
     atom   44 type  2   force =    -0.03969146   -0.37298391   -5.33151940
     The core correction contribution to forces
     atom    1 type  3   force =    -0.00000000   -0.00148402   -0.00000000
     atom    2 type  3   force =    -0.00000000    0.00160517   -0.00000000
     atom    3 type  4   force =     0.00000000    0.00023384   -0.00000000
     atom    4 type  4   force =    -0.00000000    0.00025861    0.00000000
     atom    5 type  4   force =    -0.00000000   -0.00039810    0.00000000
     atom    6 type  4   force =    -0.00000000   -0.00086204    0.00000000
     atom    7 type  4   force =    -0.00000000    0.00029893   -0.00000000
     atom    8 type  4   force =    -0.00000000    0.00044926    0.00000000
     atom    9 type  6   force =     0.00248124    0.01096081    0.00577726
     atom   10 type  6   force =    -0.00248128    0.01096082   -0.00577717
     atom   11 type  6   force =     0.00048077    0.00365302   -0.01340914
     atom   12 type  6   force =    -0.00048077    0.00365302    0.01340914
     atom   13 type  6   force =    -0.00174478   -0.01232358    0.01059135
     atom   14 type  6   force =     0.00174478   -0.01232357   -0.01059139
     atom   15 type  1   force =    -0.00072032   -0.00242288   -0.01014643
     atom   16 type  1   force =     0.00072032   -0.00242288    0.01014643
     atom   17 type  5   force =    -0.00012859    0.00018773    0.00639100
     atom   18 type  5   force =     0.00012857    0.00018773   -0.00639100
     atom   19 type  5   force =    -0.00010117    0.00002660   -0.00689247
     atom   20 type  5   force =     0.00010117    0.00002660    0.00689247
     atom   21 type  5   force =     0.00007073   -0.00017970    0.00674367
     atom   22 type  5   force =    -0.00007073   -0.00017970   -0.00674367
     atom   23 type  5   force =     0.00007651    0.00005458   -0.00306467
     atom   24 type  5   force =    -0.00007651    0.00005458    0.00306467
     atom   25 type  5   force =     0.00457938   -0.00169071   -0.00549696
     atom   26 type  5   force =    -0.00457938   -0.00169071    0.00549694
     atom   27 type  5   force =    -0.00345084    0.00080255   -0.00690750
     atom   28 type  5   force =     0.00345084    0.00080255    0.00690749
     atom   29 type  5   force =    -0.00166508    0.00241068    0.00707858
     atom   30 type  5   force =     0.00166508    0.00241068   -0.00707858
     atom   31 type  5   force =     0.00096835   -0.00228661   -0.00726825
     atom   32 type  5   force =    -0.00096835   -0.00228661    0.00726825
     atom   33 type  5   force =    -0.00244592   -0.00352567   -0.00617305
     atom   34 type  5   force =     0.00244590   -0.00352567    0.00617307
     atom   35 type  5   force =     0.00113412    0.00413820    0.00611094
     atom   36 type  5   force =    -0.00113411    0.00413821   -0.00611094
     atom   37 type  5   force =     0.00003357    0.00051370    0.01108755
     atom   38 type  5   force =    -0.00003356    0.00051370   -0.01108755
     atom   39 type  5   force =     0.00002480   -0.00127268    0.01087496
     atom   40 type  5   force =    -0.00002479   -0.00127267   -0.01087493
     atom   41 type  2   force =     0.00000000    0.00000000    0.00000000
     atom   42 type  2   force =     0.00000000    0.00000000    0.00000000
     atom   43 type  2   force =     0.00000000    0.00000000    0.00000000
     atom   44 type  2   force =     0.00000000    0.00000000    0.00000000
     The Hubbard contrib.    to forces
     atom    1 type  3   force =     0.00000000    0.00000000    0.00000000
     atom    2 type  3   force =     0.00000000    0.00000000    0.00000000
     atom    3 type  4   force =     0.00000000    0.00000000    0.00000000
     atom    4 type  4   force =     0.00000000    0.00000000    0.00000000
     atom    5 type  4   force =     0.00000000    0.00000000    0.00000000
     atom    6 type  4   force =     0.00000000    0.00000000    0.00000000
     atom    7 type  4   force =     0.00000000    0.00000000    0.00000000
     atom    8 type  4   force =     0.00000000    0.00000000    0.00000000
     atom    9 type  6   force =     0.00000000    0.00000000    0.00000000
     atom   10 type  6   force =     0.00000000    0.00000000    0.00000000
     atom   11 type  6   force =     0.00000000    0.00000000    0.00000000
     atom   12 type  6   force =     0.00000000    0.00000000    0.00000000
     atom   13 type  6   force =     0.00000000    0.00000000    0.00000000
     atom   14 type  6   force =     0.00000000    0.00000000    0.00000000
     atom   15 type  1   force =     0.00000000    0.00000000    0.00000000
     atom   16 type  1   force =     0.00000000    0.00000000    0.00000000
     atom   17 type  5   force =     0.00000000    0.00000000    0.00000000
     atom   18 type  5   force =     0.00000000    0.00000000    0.00000000
     atom   19 type  5   force =     0.00000000    0.00000000    0.00000000
     atom   20 type  5   force =     0.00000000    0.00000000    0.00000000
     atom   21 type  5   force =     0.00000000    0.00000000    0.00000000
     atom   22 type  5   force =     0.00000000    0.00000000    0.00000000
     atom   23 type  5   force =     0.00000000    0.00000000    0.00000000
     atom   24 type  5   force =     0.00000000    0.00000000    0.00000000
     atom   25 type  5   force =     0.00000000    0.00000000    0.00000000
     atom   26 type  5   force =     0.00000000    0.00000000    0.00000000
     atom   27 type  5   force =     0.00000000    0.00000000    0.00000000
     atom   28 type  5   force =     0.00000000    0.00000000    0.00000000
     atom   29 type  5   force =     0.00000000    0.00000000    0.00000000
     atom   30 type  5   force =     0.00000000    0.00000000    0.00000000
     atom   31 type  5   force =     0.00000000    0.00000000    0.00000000
     atom   32 type  5   force =     0.00000000    0.00000000    0.00000000
     atom   33 type  5   force =     0.00000000    0.00000000    0.00000000
     atom   34 type  5   force =     0.00000000    0.00000000    0.00000000
     atom   35 type  5   force =     0.00000000    0.00000000    0.00000000
     atom   36 type  5   force =     0.00000000    0.00000000    0.00000000
     atom   37 type  5   force =     0.00000000    0.00000000    0.00000000
     atom   38 type  5   force =     0.00000000    0.00000000    0.00000000
     atom   39 type  5   force =     0.00000000    0.00000000    0.00000000
     atom   40 type  5   force =     0.00000000    0.00000000    0.00000000
     atom   41 type  2   force =     0.00000000    0.00000000    0.00000000
     atom   42 type  2   force =     0.00000000    0.00000000    0.00000000
     atom   43 type  2   force =     0.00000000    0.00000000    0.00000000
     atom   44 type  2   force =     0.00000000    0.00000000    0.00000000
     The SCF correction term to forces
     atom    1 type  3   force =    -0.00000000   -0.00007529   -0.00000000
     atom    2 type  3   force =     0.00000000    0.00008432   -0.00000000
     atom    3 type  4   force =    -0.00000000    0.00002405    0.00000000
     atom    4 type  4   force =    -0.00000000    0.00001349    0.00000000
     atom    5 type  4   force =    -0.00000000   -0.00000590   -0.00000000
     atom    6 type  4   force =     0.00000000    0.00018586    0.00000000
     atom    7 type  4   force =     0.00000000   -0.00010806   -0.00000000
     atom    8 type  4   force =     0.00000000   -0.00005548   -0.00000000
     atom    9 type  6   force =     0.00000809    0.00001888   -0.00006050
     atom   10 type  6   force =    -0.00000809    0.00001888    0.00006050
     atom   11 type  6   force =    -0.00000737   -0.00000066    0.00003812
     atom   12 type  6   force =     0.00000737   -0.00000066   -0.00003812
     atom   13 type  6   force =    -0.00000830   -0.00000152   -0.00003267
     atom   14 type  6   force =     0.00000830   -0.00000152    0.00003267
     atom   15 type  1   force =    -0.00000041   -0.00001548    0.00005926
     atom   16 type  1   force =     0.00000041   -0.00001548   -0.00005926
     atom   17 type  5   force =    -0.00000993    0.00001854    0.00020674
     atom   18 type  5   force =     0.00000993    0.00001854   -0.00020674
     atom   19 type  5   force =     0.00000536   -0.00003829   -0.00020409
     atom   20 type  5   force =    -0.00000536   -0.00003829    0.00020409
     atom   21 type  5   force =    -0.00001149   -0.00001048    0.00022368
     atom   22 type  5   force =     0.00001149   -0.00001048   -0.00022368
     atom   23 type  5   force =    -0.00001059    0.00000915   -0.00006552
     atom   24 type  5   force =     0.00001059    0.00000915    0.00006552
     atom   25 type  5   force =     0.00017872    0.00007865   -0.00015089
     atom   26 type  5   force =    -0.00017872    0.00007865    0.00015089
     atom   27 type  5   force =    -0.00004720   -0.00000026   -0.00016184
     atom   28 type  5   force =     0.00004720   -0.00000026    0.00016184
     atom   29 type  5   force =    -0.00003708    0.00000294    0.00013210
     atom   30 type  5   force =     0.00003708    0.00000294   -0.00013210
     atom   31 type  5   force =    -0.00001077   -0.00003128   -0.00014321
     atom   32 type  5   force =     0.00001077   -0.00003128    0.00014321
     atom   33 type  5   force =    -0.00001325   -0.00011150   -0.00013655
     atom   34 type  5   force =     0.00001325   -0.00011150    0.00013655
     atom   35 type  5   force =     0.00014814    0.00010708    0.00016370
     atom   36 type  5   force =    -0.00014814    0.00010708   -0.00016370
     atom   37 type  5   force =     0.00000551    0.00001638    0.00011025
     atom   38 type  5   force =    -0.00000551    0.00001638   -0.00011025
     atom   39 type  5   force =     0.00000284    0.00001157    0.00003293
     atom   40 type  5   force =    -0.00000284    0.00001157   -0.00003293
     atom   41 type  2   force =    -0.00000022   -0.00000035    0.00001640
     atom   42 type  2   force =     0.00000022   -0.00000035   -0.00001640
     atom   43 type  2   force =     0.00000059    0.00000148    0.00002009
     atom   44 type  2   force =    -0.00000059    0.00000148   -0.00002009

     Dispersion contribution to forces:
     atom    1 type  3   force =    -0.00000000    0.00253387   -0.00000000
     atom    2 type  3   force =    -0.00000000   -0.00205635   -0.00000000
     atom    3 type  4   force =    -0.00000000    0.00051245    0.00000000
     atom    4 type  4   force =    -0.00000000    0.00065364    0.00000000
     atom    5 type  4   force =    -0.00000000   -0.00136026   -0.00000000
     atom    6 type  4   force =     0.00000000   -0.00010109   -0.00000000
     atom    7 type  4   force =     0.00000000    0.00129116   -0.00000000
     atom    8 type  4   force =     0.00000000   -0.00085861    0.00000000
     atom    9 type  6   force =    -0.00014962   -0.00046544    0.00130176
     atom   10 type  6   force =     0.00014962   -0.00046544   -0.00130176
     atom   11 type  6   force =    -0.00005030    0.00026662   -0.00089893
     atom   12 type  6   force =     0.00005030    0.00026662    0.00089893
     atom   13 type  6   force =    -0.00005008    0.00046211    0.00131663
     atom   14 type  6   force =     0.00005008    0.00046211   -0.00131663
     atom   15 type  1   force =    -0.00004763   -0.00032223   -0.00328227
     atom   16 type  1   force =     0.00004763   -0.00032223    0.00328227
     atom   17 type  5   force =    -0.00017714    0.00010933    0.00045423
     atom   18 type  5   force =     0.00017714    0.00010933   -0.00045423
     atom   19 type  5   force =     0.00011455   -0.00014034   -0.00034432
     atom   20 type  5   force =    -0.00011455   -0.00014034    0.00034432
     atom   21 type  5   force =    -0.00008477    0.00003220    0.00040125
     atom   22 type  5   force =     0.00008477    0.00003220   -0.00040125
     atom   23 type  5   force =    -0.00015125   -0.00020904    0.00098721
     atom   24 type  5   force =     0.00015125   -0.00020904   -0.00098721
     atom   25 type  5   force =     0.00036918    0.00180841    0.00145918
     atom   26 type  5   force =    -0.00036918    0.00180841   -0.00145918
     atom   27 type  5   force =     0.00020856    0.00013663    0.00046613
     atom   28 type  5   force =    -0.00020856    0.00013663   -0.00046613
     atom   29 type  5   force =    -0.00019001    0.00038106    0.00018955
     atom   30 type  5   force =     0.00019001    0.00038106   -0.00018955
     atom   31 type  5   force =     0.00031885   -0.00050450   -0.00042745
     atom   32 type  5   force =    -0.00031885   -0.00050450    0.00042745
     atom   33 type  5   force =     0.00075483   -0.00147815    0.00083606
     atom   34 type  5   force =    -0.00075483   -0.00147815   -0.00083606
     atom   35 type  5   force =     0.00157525   -0.00040247   -0.00115218
     atom   36 type  5   force =    -0.00157525   -0.00040247    0.00115218
     atom   37 type  5   force =     0.00003588    0.00012460   -0.00235897
     atom   38 type  5   force =    -0.00003588    0.00012460    0.00235897
     atom   39 type  5   force =     0.00019346    0.00006030   -0.00250545
     atom   40 type  5   force =    -0.00019345    0.00006030    0.00250545
     atom   41 type  2   force =    -0.00001908   -0.00015040    0.00075364
     atom   42 type  2   force =     0.00001909   -0.00015040   -0.00075364
     atom   43 type  2   force =     0.00021609   -0.00001609    0.00082054
     atom   44 type  2   force =    -0.00021609   -0.00001609   -0.00082054

     Total force =     0.061608     Total SCF correction =     0.000915

     Total Dispersion Force =     0.010224


     Computing stress (Cartesian axis) and pressure

          total   stress  (Ry/bohr**3)                   (kbar)     P=       10.58
   0.00006497   0.00000000  -0.00000066            9.56        0.00       -0.10
   0.00000000   0.00006898   0.00000000            0.00       10.15        0.00
  -0.00000066   0.00000000   0.00008184           -0.10        0.00       12.04

     kinetic stress (kbar)  19388.42      0.00     -4.95
                                0.00  19383.28      0.00
                               -4.95      0.00  19073.48

     local   stress (kbar) -34781.01      0.00    -29.62
                                0.00 -34531.55      0.00
                              -29.62      0.00  12043.12

     nonloc. stress (kbar)   5147.12      0.00     -0.41
                                0.00   5146.89      0.00
                               -0.41      0.00   5135.95

     hartree stress (kbar)  19316.00     -0.00     10.43
                               -0.00  19207.08     -0.00
                               10.43     -0.00  -3605.52

     exc-cor stress (kbar)  -2822.03     -0.00      0.04
                               -0.00  -2822.06      0.00
                                0.04      0.00  -2818.92

     corecor stress (kbar)  -1879.23      0.00      0.11
                                0.00  -1879.23     -0.00
                                0.11     -0.00  -1880.54

     ewald   stress (kbar)  -4327.76     -0.00     24.15
                               -0.00  -4462.29     -0.00
                               24.15     -0.00 -27904.57

     hubbard stress (kbar)      0.00      0.00      0.00
                                0.00      0.00      0.00
                                0.00      0.00      0.00

     DFT-D   stress (kbar)    -31.96      0.00      0.17
                                0.00    -31.96     -0.00
                                0.17     -0.00    -30.96

     XDM     stress (kbar)      0.00      0.00      0.00
                                0.00      0.00      0.00
                                0.00      0.00      0.00

     dft-nl  stress (kbar)      0.00      0.00      0.00
                                0.00      0.00      0.00
                                0.00      0.00      0.00

     TS-vdW  stress (kbar)      0.00      0.00      0.00
                                0.00      0.00      0.00
                                0.00      0.00      0.00

     MDB     stress (kbar)      0.00      0.00      0.00
                                0.00      0.00      0.00
                                0.00      0.00      0.00

     3D-RISM stress (kbar)      0.00      0.00      0.00
                                0.00      0.00      0.00
                                0.00      0.00      0.00


     BFGS Geometry Optimization
     Energy error            =      0.0E+00 Ry
     Gradient error          =      1.9E-02 Ry/Bohr
     Cell gradient error     =      1.2E+01 kbar

     number of scf cycles    =   1
     number of bfgs steps    =   0

     enthalpy           new  =   -2443.8779869155 Ry

     new trust radius        =       0.0235211461 bohr
ibrav =    -12
 celldm(1) =     10.02990394
 celldm(2) =      1.73548012
 celldm(3) =      1.92730758
 celldm(5) =     -0.17752430
Input lattice vectors:
     1.00162419     0.00000000    -0.00001654
     0.00000000     1.73829888     0.00000000
    -0.34266827     0.00000000     1.89978129
New lattice vectors in INITIAL alat:
     1.00162420     0.00000000     0.00000000
     0.00000000     1.73829888     0.00000000
    -0.34269963     0.00000000     1.89977564
New lattice vectors in NEW alat (for information only):
     1.00000000     0.00000000     0.00000000
     0.00000000     1.73548012     0.00000000
    -0.34214392     0.00000000     1.89669503
Discrepancy in bohr =     0.000017    0.000000    0.000032
     new conv_thr            =       0.0000010000 Ry

     new unit-cell volume =   3321.29515 a.u.^3 (   492.16516 Ang^3 )
     density =      2.81563 g/cm^3

CELL_PARAMETERS (alat= 10.01363984)
   1.001624195   0.000000000   0.000000000
   0.000000000   1.738298879   0.000000000
  -0.342699633   0.000000000   1.899775635

ATOMIC_POSITIONS (crystal)
K                0.0000000000        0.4933177852        0.0000000000
K                0.5000000000        0.0052977152        0.0000000000
Mg               0.0000000000        0.0039409938        0.5000000000
Mg               0.0000000000        0.3331206276        0.5000000000
Mg               0.0000000000        0.6652195061        0.5000000000
Mg               0.5000000000        0.4933374654        0.5000000000
Mg               0.5000000000        0.8344548762        0.5000000000
Mg               0.5000000000        0.1721685660        0.5000000000
Si               0.0829357585        0.1650339036        0.2230071993
Si               0.9170642275        0.1650339036        0.7769928307
Si               0.9339508557        0.8341720761        0.7712614340
Si               0.0660491443        0.8341720761        0.2287385660
Si               0.5648188602        0.6667439081        0.2267797027
Si               0.4351811398        0.6667439081        0.7732202823
Al               0.4158976988        0.3312004509        0.7755703883
Al               0.5841023012        0.3312004509        0.2244296117
O                0.1273443884        0.1632951668        0.3849647077
O                0.8726555816        0.1632951668        0.6150353213
O                0.8746331199        0.8327987493        0.6105237894
O                0.1253668801        0.8327987493        0.3894762106
O                0.6254495447        0.6695334616        0.3881848294
O                0.3745504553        0.6695334616        0.6118151706
O                0.3613903106        0.3330640319        0.6039370864
O                0.6386096894        0.3330640319        0.3960629136
O                0.3414062427        0.2042702365        0.1654748709
O                0.6585937573        0.2042702365        0.8345250991
O                0.9975575373        0.9972062958        0.1675503809
O                0.0024424627        0.9972062958        0.8324496041
O                0.6831180125        0.7746140826        0.8312039785
O                0.3168819875        0.7746140826        0.1687960215
O                0.8156596909        0.7323503315        0.1677692136
O                0.1843403091        0.7323503315        0.8322307864
O                0.4985004096        0.5077910499        0.1623908174
O                0.5014995604        0.5077910499        0.8376091976
O                0.1449150617        0.2757210426        0.8403860056
O                0.8550849533        0.2757210426        0.1596139944
O                0.1309578520        0.5043560569        0.3949231091
O                0.8690421630        0.5043560569        0.6050768909
O                0.6329031630        0.9988676460        0.3983099044
O                0.3670968370        0.9988676460        0.6016900656
H                0.0988272907        0.4956847319        0.2982321667
H                0.9011727393        0.4956847319        0.7017678333
H                0.5959953709        0.0128655366        0.3021333204
H                0.4040046291        0.0128655366        0.6978666796



     Writing config-only to output data dir ./temp/phl-fe0.save/ :
     XML data file
     NEW-OLD atomic charge density approx. for the potential

     Check: negative core charge=   -0.000007

     total cpu time spent up to now is     2878.7 secs

     Self-consistent Calculation

     iteration #  1     ecut=   110.00 Ry     beta= 0.70
     Davidson diagonalization with overlap

---- Real-time Memory Report at c_bands before calling an iterative solver
           365 MiB given to the printing process from OS
             0 MiB allocation reported by mallinfo(arena+hblkhd)
          7911 MiB available memory on the node where the printing process lives
------------------
     ethr =  1.00E-06,  avg # of iterations = 12.0

     total cpu time spent up to now is     3209.7 secs

     total energy              =   -2443.87811311 Ry
     estimated scf accuracy    <       0.00161917 Ry

     iteration #  2     ecut=   110.00 Ry     beta= 0.70
     Davidson diagonalization with overlap

---- Real-time Memory Report at c_bands before calling an iterative solver
           365 MiB given to the printing process from OS
             0 MiB allocation reported by mallinfo(arena+hblkhd)
          7262 MiB available memory on the node where the printing process lives
------------------
     ethr =  6.32E-07,  avg # of iterations =  4.0

     total cpu time spent up to now is     3328.9 secs

     total energy              =   -2443.87849806 Ry
     estimated scf accuracy    <       0.00061106 Ry

     iteration #  3     ecut=   110.00 Ry     beta= 0.70
     Davidson diagonalization with overlap

---- Real-time Memory Report at c_bands before calling an iterative solver
           365 MiB given to the printing process from OS
             0 MiB allocation reported by mallinfo(arena+hblkhd)
[...]
     atom    7 type  4   force =    -0.00000000    0.00029402   -0.00000000
     atom    8 type  4   force =    -0.00000000    0.00043593    0.00000000
     atom    9 type  6   force =     0.00264637    0.01060261    0.00648262
     atom   10 type  6   force =    -0.00264641    0.01060262   -0.00648254
     atom   11 type  6   force =     0.00043353    0.00358204   -0.01385162
     atom   12 type  6   force =    -0.00043353    0.00358204    0.01385162
     atom   13 type  6   force =    -0.00182075   -0.01201492    0.01100905
     atom   14 type  6   force =     0.00182076   -0.01201492   -0.01100909
     atom   15 type  1   force =    -0.00073663   -0.00230230   -0.01093109
     atom   16 type  1   force =     0.00073663   -0.00230230    0.01093109
     atom   17 type  5   force =    -0.00013262    0.00020397    0.00643171
     atom   18 type  5   force =     0.00013260    0.00020397   -0.00643171
     atom   19 type  5   force =    -0.00009098    0.00004347   -0.00695117
     atom   20 type  5   force =     0.00009098    0.00004347    0.00695117
     atom   21 type  5   force =     0.00005733   -0.00017704    0.00681313
     atom   22 type  5   force =    -0.00005733   -0.00017704   -0.00681313
     atom   23 type  5   force =     0.00007644    0.00005966   -0.00317476
     atom   24 type  5   force =    -0.00007644    0.00005966    0.00317476
     atom   25 type  5   force =     0.00468810   -0.00198831   -0.00565541
     atom   26 type  5   force =    -0.00468811   -0.00198831    0.00565538
     atom   27 type  5   force =    -0.00381440    0.00082415   -0.00703131
     atom   28 type  5   force =     0.00381441    0.00082415    0.00703129
     atom   29 type  5   force =    -0.00185049    0.00274116    0.00715481
     atom   30 type  5   force =     0.00185049    0.00274116   -0.00715481
     atom   31 type  5   force =     0.00113832   -0.00262470   -0.00736944
     atom   32 type  5   force =    -0.00113832   -0.00262470    0.00736944
     atom   33 type  5   force =    -0.00273908   -0.00349053   -0.00637753
     atom   34 type  5   force =     0.00273906   -0.00349053    0.00637755
     atom   35 type  5   force =     0.00094379    0.00435396    0.00638818
     atom   36 type  5   force =    -0.00094378    0.00435396   -0.00638818
     atom   37 type  5   force =     0.00002196    0.00081126    0.01112356
     atom   38 type  5   force =    -0.00002195    0.00081126   -0.01112356
     atom   39 type  5   force =     0.00010906   -0.00172630    0.01082464
     atom   40 type  5   force =    -0.00010905   -0.00172629   -0.01082462
     atom   41 type  2   force =     0.00000000    0.00000000    0.00000000
     atom   42 type  2   force =     0.00000000    0.00000000    0.00000000
     atom   43 type  2   force =     0.00000000    0.00000000    0.00000000
     atom   44 type  2   force =     0.00000000    0.00000000    0.00000000
     The Hubbard contrib.    to forces
     atom    1 type  3   force =     0.00000000    0.00000000    0.00000000
     atom    2 type  3   force =     0.00000000    0.00000000    0.00000000
     atom    3 type  4   force =     0.00000000    0.00000000    0.00000000
     atom    4 type  4   force =     0.00000000    0.00000000    0.00000000
     atom    5 type  4   force =     0.00000000    0.00000000    0.00000000
     atom    6 type  4   force =     0.00000000    0.00000000    0.00000000
     atom    7 type  4   force =     0.00000000    0.00000000    0.00000000
     atom    8 type  4   force =     0.00000000    0.00000000    0.00000000
     atom    9 type  6   force =     0.00000000    0.00000000    0.00000000
     atom   10 type  6   force =     0.00000000    0.00000000    0.00000000
     atom   11 type  6   force =     0.00000000    0.00000000    0.00000000
     atom   12 type  6   force =     0.00000000    0.00000000    0.00000000
     atom   13 type  6   force =     0.00000000    0.00000000    0.00000000
     atom   14 type  6   force =     0.00000000    0.00000000    0.00000000
     atom   15 type  1   force =     0.00000000    0.00000000    0.00000000
     atom   16 type  1   force =     0.00000000    0.00000000    0.00000000
     atom   17 type  5   force =     0.00000000    0.00000000    0.00000000
     atom   18 type  5   force =     0.00000000    0.00000000    0.00000000
     atom   19 type  5   force =     0.00000000    0.00000000    0.00000000
     atom   20 type  5   force =     0.00000000    0.00000000    0.00000000
     atom   21 type  5   force =     0.00000000    0.00000000    0.00000000
     atom   22 type  5   force =     0.00000000    0.00000000    0.00000000
     atom   23 type  5   force =     0.00000000    0.00000000    0.00000000
     atom   24 type  5   force =     0.00000000    0.00000000    0.00000000
     atom   25 type  5   force =     0.00000000    0.00000000    0.00000000
     atom   26 type  5   force =     0.00000000    0.00000000    0.00000000
     atom   27 type  5   force =     0.00000000    0.00000000    0.00000000
     atom   28 type  5   force =     0.00000000    0.00000000    0.00000000
     atom   29 type  5   force =     0.00000000    0.00000000    0.00000000
     atom   30 type  5   force =     0.00000000    0.00000000    0.00000000
     atom   31 type  5   force =     0.00000000    0.00000000    0.00000000
     atom   32 type  5   force =     0.00000000    0.00000000    0.00000000
     atom   33 type  5   force =     0.00000000    0.00000000    0.00000000
     atom   34 type  5   force =     0.00000000    0.00000000    0.00000000
     atom   35 type  5   force =     0.00000000    0.00000000    0.00000000
     atom   36 type  5   force =     0.00000000    0.00000000    0.00000000
     atom   37 type  5   force =     0.00000000    0.00000000    0.00000000
     atom   38 type  5   force =     0.00000000    0.00000000    0.00000000
     atom   39 type  5   force =     0.00000000    0.00000000    0.00000000
     atom   40 type  5   force =     0.00000000    0.00000000    0.00000000
     atom   41 type  2   force =     0.00000000    0.00000000    0.00000000
     atom   42 type  2   force =     0.00000000    0.00000000    0.00000000
     atom   43 type  2   force =     0.00000000    0.00000000    0.00000000
     atom   44 type  2   force =     0.00000000    0.00000000    0.00000000
     The SCF correction term to forces
     atom    1 type  3   force =     0.00000000    0.00002346    0.00000000
     atom    2 type  3   force =    -0.00000000   -0.00002436    0.00000000
     atom    3 type  4   force =     0.00000000   -0.00000557   -0.00000000
     atom    4 type  4   force =     0.00000000   -0.00001256   -0.00000000
     atom    5 type  4   force =     0.00000000    0.00002007    0.00000000
     atom    6 type  4   force =    -0.00000000    0.00000973   -0.00000000
     atom    7 type  4   force =    -0.00000000   -0.00000584    0.00000000
     atom    8 type  4   force =    -0.00000000   -0.00000700    0.00000000
     atom    9 type  6   force =    -0.00000168   -0.00001331    0.00000168
     atom   10 type  6   force =     0.00000168   -0.00001331   -0.00000168
     atom   11 type  6   force =    -0.00000027    0.00000228    0.00000916
     atom   12 type  6   force =     0.00000027    0.00000228   -0.00000916
     atom   13 type  6   force =     0.00000064    0.00001439   -0.00000265
     atom   14 type  6   force =    -0.00000064    0.00001439    0.00000265
     atom   15 type  1   force =     0.00000015   -0.00000195   -0.00000295
     atom   16 type  1   force =    -0.00000015   -0.00000195    0.00000295
     atom   17 type  5   force =     0.00000060   -0.00000612   -0.00002311
     atom   18 type  5   force =    -0.00000060   -0.00000612    0.00002311
     atom   19 type  5   force =     0.00000062    0.00000199    0.00002620
     atom   20 type  5   force =    -0.00000062    0.00000199   -0.00002620
     atom   21 type  5   force =    -0.00000186    0.00000809   -0.00002211
     atom   22 type  5   force =     0.00000186    0.00000809    0.00002211
     atom   23 type  5   force =     0.00000147   -0.00000409    0.00000701
     atom   24 type  5   force =    -0.00000147   -0.00000409   -0.00000701
     atom   25 type  5   force =    -0.00001456   -0.00001466    0.00001453
     atom   26 type  5   force =     0.00001456   -0.00001466   -0.00001453
     atom   27 type  5   force =     0.00000309   -0.00001245    0.00000840
     atom   28 type  5   force =    -0.00000309   -0.00001245   -0.00000840
     atom   29 type  5   force =     0.00000786    0.00000879   -0.00000574
     atom   30 type  5   force =    -0.00000786    0.00000879    0.00000574
     atom   31 type  5   force =     0.00000523    0.00001420    0.00000610
     atom   32 type  5   force =    -0.00000523    0.00001420   -0.00000610
     atom   33 type  5   force =    -0.00000048    0.00002206    0.00001614
     atom   34 type  5   force =     0.00000048    0.00002206   -0.00001614
     atom   35 type  5   force =    -0.00001402   -0.00001743   -0.00001775
     atom   36 type  5   force =     0.00001402   -0.00001743    0.00001775
     atom   37 type  5   force =     0.00000140    0.00000369   -0.00001774
     atom   38 type  5   force =    -0.00000140    0.00000369    0.00001774
     atom   39 type  5   force =     0.00000018   -0.00000292   -0.00002150
     atom   40 type  5   force =    -0.00000018   -0.00000292    0.00002150
     atom   41 type  2   force =     0.00000008    0.00000078   -0.00000532
     atom   42 type  2   force =    -0.00000008    0.00000078    0.00000532
     atom   43 type  2   force =     0.00000006   -0.00000089   -0.00000558
     atom   44 type  2   force =    -0.00000006   -0.00000089    0.00000558

     Dispersion contribution to forces:
     atom    1 type  3   force =    -0.00000000    0.00243812   -0.00000000
     atom    2 type  3   force =    -0.00000000   -0.00191347   -0.00000000
     atom    3 type  4   force =    -0.00000000    0.00054152    0.00000000
     atom    4 type  4   force =    -0.00000000    0.00058882    0.00000000
     atom    5 type  4   force =    -0.00000000   -0.00135887   -0.00000000
     atom    6 type  4   force =     0.00000000   -0.00011527   -0.00000000
     atom    7 type  4   force =     0.00000000    0.00130352   -0.00000000
     atom    8 type  4   force =     0.00000000   -0.00081280    0.00000000
     atom    9 type  6   force =    -0.00017842   -0.00046728    0.00146412
     atom   10 type  6   force =     0.00017842   -0.00046728   -0.00146412
     atom   11 type  6   force =    -0.00004392    0.00026387   -0.00092034
     atom   12 type  6   force =     0.00004392    0.00026387    0.00092034
     atom   13 type  6   force =    -0.00006871    0.00048999    0.00134099
     atom   14 type  6   force =     0.00006871    0.00048999   -0.00134099
     atom   15 type  1   force =    -0.00004697   -0.00028831   -0.00348228
     atom   16 type  1   force =     0.00004697   -0.00028831    0.00348228
     atom   17 type  5   force =    -0.00017658    0.00009911    0.00040465
     atom   18 type  5   force =     0.00017658    0.00009911   -0.00040466
     atom   19 type  5   force =     0.00010550   -0.00012561   -0.00027750
     atom   20 type  5   force =    -0.00010550   -0.00012561    0.00027749
     atom   21 type  5   force =    -0.00007802    0.00000369    0.00032816
     atom   22 type  5   force =     0.00007802    0.00000369   -0.00032816
     atom   23 type  5   force =    -0.00016308   -0.00021427    0.00106928
     atom   24 type  5   force =     0.00016308   -0.00021427   -0.00106928
     atom   25 type  5   force =     0.00036665    0.00187543    0.00147029
     atom   26 type  5   force =    -0.00036666    0.00187543   -0.00147029
     atom   27 type  5   force =     0.00017745    0.00015070    0.00066302
     atom   28 type  5   force =    -0.00017745    0.00015070   -0.00066302
     atom   29 type  5   force =    -0.00013808    0.00031253   -0.00002823
     atom   30 type  5   force =     0.00013808    0.00031253    0.00002823
     atom   31 type  5   force =     0.00030558   -0.00047525   -0.00025218
     atom   32 type  5   force =    -0.00030558   -0.00047525    0.00025218
     atom   33 type  5   force =     0.00077809   -0.00149705    0.00104428
     atom   34 type  5   force =    -0.00077809   -0.00149705   -0.00104428
     atom   35 type  5   force =     0.00153184   -0.00030711   -0.00126289
     atom   36 type  5   force =    -0.00153184   -0.00030711    0.00126289
     atom   37 type  5   force =     0.00000981    0.00011790   -0.00232794
     atom   38 type  5   force =    -0.00000981    0.00011790    0.00232794
     atom   39 type  5   force =     0.00017474    0.00007126   -0.00247371
     atom   40 type  5   force =    -0.00017474    0.00007126    0.00247371
     atom   41 type  2   force =    -0.00000240   -0.00014715    0.00079350
     atom   42 type  2   force =     0.00000240   -0.00014715   -0.00079350
     atom   43 type  2   force =     0.00038150   -0.00019825    0.00098019
     atom   44 type  2   force =    -0.00038150   -0.00019825   -0.00098019

     Total force =     0.002826     Total SCF correction =     0.000119

     Total Dispersion Force =     0.010450


     Computing stress (Cartesian axis) and pressure

          total   stress  (Ry/bohr**3)                   (kbar)     P=        0.04
   0.00000061   0.00000000  -0.00000067            0.09        0.00       -0.10
   0.00000000   0.00000125   0.00000000            0.00        0.18        0.00
  -0.00000067   0.00000000  -0.00000110           -0.10        0.00       -0.16

     kinetic stress (kbar)  19275.86      0.00     -5.33
                                0.00  19268.29      0.00
                               -5.33      0.00  18959.75

     local   stress (kbar) -35348.37      0.00    -52.87
                                0.00 -35086.76      0.00
                              -52.87      0.00  12705.80

     nonloc. stress (kbar)   5121.52      0.00     -0.47
                                0.00   5121.24      0.00
                               -0.47      0.00   5113.85

     hartree stress (kbar)  19581.01      0.00     19.01
                                0.00  19466.17     -0.00
                               19.01     -0.00  -3951.36

     exc-cor stress (kbar)  -2805.55     -0.00      0.08
                               -0.00  -2805.56      0.00
                                0.08      0.00  -2802.24

     corecor stress (kbar)  -1868.90      0.00      0.11
                                0.00  -1868.90     -0.00
                                0.11     -0.00  -1870.65

     ewald   stress (kbar)  -3923.92     -0.00     39.15
                               -0.00  -4062.79     -0.00
                               39.15     -0.00 -28124.94

     hubbard stress (kbar)      0.00      0.00      0.00
                                0.00      0.00      0.00
                                0.00      0.00      0.00

     DFT-D   stress (kbar)    -31.56      0.00      0.22
                                0.00    -31.51     -0.00
                                0.22     -0.00    -30.36

     XDM     stress (kbar)      0.00      0.00      0.00
                                0.00      0.00      0.00
                                0.00      0.00      0.00

     dft-nl  stress (kbar)      0.00      0.00      0.00
                                0.00      0.00      0.00
                                0.00      0.00      0.00

     TS-vdW  stress (kbar)      0.00      0.00      0.00
                                0.00      0.00      0.00
                                0.00      0.00      0.00

     MDB     stress (kbar)      0.00      0.00      0.00
                                0.00      0.00      0.00
                                0.00      0.00      0.00

     3D-RISM stress (kbar)      0.00      0.00      0.00
                                0.00      0.00      0.00
                                0.00      0.00      0.00


     Writing all to output data dir ./temp/phl-fe0.save/ :
     XML data file, charge density, pseudopotentials, collected wavefunctions

     init_run     :     74.96s CPU     79.13s WALL (       2 calls)
     electrons    :  26284.53s CPU  26968.49s WALL (      16 calls)
     update_pot   :     12.83s CPU     15.72s WALL (      14 calls)
     forces       :    383.23s CPU    394.56s WALL (      16 calls)
     force_london :      5.24s CPU      5.46s WALL (      16 calls)
     stress       :   1330.08s CPU   1360.22s WALL (      16 calls)
     stres_london :      7.01s CPU      7.29s WALL (      16 calls)

     Called by init_run:
     wfcinit      :     68.75s CPU     71.31s WALL (       2 calls)
     wfcinit:atom :      0.11s CPU      0.11s WALL (       8 calls)
     wfcinit:wfcr :     67.81s CPU     70.29s WALL (       8 calls)
     potinit      :      1.74s CPU      2.37s WALL (       2 calls)
     hinit0       :      1.25s CPU      1.39s WALL (       2 calls)

     Called by electrons:
     c_bands      :  24222.13s CPU  24733.59s WALL (     180 calls)
     sum_band     :   1661.81s CPU   1758.98s WALL (     180 calls)
     v_of_rho     :     23.29s CPU     24.70s WALL (     184 calls)
     v_h          :      1.81s CPU      2.01s WALL (     184 calls)
     v_xc         :     25.25s CPU     26.64s WALL (     216 calls)
     newd         :    276.81s CPU    321.74s WALL (     184 calls)
     PAW_pot      :    133.46s CPU    171.25s WALL (     198 calls)
     mix_rho      :      7.01s CPU      7.41s WALL (     180 calls)
     energy_londo :      4.67s CPU      4.75s WALL (      16 calls)

     Called by c_bands:
     init_us_2    :     67.86s CPU     68.99s WALL (    1632 calls)
     cegterg      :  24110.59s CPU  24615.65s WALL (     724 calls)

     Called by sum_band:
     sum_band:wei :      0.00s CPU      0.00s WALL (     180 calls)
     sum_band:loo :   1288.22s CPU   1324.42s WALL (     180 calls)
     sum_band:buf :      6.35s CPU      6.40s WALL (     720 calls)
     sum_band:ini :     30.17s CPU     30.73s WALL (     720 calls)
     sum_band:cal :    942.41s CPU    958.79s WALL (     776 calls)
     sum_band:bec :      1.43s CPU      1.43s WALL (     776 calls)
     addusdens    :    366.98s CPU    424.23s WALL (     180 calls)
                                        0.00s GPU  (     180 calls)
     addusd:skk   :      3.02s CPU      3.46s WALL (    1080 calls)
                                        0.00s GPU  (    1080 calls)

     Called by *egterg:
     cdiaghg      :    677.24s CPU    680.40s WALL (    5448 calls)
     cegterg:over :   2873.29s CPU   2972.51s WALL (    4832 calls)
     cegterg:upda :   1734.38s CPU   1745.08s WALL (    4832 calls)
     cegterg:last :   4789.42s CPU   4808.68s WALL (    2829 calls)
     h_psi        :   9834.13s CPU  10083.74s WALL (    5564 calls)
     s_psi        :   3625.33s CPU   3640.73s WALL (    5564 calls)
     g_psi        :     14.47s CPU     14.57s WALL (    4832 calls)

     Called by h_psi:
     h_psi:calbec :   3525.02s CPU   3580.22s WALL (    5564 calls)
     vloc_psi     :   2659.02s CPU   2830.05s WALL (    5564 calls)
     add_vuspsi   :   3630.53s CPU   3646.84s WALL (    5564 calls)

     General routines
     calbec       :   4860.51s CPU   4945.42s WALL (    6660 calls)
     fft          :     13.93s CPU     15.92s WALL (    2450 calls)
     ffts         :      1.13s CPU      1.22s WALL (     180 calls)
     fftw         :   2227.53s CPU   2389.44s WALL (  840322 calls)

     Parallel routines

     PAW routines
     PAW_pot      :    133.46s CPU    171.25s WALL (     198 calls)
     PAW_symme    :      0.11s CPU      0.14s WALL (     378 calls)

     PWSCF        :      7h49m CPU      8h 2m WALL


   This run was terminated on:  20:10: 4  10Dec2024            

=------------------------------------------------------------------------------=
   JOB DONE.
=------------------------------------------------------------------------------=
