
     Program PWSCF v.7.3.1 starts on  3Jan2025 at 11:29:54 

     This program is part of the open-source Quantum ESPRESSO suite
     for quantum simulation of materials; please cite
         "P. Giannozzi et al., J. Phys.:Condens. Matter 21 395502 (2009);
         "P. Giannozzi et al., J. Phys.:Condens. Matter 29 465901 (2017);
         "P. Giannozzi et al., J. Chem. Phys. 152 154105 (2020);
          URL http://www.quantum-espresso.org", 
     in publications or presentations arising from this work. More details at
     http://www.quantum-espresso.org/quote

     Parallel version (MPI), running on     6 processors

     MPI processes distributed on     1 nodes
     2936 MiB available memory on the printing compute node when the environment starts

     Reading input from vc_relax.in

     Current dimensions of program PWSCF are:
     Max number of different atomic species (ntypx) = 10
     Max number of k-points (npk) =  40000
     Max angular momentum in pseudopotentials (lmaxx) =  4
     file Al.pbe-n-kjpaw_psl.1.0.0.UPF: wavefunction(s)  3S 3P renormalized
     file Fe.pbe-spn-kjpaw_psl.1.0.0.UPF: wavefunction(s)  3P 3D renormalized
     file H.pbe-kjpaw_psl.1.0.0.UPF: wavefunction(s)  1S renormalized
     file K.pbe-spn-kjpaw_psl.1.0.0.UPF: wavefunction(s)  3S renormalized
     file Mg.pbe-spnl-kjpaw_psl.1.0.0.UPF: wavefunction(s)  2P renormalized
     file O.pbe-n-kjpaw_psl.1.0.0.UPF: wavefunction(s)  2S 2P renormalized
     file Si.pbe-n-kjpaw_psl.1.0.0.UPF: wavefunction(s)  3S 3P renormalized

     R & G space division:  proc/nbgrp/npool/nimage =       6
     Subspace diagonalization in iterative solution of the eigenvalue problem:
     one sub-group per band group will be used
     custom distributed-memory algorithm (size of sub-group:  2*  2 procs)


     Parallelization info
     --------------------
     sticks:   dense  smooth     PW     G-vecs:    dense   smooth      PW
     Min        1105     554    150                97744    34578    4918
     Max        1106     555    151                97745    34580    4920
     Sum        6633    3329    905               586467   207475   29511

     Using Slab Decomposition



     bravais-lattice index     =          -12
     lattice parameter (alat)  =      10.0136  a.u.
     unit-cell volume          =    3303.4414 (a.u.)^3
     number of atoms/cell      =           44
     number of atomic types    =            7
     number of electrons       =       262.00
     number of Kohn-Sham states=          157
     kinetic-energy cutoff     =      60.0000  Ry
     charge density cutoff     =     480.0000  Ry
     scf convergence threshold =      1.0E-06
     mixing beta               =       0.7000
     number of iterations used =            8  plain     mixing
     energy convergence thresh.=      1.0E-04
     force convergence thresh. =      1.0E-03
     press convergence thresh. =      5.0E-01
     Exchange-correlation= SLA  PW   PBX  PBC
                           (   1   4   3   4   0   0   0)
     nstep                     =           50


     celldm(1)=  10.013640  celldm(2)=   1.735306  celldm(3)=   1.926511
     celldm(4)=   0.000000  celldm(5)=  -0.177565  celldm(6)=   0.000000

     crystal axes: (cart. coord. in units of alat)
               a(1) = (   1.000000   0.000000   0.000000 )  
               a(2) = (   0.000000   1.735306   0.000000 )  
               a(3) = (  -0.342081   0.000000   1.895896 )  

     reciprocal axes: (cart. coord. in units 2 pi/alat)
               b(1) = (  1.000000 -0.000000  0.180432 )  
               b(2) = (  0.000000  0.576267 -0.000000 )  
               b(3) = (  0.000000  0.000000  0.527455 )  


     PseudoPot. # 1 for Al read from file:
     ./../../pseudos/Al.pbe-n-kjpaw_psl.1.0.0.UPF
     MD5 check sum: 502b6b27b9c6270cab5dd1084b96fa6d
     Pseudo is Projector augmented-wave + core cor, Zval =  3.0
     Generated using &quot;atomic&quot; code by A. Dal Corso  v.6.3
     Shape of augmentation charge: PSQ
     Using radial grid of 1135 points,  6 beta functions with: 
                l(1) =   0
                l(2) =   0
                l(3) =   1
                l(4) =   1
                l(5) =   2
                l(6) =   2
     Q(r) pseudized with 0 coefficients 


     PseudoPot. # 2 for Fe read from file:
     ./../../pseudos/Fe.pbe-spn-kjpaw_psl.1.0.0.UPF
     MD5 check sum: fc81f059e5c5069939230b1155715ae8
     Pseudo is Projector augmented-wave + core cor, Zval = 16.0
     Generated using &quot;atomic&quot; code by A. Dal Corso  v.6.3
     Shape of augmentation charge: PSQ
     Using radial grid of 1191 points,  6 beta functions with: 
                l(1) =   0
                l(2) =   0
                l(3) =   1
                l(4) =   1
                l(5) =   2
                l(6) =   2
     Q(r) pseudized with 0 coefficients 


     PseudoPot. # 3 for H  read from file:
     ./../../pseudos/H.pbe-kjpaw_psl.1.0.0.UPF
     MD5 check sum: d81a744832360e4a8af0b0b5b123bc2a
     Pseudo is Projector augmented-wave, Zval =  1.0
     Generated using &quot;atomic&quot; code by A. Dal Corso  v.6.3MaX
     Shape of augmentation charge: PSQ
     Using radial grid of  929 points,  2 beta functions with: 
                l(1) =   0
                l(2) =   0
     Q(r) pseudized with 0 coefficients 


     PseudoPot. # 4 for K  read from file:
     ./../../pseudos/K.pbe-spn-kjpaw_psl.1.0.0.UPF
     MD5 check sum: 34cc42130a09071ebe376fd42eb21491
     Pseudo is Projector augmented-wave + core cor, Zval =  9.0
     Generated using &quot;atomic&quot; code by A. Dal Corso  v.6.2.2
     Shape of augmentation charge: PSQ
     Using radial grid of 1165 points,  6 beta functions with: 
                l(1) =   0
                l(2) =   0
                l(3) =   1
                l(4) =   1
                l(5) =   2
                l(6) =   2
     Q(r) pseudized with 0 coefficients 


     PseudoPot. # 5 for Mg read from file:
     ./../../pseudos/Mg.pbe-spnl-kjpaw_psl.1.0.0.UPF
     MD5 check sum: fda14e0d92a6a9a5ebed782e5a4b3067
     Pseudo is Projector augmented-wave + core cor, Zval = 10.0
     Generated using &quot;atomic&quot; code by A. Dal Corso  v.6.3
     Shape of augmentation charge: PSQ
     Using radial grid of 1129 points,  4 beta functions with: 
                l(1) =   0
                l(2) =   0
                l(3) =   1
                l(4) =   1
     Q(r) pseudized with 0 coefficients 


     PseudoPot. # 6 for O  read from file:
     ./../../pseudos/O.pbe-n-kjpaw_psl.1.0.0.UPF
     MD5 check sum: e99d9cef9b487d1ca56f5b95ecd0fd7a
     Pseudo is Projector augmented-wave + core cor, Zval =  6.0
     Generated using &quot;atomic&quot; code by A. Dal Corso  v.6.3
     Shape of augmentation charge: PSQ
     Using radial grid of 1095 points,  4 beta functions with: 
                l(1) =   0
                l(2) =   0
                l(3) =   1
                l(4) =   1
     Q(r) pseudized with 0 coefficients 


     PseudoPot. # 7 for Si read from file:
     ./../../pseudos/Si.pbe-n-kjpaw_psl.1.0.0.UPF
     MD5 check sum: c39c59da582df4a0d9f10159256ea34e
     Pseudo is Projector augmented-wave + core cor, Zval =  4.0
     Generated using &quot;atomic&quot; code by A. Dal Corso  v.6.3
     Shape of augmentation charge: PSQ
     Using radial grid of 1141 points,  6 beta functions with: 
                l(1) =   0
                l(2) =   0
                l(3) =   1
                l(4) =   1
                l(5) =   2
                l(6) =   2
     Q(r) pseudized with 0 coefficients 


     atomic species   valence    mass     pseudopotential
     Al                3.00    26.98154     Al( 1.00)
     Fe               16.00    55.84500     Fe( 1.00)
     H                 1.00     1.00794     H ( 1.00)
     K                 9.00    39.09830     K ( 1.00)
     Mg               10.00    24.30500     Mg( 1.00)
     O                 6.00    15.99940     O ( 1.00)
     Si                4.00    28.08550     Si( 1.00)

      2 Sym. Ops. (no inversion) found


                                    s                        frac. trans.

      isym =  1     identity                                     

 cryst.   s( 1) = (     1          0          0      )
                  (     0          1          0      )
                  (     0          0          1      )

 cart.    s( 1) = (  1.0000000  0.0000000 -0.0000000 )
                  (  0.0000000  1.0000000  0.0000000 )
                  (  0.0000000  0.0000000  1.0000000 )


      isym =  2     180 deg rotation - cart. axis [0,1,0]        

 cryst.   s( 2) = (    -1          0          0      )
                  (     0          1          0      )
                  (     0          0         -1      )

 cart.    s( 2) = ( -1.0000000  0.0000000  0.0000000 )
                  (  0.0000000  1.0000000  0.0000000 )
                  (  0.0000000  0.0000000 -1.0000000 )


     point group C_2  (2)   
     there are  2 classes
     the character table:

       E     C2   
A      1.00  1.00
B      1.00 -1.00

     the symmetry operations in each class and the name of the first element:

     E        1
          identity                                               
     C2       2
          180 deg rotation - cart. axis [0,1,0]                  

   Cartesian axes

     site n.     atom                  positions (alat units)
         1        K      tau(   1) = (   0.0000000   0.8553281   0.0000000  )
         2        K      tau(   2) = (   0.5000000   0.0079247   0.0000000  )
         3        Mg     tau(   3) = (  -0.1710407   0.5722904   0.9479482  )
         4        Mg     tau(   4) = (  -0.1710407   1.1568546   0.9479482  )
         5        Mg     tau(   5) = (   0.3289593   0.8557243   0.9479482  )
         6        Mg     tau(   6) = (   0.3289593   1.4521403   0.9479482  )
         7        Mg     tau(   7) = (   0.3289593   0.2960185   0.9479482  )
         8        Si     tau(   8) = (   0.0049741   0.2842459   0.4230849  )
         9        Si     tau(   9) = (   0.6529445   0.2842459   1.4728116  )
        10        Si     tau(  10) = (   0.6741816   1.4500226   1.4617906  )
        11        Si     tau(  11) = (  -0.0162629   1.4500226   0.4341057  )
        12        Si     tau(  12) = (   0.4838768   1.1570486   0.4309746  )
        13        Si     tau(  13) = (   0.1740419   1.1570486   1.4649218  )
        14        Al     tau(  14) = (   0.1515930   0.5745638   1.4693919  )
        15        Al     tau(  15) = (   0.5063256   0.5745638   0.4265046  )
        16        O      tau(  16) = (  -0.0066679   0.2769469   0.7321247  )
        17        O      tau(  17) = (   0.6645865   0.2769469   1.1637717  )
        18        O      tau(  18) = (   0.6674007   1.4511464   1.1555036  )
        19        O      tau(  19) = (  -0.0094820   1.4511464   0.7403928  )
        20        O      tau(  20) = (   0.4910366   1.1622018   0.7373565  )
        21        O      tau(  21) = (   0.1668821   1.1622018   1.1585400  )
        22        O      tau(  22) = (   0.1555496   0.5771415   1.1434801  )
        23        O      tau(  23) = (   0.5023691   0.5771415   0.7524162  )
        24        O      tau(  24) = (   0.2845215   0.3511422   0.3156195  )
        25        O      tau(  25) = (   0.3733973   0.3511422   1.5802768  )
        26        O      tau(  26) = (   0.9338539   1.7308778   0.3145363  )
        27        O      tau(  27) = (  -0.2759352   1.7308778   1.5813600  )
        28        O      tau(  28) = (   0.4024784   1.3450547   1.5736991  )
        29        O      tau(  29) = (   0.2554404   1.3450547   0.3221973  )
        30        O      tau(  30) = (   0.7552644   1.2712422   0.3194354  )
        31        O      tau(  31) = (  -0.0973457   1.2712422   1.5764610  )
        32        O      tau(  32) = (   0.4389983   0.8813795   0.3081431  )
        33        O      tau(  33) = (   0.2189203   0.8813795   1.5877533  )
        34        O      tau(  34) = (  -0.1437976   0.4806182   1.5921662  )
        35        O      tau(  35) = (   0.8017162   0.4806182   0.3037302  )
        36        O      tau(  36) = (  -0.0054154   0.8747460   0.7469385  )
        37        O      tau(  37) = (   0.6633341   0.8747460   1.1489580  )
        38        O      tau(  38) = (   0.5030313   1.7351756   0.7571921  )
        39        O      tau(  39) = (   0.1548874   1.7351756   1.1387043  )
        40        H      tau(  40) = (  -0.0039883   0.8587603   0.5654633  )
        41        H      tau(  41) = (   0.6619070   0.8587603   1.3304331  )
        42        H      tau(  42) = (   0.5185899   0.0270183   0.5771313  )
        43        H      tau(  43) = (   0.1393288   0.0270183   1.3187650  )
        44        Fe     tau(  44) = (  -0.1710407   0.0017817   0.9479482  )

     --------------------------------------------
     DFT-D3 Dispersion Correction (3-body terms):
     --------------------------------------------
       Reference C6 values for interpolation: 

         atom   Coordination number   C6
         H          0.912             6.05
         H          0.000            15.18
         O          0.000            31.01
         O          0.993            25.63
         O          1.989            20.74
         Mg         0.000          1366.75
         Mg         0.963           902.54
         Mg         1.950           351.12
         Al         0.000          1081.08
         Al         0.965           875.51
         Al         1.931           513.50
         Al         2.915           307.19
         Si         0.000           635.71
         Si         0.951           540.53
         Si         1.944           466.25
         Si         2.941           443.01
         Si         3.868           299.55
         K          0.000          9967.00
         K          0.977           676.04
         Fe         0.000           982.67
         Fe         1.648           409.99
         Fe         9.138           219.01

       Values used:

         atom   Coordination number  R0_AB[au]  C6      C8
         K         13.480            4.007    676.04 129074.98
         K         13.775            4.007    676.04 129074.98
         Mg        11.900            3.292    351.12  31436.69
         Mg        11.459            3.292    351.12  31436.69
         Mg        12.038            3.292    351.12  31436.69
         Mg        11.170            3.292    351.12  31436.69
         Mg        11.632            3.292    351.12  31436.69
         Si         6.810            3.583    299.55  21425.58
         Si         6.810            3.583    299.55  21425.58
         Si         6.381            3.583    299.55  21425.58
         Si         6.381            3.583    299.55  21425.58
         Si         6.580            3.583    299.55  21425.58
         Si         6.580            3.583    299.55  21425.58
         Al         7.847            3.789    307.19  29441.29
         Al         7.847            3.789    307.19  29441.29
         O          3.767            2.345     20.74    418.58
         O          3.767            2.345     20.74    418.58
         O          3.762            2.345     20.74    418.58
         O          3.762            2.345     20.74    418.58
         O          3.908            2.345     20.74    418.58
         O          3.908            2.345     20.74    418.58
         O          3.987            2.345     20.74    418.58
         O          3.987            2.345     20.74    418.58
         O          3.182            2.345     20.74    418.58
         O          3.182            2.345     20.74    418.58
         O          3.155            2.345     20.74    418.58
         O          3.155            2.345     20.74    418.58
         O          3.047            2.345     20.74    418.58
         O          3.047            2.345     20.74    418.58
         O          3.054            2.345     20.74    418.58
         O          3.054            2.345     20.74    418.58
         O          3.186            2.345     20.74    418.58
         O          3.186            2.345     20.74    418.58
         O          3.250            2.345     20.74    418.58
         O          3.250            2.345     20.74    418.58
         O          3.992            2.345     20.74    418.58
         O          3.992            2.345     20.74    418.58
         O          3.887            2.345     20.74    418.58
         O          3.887            2.345     20.74    418.58
         H          1.324            2.062      6.07     73.32
         H          1.324            2.062      6.07     73.32
         H          1.258            2.062      6.07     73.41
         H          1.258            2.062      6.07     73.41
         Fe         8.303            3.252    219.01  20487.87

         Molecular C6 ( Ry / a.u.^6 ) =    165305.79


   Crystallographic axes

     site n.     atom                  positions (cryst. coord.)
         1        K      tau(   1) = (  0.0000000  0.4928975  0.0000000  )
         2        K      tau(   2) = (  0.5000000  0.0045668  0.0000000  )
         3        Mg     tau(   3) = (  0.0000000  0.3297922  0.5000000  )
         4        Mg     tau(   4) = (  0.0000000  0.6666573  0.5000000  )
         5        Mg     tau(   5) = (  0.5000000  0.4931259  0.5000000  )
         6        Mg     tau(   6) = (  0.5000000  0.8368208  0.5000000  )
         7        Mg     tau(   7) = (  0.5000000  0.1705858  0.5000000  )
         8        Si     tau(   8) = (  0.0813124  0.1638016  0.2231582  )
         9        Si     tau(   9) = (  0.9186876  0.1638016  0.7768418  )
        10        Si     tau(  10) = (  0.9379361  0.8356004  0.7710288  )
        11        Si     tau(  11) = (  0.0620639  0.8356004  0.2289712  )
        12        Si     tau(  12) = (  0.5616386  0.6667691  0.2273197  )
        13        Si     tau(  13) = (  0.4383614  0.6667691  0.7726803  )
        14        Al     tau(  14) = (  0.4167190  0.3311023  0.7750381  )
        15        Al     tau(  15) = (  0.5832809  0.3311023  0.2249620  )
        16        O      tau(  16) = (  0.1254312  0.1595954  0.3861628  )
        17        O      tau(  17) = (  0.8745688  0.1595954  0.6138372  )
        18        O      tau(  18) = (  0.8758911  0.8362480  0.6094761  )
        19        O      tau(  19) = (  0.1241089  0.8362480  0.3905239  )
        20        O      tau(  20) = (  0.6240797  0.6697388  0.3889224  )
        21        O      tau(  21) = (  0.3759203  0.6697388  0.6110777  )
        22        O      tau(  22) = (  0.3618706  0.3325877  0.6031343  )
        23        O      tau(  23) = (  0.6381294  0.3325877  0.3968657  )
        24        O      tau(  24) = (  0.3414695  0.2023517  0.1664751  )
        25        O      tau(  25) = (  0.6585305  0.2023517  0.8335249  )
        26        O      tau(  26) = (  0.9906065  0.9974481  0.1659038  )
        27        O      tau(  27) = (  0.0093935  0.9974481  0.8340962  )
        28        O      tau(  28) = (  0.6864248  0.7751109  0.8300554  )
        29        O      tau(  29) = (  0.3135752  0.7751109  0.1699446  )
        30        O      tau(  30) = (  0.8129010  0.7325752  0.1684878  )
        31        O      tau(  31) = (  0.1870990  0.7325752  0.8315122  )
        32        O      tau(  32) = (  0.4945973  0.5079101  0.1625316  )
        33        O      tau(  33) = (  0.5054026  0.5079101  0.8374684  )
        34        O      tau(  34) = (  0.1434810  0.2769645  0.8397960  )
        35        O      tau(  35) = (  0.8565190  0.2769645  0.1602040  )
        36        O      tau(  36) = (  0.1293566  0.5040874  0.3939764  )
        37        O      tau(  37) = (  0.8706434  0.5040874  0.6060236  )
        38        O      tau(  38) = (  0.6396534  0.9999248  0.3993847  )
        39        O      tau(  39) = (  0.3603466  0.9999248  0.6006153  )
        40        H      tau(  40) = (  0.0980397  0.4948754  0.2982565  )
        41        H      tau(  41) = (  0.9019604  0.4948754  0.7017435  )
        42        H      tau(  42) = (  0.6227232  0.0155698  0.3044108  )
        43        H      tau(  43) = (  0.3772768  0.0155698  0.6955892  )
        44        Fe     tau(  44) = (  0.0000000  0.0010267  0.5000000  )

     number of k points=    20  Gaussian smearing, width (Ry)=  0.0010
                       cart. coord. in units 2pi/alat
        k(    1) = (   0.0000000   0.0000000   0.0000000), wk =   0.0370370
        k(    2) = (   0.0000000   0.0000000   0.1758183), wk =   0.0740741
        k(    3) = (   0.0000000   0.1920891   0.0000000), wk =   0.0740741
        k(    4) = (   0.0000000   0.1920891   0.1758183), wk =   0.1481481
        k(    5) = (   0.1666667   0.0000000   0.0300721), wk =   0.0740741
        k(    6) = (   0.1666667   0.0000000   0.2058904), wk =   0.0740741
        k(    7) = (   0.1666667   0.0000000  -0.1457462), wk =   0.0740741
        k(    8) = (   0.1666667   0.1920891   0.0300721), wk =   0.1481481
        k(    9) = (   0.1666667   0.1920891   0.2058904), wk =   0.1481481
        k(   10) = (   0.1666667   0.1920891  -0.1457462), wk =   0.1481481
        k(   11) = (   0.3333333   0.0000000   0.0601442), wk =   0.0740741
        k(   12) = (   0.3333333   0.0000000   0.2359625), wk =   0.0740741
        k(   13) = (   0.3333333   0.0000000  -0.1156742), wk =   0.0740741
        k(   14) = (   0.3333333   0.1920891   0.0601442), wk =   0.1481481
        k(   15) = (   0.3333333   0.1920891   0.2359625), wk =   0.1481481
        k(   16) = (   0.3333333   0.1920891  -0.1156742), wk =   0.1481481
        k(   17) = (  -0.5000000   0.0000000  -0.0902162), wk =   0.0370370
        k(   18) = (  -0.5000000   0.0000000   0.0856021), wk =   0.0740741
        k(   19) = (  -0.5000000   0.1920891  -0.0902162), wk =   0.0740741
        k(   20) = (  -0.5000000   0.1920891   0.0856021), wk =   0.1481481

                       cryst. coord.
        k(    1) = (   0.0000000   0.0000000   0.0000000), wk =   0.0370370
        k(    2) = (   0.0000000   0.0000000   0.3333333), wk =   0.0740741
        k(    3) = (   0.0000000   0.3333333   0.0000000), wk =   0.0740741
        k(    4) = (   0.0000000   0.3333333   0.3333333), wk =   0.1481481
        k(    5) = (   0.1666667   0.0000000  -0.0000000), wk =   0.0740741
        k(    6) = (   0.1666667   0.0000000   0.3333333), wk =   0.0740741
        k(    7) = (   0.1666667   0.0000000  -0.3333333), wk =   0.0740741
        k(    8) = (   0.1666667   0.3333333  -0.0000000), wk =   0.1481481
        k(    9) = (   0.1666667   0.3333333   0.3333333), wk =   0.1481481
        k(   10) = (   0.1666667   0.3333333  -0.3333333), wk =   0.1481481
        k(   11) = (   0.3333333   0.0000000  -0.0000000), wk =   0.0740741
        k(   12) = (   0.3333333   0.0000000   0.3333333), wk =   0.0740741
        k(   13) = (   0.3333333   0.0000000  -0.3333333), wk =   0.0740741
        k(   14) = (   0.3333333   0.3333333  -0.0000000), wk =   0.1481481
        k(   15) = (   0.3333333   0.3333333   0.3333333), wk =   0.1481481
        k(   16) = (   0.3333333   0.3333333  -0.3333333), wk =   0.1481481
        k(   17) = (  -0.5000000   0.0000000   0.0000000), wk =   0.0370370
        k(   18) = (  -0.5000000   0.0000000   0.3333333), wk =   0.0740741
        k(   19) = (  -0.5000000   0.3333333   0.0000000), wk =   0.0740741
        k(   20) = (  -0.5000000   0.3333333   0.3333333), wk =   0.1481481

     Dense  grid:   586467 G-vectors     FFT dimensions: (  72, 125, 135)

     Smooth grid:   207475 G-vectors     FFT dimensions: (  50,  90,  96)

     Dynamical RAM for                 wfc:      10.35 MB

     Dynamical RAM for     wfc (w. buffer):     217.38 MB

     Dynamical RAM for           str. fact:      10.44 MB

     Dynamical RAM for           local pot:       0.00 MB

     Dynamical RAM for          nlocal pot:      28.88 MB

     Dynamical RAM for                qrad:      24.61 MB

     Dynamical RAM for          rho,v,vnew:       9.21 MB

     Dynamical RAM for               rhoin:       3.07 MB

     Dynamical RAM for            rho*nmix:      23.86 MB

     Dynamical RAM for           G-vectors:       5.86 MB

     Dynamical RAM for          h,s,v(r/c):       1.13 MB

     Dynamical RAM for          <psi|beta>:       1.05 MB

     Dynamical RAM for                 psi:      20.70 MB

     Dynamical RAM for                hpsi:      20.70 MB

     Dynamical RAM for                spsi:      20.70 MB

     Dynamical RAM for      wfcinit/wfcrot:      24.90 MB

     Dynamical RAM for           addusdens:     313.21 MB

     Dynamical RAM for          addusforce:     382.66 MB

     Dynamical RAM for         addusstress:     299.79 MB

     Estimated static dynamical RAM per process >     319.28 MB

     Estimated max dynamical RAM per process >     725.80 MB

     Estimated total dynamical RAM >       4.25 GB

     Check: negative core charge=   -0.000004

     Initial potential from superposition of free atoms

     starting charge     261.9493, renormalised to     262.0000
     Starting wfcs are  183 randomized atomic wfcs
     Checking if some PAW data can be deallocated... 
       PAW data deallocated on    5 nodes for type:  1
       PAW data deallocated on    5 nodes for type:  2
       PAW data deallocated on    5 nodes for type:  3
       PAW data deallocated on    5 nodes for type:  4
       PAW data deallocated on    5 nodes for type:  5
       PAW data deallocated on    1 nodes for type:  6
       PAW data deallocated on    4 nodes for type:  7

     total cpu time spent up to now is       96.2 secs

     Self-consistent Calculation

     iteration #  1     ecut=    60.00 Ry     beta= 0.70
     Davidson diagonalization with overlap

---- Real-time Memory Report at c_bands before calling an iterative solver
           409 MiB given to the printing process from OS
             0 MiB allocation reported by mallinfo(arena+hblkhd)
          1196 MiB available memory on the node where the printing process lives
------------------
     ethr =  1.00E-02,  avg # of iterations =  5.9

     total cpu time spent up to now is      375.9 secs

     total energy              =   -2623.79300074 Ry
     estimated scf accuracy    <      12.25390217 Ry

     iteration #  2     ecut=    60.00 Ry     beta= 0.70
     Davidson diagonalization with overlap

---- Real-time Memory Report at c_bands before calling an iterative solver
           667 MiB given to the printing process from OS
             0 MiB allocation reported by mallinfo(arena+hblkhd)
          1246 MiB available memory on the node where the printing process lives
------------------
     ethr =  4.68E-03,  avg # of iterations =  5.2

     total cpu time spent up to now is      817.1 secs

     total energy              =   -2629.12693133 Ry
     estimated scf accuracy    <      11.34017982 Ry

     iteration #  3     ecut=    60.00 Ry     beta= 0.70
     Davidson diagonalization with overlap

---- Real-time Memory Report at c_bands before calling an iterative solver
           668 MiB given to the printing process from OS
             0 MiB allocation reported by mallinfo(arena+hblkhd)
          1574 MiB available memory on the node where the printing process lives
------------------
     ethr =  4.33E-03,  avg # of iterations =  2.0

     total cpu time spent up to now is     1024.1 secs

     total energy              =   -2629.96242739 Ry
     estimated scf accuracy    <       1.52514720 Ry

     iteration #  4     ecut=    60.00 Ry     beta= 0.70
     Davidson diagonalization with overlap

---- Real-time Memory Report at c_bands before calling an iterative solver
           670 MiB given to the printing process from OS
             0 MiB allocation reported by mallinfo(arena+hblkhd)
          1441 MiB available memory on the node where the printing process lives
------------------
     ethr =  5.82E-04,  avg # of iterations =  6.8

     total cpu time spent up to now is     1380.9 secs

     total energy              =   -2631.13139602 Ry
     estimated scf accuracy    <       0.30999786 Ry

     iteration #  5     ecut=    60.00 Ry     beta= 0.70
     Davidson diagonalization with overlap

---- Real-time Memory Report at c_bands before calling an iterative solver
           671 MiB given to the printing process from OS
             0 MiB allocation reported by mallinfo(arena+hblkhd)
          1307 MiB available memory on the node where the printing process lives
------------------
     c_bands:  1 eigenvalues not converged
     c_bands:  1 eigenvalues not converged
     c_bands:  1 eigenvalues not converged
     ethr =  1.18E-04,  avg # of iterations = 14.6

     total cpu time spent up to now is     1709.9 secs

     total energy              =   -2631.15657794 Ry
     estimated scf accuracy    <       0.12289280 Ry

     iteration #  6     ecut=    60.00 Ry     beta= 0.70
     Davidson diagonalization with overlap

---- Real-time Memory Report at c_bands before calling an iterative solver
           672 MiB given to the printing process from OS
             0 MiB allocation reported by mallinfo(arena+hblkhd)
          1622 MiB available memory on the node where the printing process lives
------------------
     c_bands:  1 eigenvalues not converged
     c_bands:  1 eigenvalues not converged
     c_bands:  1 eigenvalues not converged
     c_bands:  1 eigenvalues not converged
     c_bands:  1 eigenvalues not converged
     ethr =  4.69E-05,  avg # of iterations = 12.1

     total cpu time spent up to now is     2008.7 secs

     total energy              =   -2631.18156215 Ry
     estimated scf accuracy    <       0.01930350 Ry

     iteration #  7     ecut=    60.00 Ry     beta= 0.70
     Davidson diagonalization with overlap

---- Real-time Memory Report at c_bands before calling an iterative solver
           673 MiB given to the printing process from OS
             0 MiB allocation reported by mallinfo(arena+hblkhd)
          1122 MiB available memory on the node where the printing process lives
------------------
     c_bands:  2 eigenvalues not converged
     c_bands:  2 eigenvalues not converged
     c_bands:  2 eigenvalues not converged
     c_bands:  3 eigenvalues not converged
     c_bands:  1 eigenvalues not converged
     c_bands:  1 eigenvalues not converged
     ethr =  7.37E-06,  avg # of iterations = 14.2

     total cpu time spent up to now is     2441.8 secs

     total energy              =   -2631.19146869 Ry
     estimated scf accuracy    <       0.00162916 Ry

     iteration #  8     ecut=    60.00 Ry     beta= 0.70
     Davidson diagonalization with overlap

---- Real-time Memory Report at c_bands before calling an iterative solver
           674 MiB given to the printing process from OS
             0 MiB allocation reported by mallinfo(arena+hblkhd)
          1387 MiB available memory on the node where the printing process lives
------------------
     c_bands:  1 eigenvalues not converged
     c_bands:  4 eigenvalues not converged
     c_bands:  2 eigenvalues not converged
     c_bands:  3 eigenvalues not converged
     c_bands:  1 eigenvalues not converged
     c_bands:  1 eigenvalues not converged
     c_bands:  1 eigenvalues not converged
     c_bands:  1 eigenvalues not converged
     c_bands:  1 eigenvalues not converged
     c_bands:  2 eigenvalues not converged
     c_bands:  2 eigenvalues not converged
     c_bands:  1 eigenvalues not converged
     c_bands:  1 eigenvalues not converged
     ethr =  6.22E-07,  avg # of iterations = 16.6

     total cpu time spent up to now is     2897.3 secs

     total energy              =   -2631.19305092 Ry
     estimated scf accuracy    <       0.00027805 Ry

     iteration #  9     ecut=    60.00 Ry     beta= 0.70
     Davidson diagonalization with overlap

---- Real-time Memory Report at c_bands before calling an iterative solver
           675 MiB given to the printing process from OS
             0 MiB allocation reported by mallinfo(arena+hblkhd)
          1675 MiB available memory on the node where the printing process lives
------------------
     c_bands:  1 eigenvalues not converged
     c_bands:  1 eigenvalues not converged
     c_bands:  1 eigenvalues not converged
     c_bands:  1 eigenvalues not converged
     c_bands:  1 eigenvalues not converged
     ethr =  1.06E-07,  avg # of iterations =  9.6

     total cpu time spent up to now is     3228.3 secs

     total energy              =   -2631.19315498 Ry
     estimated scf accuracy    <       0.00007319 Ry

     iteration # 10     ecut=    60.00 Ry     beta= 0.70
     Davidson diagonalization with overlap

---- Real-time Memory Report at c_bands before calling an iterative solver
           676 MiB given to the printing process from OS
             0 MiB allocation reported by mallinfo(arena+hblkhd)
          1468 MiB available memory on the node where the printing process lives
------------------
     ethr =  2.79E-08,  avg # of iterations =  5.2

     total cpu time spent up to now is     3554.6 secs

     total energy              =   -2631.19319145 Ry
     estimated scf accuracy    <       0.00000899 Ry

     iteration # 11     ecut=    60.00 Ry     beta= 0.70
     Davidson diagonalization with overlap

---- Real-time Memory Report at c_bands before calling an iterative solver
           677 MiB given to the printing process from OS
             0 MiB allocation reported by mallinfo(arena+hblkhd)
          1275 MiB available memory on the node where the printing process lives
------------------
     ethr =  3.43E-09,  avg # of iterations =  8.0

     total cpu time spent up to now is     3961.9 secs

     total energy              =   -2631.19319662 Ry
     estimated scf accuracy    <       0.00000854 Ry

     iteration # 12     ecut=    60.00 Ry     beta= 0.70
     Davidson diagonalization with overlap

---- Real-time Memory Report at c_bands before calling an iterative solver
           677 MiB given to the printing process from OS
             0 MiB allocation reported by mallinfo(arena+hblkhd)
          1535 MiB available memory on the node where the printing process lives
------------------
     ethr =  3.26E-09,  avg # of iterations =  1.6

     total cpu time spent up to now is     4153.3 secs

     total energy              =   -2631.19319528 Ry
     estimated scf accuracy    <       0.00000299 Ry

     iteration # 13     ecut=    60.00 Ry     beta= 0.70
     Davidson diagonalization with overlap

---- Real-time Memory Report at c_bands before calling an iterative solver
           677 MiB given to the printing process from OS
             0 MiB allocation reported by mallinfo(arena+hblkhd)
          1544 MiB available memory on the node where the printing process lives
------------------
     ethr =  1.14E-09,  avg # of iterations =  6.2

     total cpu time spent up to now is     4533.0 secs

     total energy              =   -2631.19319699 Ry
     estimated scf accuracy    <       0.00000142 Ry

     iteration # 14     ecut=    60.00 Ry     beta= 0.70
     Davidson diagonalization with overlap

---- Real-time Memory Report at c_bands before calling an iterative solver
           677 MiB given to the printing process from OS
             0 MiB allocation reported by mallinfo(arena+hblkhd)
          1299 MiB available memory on the node where the printing process lives
------------------
     ethr =  5.42E-10,  avg # of iterations =  2.7

     total cpu time spent up to now is     4746.5 secs

     End of self-consistent calculation

          k = 0.0000 0.0000 0.0000 ( 25927 PWs)   bands (ev):

   -78.3632 -67.5600 -67.5526 -67.0247 -66.9487 -66.9306 -44.5237 -44.4972
   -44.4174 -34.3318 -34.3151 -34.3118 -34.3003 -34.2976 -34.2938 -33.7829
   -33.7761 -33.7750 -33.7208 -33.7144 -33.7028 -33.6801 -33.6722 -33.6586
   -23.0090 -22.9918 -15.0806 -15.0262 -14.1616 -14.1146 -13.6122 -13.5898
   -13.3950 -13.3081 -13.2735 -13.0433 -12.9319 -12.8233 -12.8204 -12.7768
   -12.7690 -12.6468 -12.4720 -12.3918 -12.2646 -12.2639 -12.2302 -12.1309
   -11.0658 -10.8105  -6.5807  -6.5560  -6.5041  -6.5006  -6.4717  -6.4662
    -4.2741  -4.2183  -2.3972  -2.2998  -1.8578  -1.3590  -1.1306  -1.1081
    -1.0859  -0.9938  -0.6221  -0.5415  -0.4308  -0.4157  -0.3059  -0.1938
     0.0221   0.1362   0.2676   0.3788   0.5790   0.5916   0.6556   0.8633
     0.8812   1.1448   1.3294   1.3296   1.4161   1.5212   1.5774   1.6706
     1.7978   1.8648   1.9871   2.0803   2.0912   2.1857   2.2190   2.3119
     2.4487   2.4755   2.5103   2.6546   2.6946   2.6997   2.7362   2.8660
     2.8785   2.9442   3.0136   3.0523   3.1669   3.1861   3.3146   3.3502
     3.4470   3.4660   3.5285   3.6042   3.6557   3.7172   3.7933   3.8256
     3.9057   3.9210   3.9593   4.0998   4.1589   4.2957   4.4883   4.6308
     7.7979   7.8556   8.0457   9.1268   9.2231   9.5437  10.6221  11.2827
    11.5796  11.9024  12.1324  12.2534  12.6090  12.6939  13.0285  13.0476
    13.1357  13.2608  13.3132  13.4490  13.6393  13.6486  13.7310  13.7702
    13.8073  14.0779  14.1868  14.2223  14.3173

     occupation numbers 
     1.0000   1.0000   1.0000   1.0000   1.0000   1.0000   1.0000   1.0000
     1.0000   1.0000   1.0000   1.0000   1.0000   1.0000   1.0000   1.0000
     1.0000   1.0000   1.0000   1.0000   1.0000   1.0000   1.0000   1.0000
     1.0000   1.0000   1.0000   1.0000   1.0000   1.0000   1.0000   1.0000
     1.0000   1.0000   1.0000   1.0000   1.0000   1.0000   1.0000   1.0000
     1.0000   1.0000   1.0000   1.0000   1.0000   1.0000   1.0000   1.0000
     1.0000   1.0000   1.0000   1.0000   1.0000   1.0000   1.0000   1.0000
     1.0000   1.0000   1.0000   1.0000   1.0000   1.0000   1.0000   1.0000
     1.0000   1.0000   1.0000   1.0000   1.0000   1.0000   1.0000   1.0000
     1.0000   1.0000   1.0000   1.0000   1.0000   1.0000   1.0000   1.0000
     1.0000   1.0000   1.0000   1.0000   1.0000   1.0000   1.0000   1.0000
     1.0000   1.0000   1.0000   1.0000   1.0000   1.0000   1.0000   1.0000
     1.0000   1.0000   1.0000   1.0000   1.0000   1.0000   1.0000   1.0000
     1.0000   1.0000   1.0000   1.0000   1.0000   1.0000   1.0000   1.0000
     1.0000   1.0000   1.0000   1.0000   1.0000   1.0000   1.0000   1.0000
     1.0000   1.0000   1.0000   1.0000   1.0000   1.0000   1.0000   1.0000
     1.0000   1.0000   1.0000   0.0000   0.0000   0.0000   0.0000   0.0000
     0.0000   0.0000   0.0000   0.0000   0.0000   0.0000   0.0000   0.0000
     0.0000   0.0000   0.0000   0.0000   0.0000   0.0000   0.0000   0.0000
     0.0000   0.0000   0.0000   0.0000   0.0000

          k = 0.0000 0.0000 0.1758 ( 25971 PWs)   bands (ev):

   -78.3632 -67.5600 -67.5526 -67.0247 -66.9487 -66.9306 -44.5237 -44.4972
   -44.4174 -34.3318 -34.3151 -34.3118 -34.3004 -34.2976 -34.2938 -33.7829
   -33.7761 -33.7750 -33.7208 -33.7145 -33.7028 -33.6801 -33.6722 -33.6587
   -23.0090 -22.9918 -15.0677 -15.0400 -14.1503 -14.1266 -13.6128 -13.5892
   -13.3873 -13.3033 -13.2862 -13.0400 -12.9324 -12.8351 -12.8097 -12.7816
   -12.7620 -12.6498 -12.4648 -12.3984 -12.2713 -12.2486 -12.2316 -12.1379
   -11.0655 -10.8112  -6.5808  -6.5561  -6.5041  -6.5006  -6.4716  -6.4662
    -4.2709  -4.2219  -2.3746  -2.3261  -1.8296  -1.3361  -1.1517  -1.0939
    -1.0725  -1.0181  -0.6006  -0.5599  -0.4679  -0.3796  -0.3163  -0.2774
     0.0481   0.1632   0.2133   0.3144   0.5610   0.5903   0.7000   0.8429
     0.9369   1.2333   1.2632   1.3623   1.4393   1.4854   1.5944   1.7319
     1.8248   1.8534   2.0764   2.0862   2.1152   2.1826   2.2597   2.2995
     2.4047   2.4513   2.4947   2.5634   2.6419   2.7081   2.7581   2.8324
     2.8592   2.9395   3.0402   3.0899   3.1197   3.1879   3.2820   3.3894
     3.4196   3.4668   3.5588   3.6497   3.6723   3.7218   3.7396   3.8185
     3.8906   3.9037   3.9442   4.1324   4.1638   4.2896   4.4863   4.6365
     7.7992   7.8554   8.0447   9.2074   9.4343   9.5532  10.1586  11.3421
    11.6514  11.7843  12.1263  12.2042  12.7224  12.8986  12.9757  13.1186
    13.1595  13.2496  13.3340  13.4148  13.5229  13.6583  13.7490  13.7781
    13.9268  14.0274  14.1250  14.2327  14.2708

     occupation numbers 
     1.0000   1.0000   1.0000   1.0000   1.0000   1.0000   1.0000   1.0000
     1.0000   1.0000   1.0000   1.0000   1.0000   1.0000   1.0000   1.0000
     1.0000   1.0000   1.0000   1.0000   1.0000   1.0000   1.0000   1.0000
     1.0000   1.0000   1.0000   1.0000   1.0000   1.0000   1.0000   1.0000
     1.0000   1.0000   1.0000   1.0000   1.0000   1.0000   1.0000   1.0000
     1.0000   1.0000   1.0000   1.0000   1.0000   1.0000   1.0000   1.0000
     1.0000   1.0000   1.0000   1.0000   1.0000   1.0000   1.0000   1.0000
     1.0000   1.0000   1.0000   1.0000   1.0000   1.0000   1.0000   1.0000
     1.0000   1.0000   1.0000   1.0000   1.0000   1.0000   1.0000   1.0000
     1.0000   1.0000   1.0000   1.0000   1.0000   1.0000   1.0000   1.0000
     1.0000   1.0000   1.0000   1.0000   1.0000   1.0000   1.0000   1.0000
     1.0000   1.0000   1.0000   1.0000   1.0000   1.0000   1.0000   1.0000
     1.0000   1.0000   1.0000   1.0000   1.0000   1.0000   1.0000   1.0000
     1.0000   1.0000   1.0000   1.0000   1.0000   1.0000   1.0000   1.0000
     1.0000   1.0000   1.0000   1.0000   1.0000   1.0000   1.0000   1.0000
     1.0000   1.0000   1.0000   1.0000   1.0000   1.0000   1.0000   1.0000
     1.0000   1.0000   1.0000   0.0000   0.0000   0.0000   0.0000   0.0000
     0.0000   0.0000   0.0000   0.0000   0.0000   0.0000   0.0000   0.0000
     0.0000   0.0000   0.0000   0.0000   0.0000   0.0000   0.0000   0.0000
     0.0000   0.0000   0.0000   0.0000   0.0000

          k = 0.0000 0.1921 0.0000 ( 25933 PWs)   bands (ev):

   -78.3632 -67.5600 -67.5526 -67.0247 -66.9487 -66.9306 -44.5237 -44.4972
   -44.4174 -34.3318 -34.3151 -34.3118 -34.3003 -34.2976 -34.2938 -33.7829
   -33.7761 -33.7750 -33.7208 -33.7144 -33.7028 -33.6801 -33.6722 -33.6587
   -23.0090 -22.9918 -15.0757 -15.0213 -14.1927 -14.1428 -13.6123 -13.5900
   -13.3598 -13.2405 -13.1744 -13.0662 -12.9415 -12.9134 -12.8967 -12.7632
   -12.7549 -12.6505 -12.4692 -12.3875 -12.2637 -12.2574 -12.2283 -12.1282
   -11.0647 -10.8100  -6.5769  -6.5601  -6.5036  -6.4987  -6.4731  -6.4670
    -4.2361  -4.1793  -2.5394  -2.4364  -1.8237  -1.3597  -1.0858  -1.0629
    -0.9702  -0.9163  -0.7264  -0.6343  -0.4006  -0.3061  -0.2315  -0.1827
    -0.0816   0.1776   0.2091   0.4227   0.5226   0.5449   0.6489   0.8596
     0.9212   1.1334   1.2148   1.3283   1.4058   1.5491   1.6002   1.7034
     1.8624   1.9296   1.9578   2.0662   2.1540   2.2129   2.3252   2.3671
     2.4185   2.4781   2.5141   2.5576   2.6107   2.7001   2.8392   2.8654
     2.8698   2.9554   3.0500   3.0689   3.1951   3.2090   3.2987   3.3926
     3.4226   3.4454   3.4560   3.5931   3.6166   3.6728   3.7784   3.8688
     3.9189   3.9194   3.9370   4.0781   4.1684   4.2736   4.3071   4.6265
     7.8030   7.8615   8.0457   9.1916   9.5017   9.5745  10.4757  10.8689
    11.4605  11.8581  12.2787  12.5682  12.6440  12.8405  12.9516  13.0526
    13.1581  13.2517  13.3050  13.4214  13.5042  13.6044  13.6827  13.7482
    13.7776  13.8337  14.2695  14.3390  14.4435

     occupation numbers 
     1.0000   1.0000   1.0000   1.0000   1.0000   1.0000   1.0000   1.0000
     1.0000   1.0000   1.0000   1.0000   1.0000   1.0000   1.0000   1.0000
     1.0000   1.0000   1.0000   1.0000   1.0000   1.0000   1.0000   1.0000
     1.0000   1.0000   1.0000   1.0000   1.0000   1.0000   1.0000   1.0000
     1.0000   1.0000   1.0000   1.0000   1.0000   1.0000   1.0000   1.0000
     1.0000   1.0000   1.0000   1.0000   1.0000   1.0000   1.0000   1.0000
     1.0000   1.0000   1.0000   1.0000   1.0000   1.0000   1.0000   1.0000
     1.0000   1.0000   1.0000   1.0000   1.0000   1.0000   1.0000   1.0000
     1.0000   1.0000   1.0000   1.0000   1.0000   1.0000   1.0000   1.0000
     1.0000   1.0000   1.0000   1.0000   1.0000   1.0000   1.0000   1.0000
     1.0000   1.0000   1.0000   1.0000   1.0000   1.0000   1.0000   1.0000
     1.0000   1.0000   1.0000   1.0000   1.0000   1.0000   1.0000   1.0000
     1.0000   1.0000   1.0000   1.0000   1.0000   1.0000   1.0000   1.0000
     1.0000   1.0000   1.0000   1.0000   1.0000   1.0000   1.0000   1.0000
     1.0000   1.0000   1.0000   1.0000   1.0000   1.0000   1.0000   1.0000
     1.0000   1.0000   1.0000   1.0000   1.0000   1.0000   1.0000   1.0000
     1.0000   1.0000   1.0000   0.0000   0.0000   0.0000   0.0000   0.0000
     0.0000   0.0000   0.0000   0.0000   0.0000   0.0000   0.0000   0.0000
     0.0000   0.0000   0.0000   0.0000   0.0000   0.0000   0.0000   0.0000
     0.0000   0.0000   0.0000   0.0000   0.0000

          k = 0.0000 0.1921 0.1758 ( 25924 PWs)   bands (ev):

   -78.3632 -67.5600 -67.5526 -67.0247 -66.9487 -66.9306 -44.5237 -44.4971
   -44.4174 -34.3318 -34.3151 -34.3118 -34.3003 -34.2976 -34.2938 -33.7829
   -33.7761 -33.7750 -33.7208 -33.7144 -33.7028 -33.6801 -33.6722 -33.6587
   -23.0090 -22.9918 -15.0627 -15.0352 -14.1806 -14.1556 -13.6130 -13.5892
   -13.3563 -13.2287 -13.1914 -13.0589 -12.9493 -12.9208 -12.8842 -12.7608
   -12.7563 -12.6533 -12.4630 -12.3940 -12.2695 -12.2420 -12.2300 -12.1350
   -11.0644 -10.8106  -6.5769  -6.5602  -6.5036  -6.4987  -6.4730  -6.4670
    -4.2302  -4.1856  -2.5161  -2.4620  -1.7999  -1.3416  -1.0797  -1.0622
    -0.9658  -0.9315  -0.7075  -0.6604  -0.4247  -0.3169  -0.2541  -0.2163
    -0.0414   0.1321   0.1937   0.3869   0.5038   0.5488   0.7031   0.8318
     0.9730   1.1262   1.1911   1.3775   1.4764   1.5380   1.6562   1.7513
     1.8723   1.9183   1.9951   2.0473   2.1244   2.2537   2.3108   2.3697
     2.4106   2.4744   2.5134   2.5161   2.5593   2.7405   2.7664   2.8390
     2.8840   2.9238   3.0732   3.1080   3.1405   3.2086   3.3244   3.3464
     3.4202   3.4479   3.4989   3.5792   3.6220   3.7013   3.7603   3.8426
     3.8892   3.9178   3.9456   4.0849   4.1779   4.2797   4.3244   4.6327
     7.8048   7.8611   8.0437   9.1636   9.5533   9.8104  10.4553  10.6676
    11.1721  11.8350  12.2572  12.6116  12.7407  12.9267  13.0523  13.1427
    13.1822  13.2694  13.3518  13.4263  13.5466  13.6041  13.6364  13.7256
    13.7928  13.9614  14.2120  14.2791  14.3805

     occupation numbers 
     1.0000   1.0000   1.0000   1.0000   1.0000   1.0000   1.0000   1.0000
     1.0000   1.0000   1.0000   1.0000   1.0000   1.0000   1.0000   1.0000
     1.0000   1.0000   1.0000   1.0000   1.0000   1.0000   1.0000   1.0000
     1.0000   1.0000   1.0000   1.0000   1.0000   1.0000   1.0000   1.0000
     1.0000   1.0000   1.0000   1.0000   1.0000   1.0000   1.0000   1.0000
     1.0000   1.0000   1.0000   1.0000   1.0000   1.0000   1.0000   1.0000
     1.0000   1.0000   1.0000   1.0000   1.0000   1.0000   1.0000   1.0000
     1.0000   1.0000   1.0000   1.0000   1.0000   1.0000   1.0000   1.0000
     1.0000   1.0000   1.0000   1.0000   1.0000   1.0000   1.0000   1.0000
     1.0000   1.0000   1.0000   1.0000   1.0000   1.0000   1.0000   1.0000
     1.0000   1.0000   1.0000   1.0000   1.0000   1.0000   1.0000   1.0000
     1.0000   1.0000   1.0000   1.0000   1.0000   1.0000   1.0000   1.0000
     1.0000   1.0000   1.0000   1.0000   1.0000   1.0000   1.0000   1.0000
     1.0000   1.0000   1.0000   1.0000   1.0000   1.0000   1.0000   1.0000
     1.0000   1.0000   1.0000   1.0000   1.0000   1.0000   1.0000   1.0000
     1.0000   1.0000   1.0000   1.0000   1.0000   1.0000   1.0000   1.0000
     1.0000   1.0000   1.0000   0.0000   0.0000   0.0000   0.0000   0.0000
     0.0000   0.0000   0.0000   0.0000   0.0000   0.0000   0.0000   0.0000
     0.0000   0.0000   0.0000   0.0000   0.0000   0.0000   0.0000   0.0000
     0.0000   0.0000   0.0000   0.0000   0.0000

          k = 0.1667 0.0000 0.0301 ( 25941 PWs)   bands (ev):

   -78.3632 -67.5600 -67.5526 -67.0247 -66.9487 -66.9306 -44.5237 -44.4972
   -44.4174 -34.3312 -34.3172 -34.3099 -34.3010 -34.2973 -34.2939 -33.7827
   -33.7762 -33.7751 -33.7208 -33.7146 -33.7024 -33.6797 -33.6720 -33.6595
   -23.0088 -22.9916 -15.0235 -14.9700 -14.1775 -14.1327 -13.7276 -13.6985
   -13.3503 -13.2482 -13.1911 -13.0297 -12.9443 -12.8461 -12.8057 -12.7758
   -12.7644 -12.6586 -12.4873 -12.4074 -12.3358 -12.2811 -12.2258 -12.1157
   -11.0623 -10.8153  -6.5804  -6.5602  -6.5028  -6.4988  -6.4718  -6.4630
    -4.1167  -4.0580  -2.3653  -2.2700  -1.8455  -1.4442  -1.4167  -1.2410
    -0.8737  -0.7956  -0.6491  -0.6091  -0.4091  -0.3652  -0.2994  -0.2043
     0.0250   0.1518   0.2491   0.3660   0.5238   0.6348   0.6483   0.7015
     1.0603   1.1510   1.2919   1.3440   1.3758   1.4996   1.5493   1.6507
     1.7263   1.9185   1.9250   1.9876   2.0850   2.2880   2.3138   2.3579
     2.3721   2.5038   2.5385   2.6272   2.6820   2.6919   2.7098   2.8410
     2.9109   2.9477   3.0105   3.0841   3.1971   3.2160   3.2655   3.3492
     3.3824   3.4107   3.5513   3.6277   3.6351   3.7025   3.7355   3.8202
     3.8608   3.8954   3.9386   4.0465   4.1200   4.3017   4.4783   4.5450
     7.8027   7.8553   8.0225   9.2309   9.4347   9.5436  10.8076  11.3402
    11.7057  11.9525  12.1413  12.4008  12.5667  12.7975  12.9199  13.0243
    13.1340  13.2694  13.3026  13.4701  13.5673  13.5974  13.6695  13.7970
    13.8668  14.1317  14.1495  14.2559  14.3368

     occupation numbers 
     1.0000   1.0000   1.0000   1.0000   1.0000   1.0000   1.0000   1.0000
     1.0000   1.0000   1.0000   1.0000   1.0000   1.0000   1.0000   1.0000
     1.0000   1.0000   1.0000   1.0000   1.0000   1.0000   1.0000   1.0000
     1.0000   1.0000   1.0000   1.0000   1.0000   1.0000   1.0000   1.0000
     1.0000   1.0000   1.0000   1.0000   1.0000   1.0000   1.0000   1.0000
     1.0000   1.0000   1.0000   1.0000   1.0000   1.0000   1.0000   1.0000
     1.0000   1.0000   1.0000   1.0000   1.0000   1.0000   1.0000   1.0000
     1.0000   1.0000   1.0000   1.0000   1.0000   1.0000   1.0000   1.0000
     1.0000   1.0000   1.0000   1.0000   1.0000   1.0000   1.0000   1.0000
     1.0000   1.0000   1.0000   1.0000   1.0000   1.0000   1.0000   1.0000
     1.0000   1.0000   1.0000   1.0000   1.0000   1.0000   1.0000   1.0000
     1.0000   1.0000   1.0000   1.0000   1.0000   1.0000   1.0000   1.0000
     1.0000   1.0000   1.0000   1.0000   1.0000   1.0000   1.0000   1.0000
     1.0000   1.0000   1.0000   1.0000   1.0000   1.0000   1.0000   1.0000
     1.0000   1.0000   1.0000   1.0000   1.0000   1.0000   1.0000   1.0000
     1.0000   1.0000   1.0000   1.0000   1.0000   1.0000   1.0000   1.0000
     1.0000   1.0000   1.0000   0.0000   0.0000   0.0000   0.0000   0.0000
     0.0000   0.0000   0.0000   0.0000   0.0000   0.0000   0.0000   0.0000
     0.0000   0.0000   0.0000   0.0000   0.0000   0.0000   0.0000   0.0000
     0.0000   0.0000   0.0000   0.0000   0.0000

          k = 0.1667 0.0000 0.2059 ( 25961 PWs)   bands (ev):

   -78.3632 -67.5600 -67.5526 -67.0247 -66.9487 -66.9306 -44.5237 -44.4972
   -44.4174 -34.3312 -34.3172 -34.3099 -34.3010 -34.2973 -34.2939 -33.7827
   -33.7762 -33.7752 -33.7208 -33.7147 -33.7025 -33.6797 -33.6720 -33.6595
   -23.0088 -22.9916 -15.0075 -14.9869 -14.1676 -14.1433 -13.7249 -13.7013
   -13.3446 -13.2421 -13.2033 -13.0261 -12.9443 -12.8519 -12.8019 -12.7731
   -12.7656 -12.6601 -12.4812 -12.4151 -12.3266 -12.2912 -12.2135 -12.1249
   -11.0618 -10.8160  -6.5805  -6.5602  -6.5028  -6.4988  -6.4717  -6.4630
    -4.1187  -4.0563  -2.3460  -2.2934  -1.8149  -1.4605  -1.4076  -1.2228
    -0.8758  -0.7890  -0.6735  -0.5859  -0.4224  -0.3402  -0.3153  -0.3002
     0.0664   0.1822   0.1921   0.2977   0.5079   0.6276   0.6455   0.7379
     1.1190   1.1974   1.2477   1.3687   1.3901   1.4921   1.5989   1.6395
     1.7935   1.8942   1.9411   2.0012   2.1514   2.2734   2.3348   2.3543
     2.3880   2.4786   2.4968   2.5388   2.6537   2.6843   2.7344   2.8126
     2.9029   2.9323   3.0588   3.1090   3.1469   3.1989   3.2489   3.3311
     3.3905   3.4281   3.5407   3.6338   3.6606   3.6792   3.7474   3.8239
     3.8515   3.8729   3.9357   4.0792   4.1389   4.2759   4.4795   4.5651
     7.8038   7.8547   8.0218   9.2176   9.4991   9.8437  10.2853  11.3913
    11.7590  11.8527  12.1848  12.2975  12.5184  12.8485  13.0499  13.1618
    13.2259  13.3017  13.3601  13.3883  13.4977  13.6385  13.7195  13.8070
    13.8694  13.9538  14.0931  14.3218  14.3250

     occupation numbers 
     1.0000   1.0000   1.0000   1.0000   1.0000   1.0000   1.0000   1.0000
     1.0000   1.0000   1.0000   1.0000   1.0000   1.0000   1.0000   1.0000
     1.0000   1.0000   1.0000   1.0000   1.0000   1.0000   1.0000   1.0000
     1.0000   1.0000   1.0000   1.0000   1.0000   1.0000   1.0000   1.0000
     1.0000   1.0000   1.0000   1.0000   1.0000   1.0000   1.0000   1.0000
     1.0000   1.0000   1.0000   1.0000   1.0000   1.0000   1.0000   1.0000
     1.0000   1.0000   1.0000   1.0000   1.0000   1.0000   1.0000   1.0000
     1.0000   1.0000   1.0000   1.0000   1.0000   1.0000   1.0000   1.0000
     1.0000   1.0000   1.0000   1.0000   1.0000   1.0000   1.0000   1.0000
     1.0000   1.0000   1.0000   1.0000   1.0000   1.0000   1.0000   1.0000
     1.0000   1.0000   1.0000   1.0000   1.0000   1.0000   1.0000   1.0000
     1.0000   1.0000   1.0000   1.0000   1.0000   1.0000   1.0000   1.0000
     1.0000   1.0000   1.0000   1.0000   1.0000   1.0000   1.0000   1.0000
     1.0000   1.0000   1.0000   1.0000   1.0000   1.0000   1.0000   1.0000
     1.0000   1.0000   1.0000   1.0000   1.0000   1.0000   1.0000   1.0000
     1.0000   1.0000   1.0000   1.0000   1.0000   1.0000   1.0000   1.0000
     1.0000   1.0000   1.0000   0.0000   0.0000   0.0000   0.0000   0.0000
     0.0000   0.0000   0.0000   0.0000   0.0000   0.0000   0.0000   0.0000
     0.0000   0.0000   0.0000   0.0000   0.0000   0.0000   0.0000   0.0000
     0.0000   0.0000   0.0000   0.0000   0.0000

          k = 0.1667 0.0000-0.1457 ( 25956 PWs)   bands (ev):

   -78.3632 -67.5600 -67.5526 -67.0247 -66.9487 -66.9306 -44.5237 -44.4972
   -44.4174 -34.3312 -34.3172 -34.3099 -34.3010 -34.2972 -34.2939 -33.7827
   -33.7762 -33.7752 -33.7208 -33.7146 -33.7024 -33.6797 -33.6720 -33.6595
   -23.0088 -22.9916 -15.0138 -14.9803 -14.1678 -14.1431 -13.7229 -13.7034
   -13.3473 -13.2333 -13.2099 -13.0276 -12.9438 -12.8395 -12.8167 -12.7753
   -12.7593 -12.6624 -12.4772 -12.4176 -12.3185 -12.3002 -12.2141 -12.1233
   -11.0617 -10.8160  -6.5805  -6.5602  -6.5028  -6.4988  -6.4717  -6.4630
    -4.1026  -4.0728  -2.3420  -2.2956  -1.8260  -1.4706  -1.3950  -1.2273
    -0.8611  -0.8085  -0.6458  -0.5831  -0.4301  -0.3804  -0.3067  -0.2655
     0.0294   0.1840   0.2122   0.3042   0.5390   0.6331   0.6790   0.7350
     1.0712   1.1795   1.2381   1.3517   1.4000   1.5152   1.5971   1.6275
     1.7815   1.8925   1.9304   2.0090   2.1218   2.2493   2.3151   2.3656
     2.3858   2.4850   2.5323   2.5677   2.6537   2.6999   2.7376   2.7655
     2.9107   2.9505   3.0477   3.1356   3.1397   3.2181   3.2587   3.3559
     3.4364   3.4545   3.5580   3.5951   3.6322   3.6778   3.7452   3.7589
     3.8546   3.8608   3.9339   4.0576   4.1676   4.2823   4.4836   4.5590
     7.8035   7.8533   8.0233   9.2179   9.5108   9.6572  10.5073  11.4607
    11.7799  11.8336  12.2186  12.2835  12.5494  12.8963  12.9564  13.0714
    13.1558  13.2471  13.3218  13.4322  13.4900  13.6362  13.6642  13.7947
    13.8995  14.0505  14.1736  14.3156  14.3280

     occupation numbers 
     1.0000   1.0000   1.0000   1.0000   1.0000   1.0000   1.0000   1.0000
     1.0000   1.0000   1.0000   1.0000   1.0000   1.0000   1.0000   1.0000
     1.0000   1.0000   1.0000   1.0000   1.0000   1.0000   1.0000   1.0000
     1.0000   1.0000   1.0000   1.0000   1.0000   1.0000   1.0000   1.0000
     1.0000   1.0000   1.0000   1.0000   1.0000   1.0000   1.0000   1.0000
     1.0000   1.0000   1.0000   1.0000   1.0000   1.0000   1.0000   1.0000
     1.0000   1.0000   1.0000   1.0000   1.0000   1.0000   1.0000   1.0000
     1.0000   1.0000   1.0000   1.0000   1.0000   1.0000   1.0000   1.0000
     1.0000   1.0000   1.0000   1.0000   1.0000   1.0000   1.0000   1.0000
     1.0000   1.0000   1.0000   1.0000   1.0000   1.0000   1.0000   1.0000
     1.0000   1.0000   1.0000   1.0000   1.0000   1.0000   1.0000   1.0000
     1.0000   1.0000   1.0000   1.0000   1.0000   1.0000   1.0000   1.0000
     1.0000   1.0000   1.0000   1.0000   1.0000   1.0000   1.0000   1.0000
     1.0000   1.0000   1.0000   1.0000   1.0000   1.0000   1.0000   1.0000
     1.0000   1.0000   1.0000   1.0000   1.0000   1.0000   1.0000   1.0000
     1.0000   1.0000   1.0000   1.0000   1.0000   1.0000   1.0000   1.0000
     1.0000   1.0000   1.0000   0.0000   0.0000   0.0000   0.0000   0.0000
     0.0000   0.0000   0.0000   0.0000   0.0000   0.0000   0.0000   0.0000
     0.0000   0.0000   0.0000   0.0000   0.0000   0.0000   0.0000   0.0000
     0.0000   0.0000   0.0000   0.0000   0.0000

          k = 0.1667 0.1921 0.0301 ( 25937 PWs)   bands (ev):

   -78.3632 -67.5600 -67.5526 -67.0247 -66.9487 -66.9306 -44.5237 -44.4972
   -44.4174 -34.3312 -34.3172 -34.3099 -34.3010 -34.2972 -34.2939 -33.7827
   -33.7762 -33.7751 -33.7208 -33.7146 -33.7024 -33.6797 -33.6720 -33.6595
   -23.0088 -22.9916 -15.0188 -14.9653 -14.2048 -14.1572 -13.7160 -13.6897
   -13.3321 -13.1971 -13.1211 -13.0347 -12.9487 -12.9087 -12.8804 -12.7755
   -12.7543 -12.6626 -12.4861 -12.3971 -12.3284 -12.2833 -12.2231 -12.1144
   -11.0614 -10.8149  -6.5774  -6.5637  -6.5026  -6.4974  -6.4727  -6.4635
    -4.0817  -4.0222  -2.5209  -2.4204  -1.7916  -1.3662  -1.2803  -1.2301
    -0.8711  -0.7928  -0.7373  -0.5947  -0.4121  -0.2755  -0.2471  -0.1531
    -0.0243   0.1446   0.1907   0.3929   0.4816   0.5908   0.6380   0.7118
     1.0590   1.1016   1.2648   1.3297   1.3839   1.4851   1.5663   1.6435
     1.7708   1.9028   1.9213   2.0666   2.1406   2.2575   2.3035   2.3913
     2.4473   2.4877   2.5533   2.5828   2.6503   2.7051   2.8191   2.8407
     2.9001   2.9849   3.0585   3.0968   3.1798   3.2112   3.2619   3.3478
     3.3953   3.4395   3.4620   3.5889   3.6228   3.6552   3.7427   3.7936
     3.8164   3.8922   3.9715   4.0438   4.1133   4.2768   4.3502   4.5749
     7.8071   7.8613   8.0216   9.2010   9.5394   9.8025  10.6477  11.0277
    11.5615  11.8995  12.2513  12.6010  12.6533  12.8032  13.0087  13.0497
    13.1583  13.2431  13.2977  13.4232  13.4703  13.5740  13.6293  13.7626
    13.9041  13.9934  14.2117  14.3593  14.5271

     occupation numbers 
     1.0000   1.0000   1.0000   1.0000   1.0000   1.0000   1.0000   1.0000
     1.0000   1.0000   1.0000   1.0000   1.0000   1.0000   1.0000   1.0000
     1.0000   1.0000   1.0000   1.0000   1.0000   1.0000   1.0000   1.0000
     1.0000   1.0000   1.0000   1.0000   1.0000   1.0000   1.0000   1.0000
     1.0000   1.0000   1.0000   1.0000   1.0000   1.0000   1.0000   1.0000
     1.0000   1.0000   1.0000   1.0000   1.0000   1.0000   1.0000   1.0000
     1.0000   1.0000   1.0000   1.0000   1.0000   1.0000   1.0000   1.0000
     1.0000   1.0000   1.0000   1.0000   1.0000   1.0000   1.0000   1.0000
     1.0000   1.0000   1.0000   1.0000   1.0000   1.0000   1.0000   1.0000
     1.0000   1.0000   1.0000   1.0000   1.0000   1.0000   1.0000   1.0000
     1.0000   1.0000   1.0000   1.0000   1.0000   1.0000   1.0000   1.0000
     1.0000   1.0000   1.0000   1.0000   1.0000   1.0000   1.0000   1.0000
     1.0000   1.0000   1.0000   1.0000   1.0000   1.0000   1.0000   1.0000
     1.0000   1.0000   1.0000   1.0000   1.0000   1.0000   1.0000   1.0000
     1.0000   1.0000   1.0000   1.0000   1.0000   1.0000   1.0000   1.0000
     1.0000   1.0000   1.0000   1.0000   1.0000   1.0000   1.0000   1.0000
     1.0000   1.0000   1.0000   0.0000   0.0000   0.0000   0.0000   0.0000
     0.0000   0.0000   0.0000   0.0000   0.0000   0.0000   0.0000   0.0000
     0.0000   0.0000   0.0000   0.0000   0.0000   0.0000   0.0000   0.0000
     0.0000   0.0000   0.0000   0.0000   0.0000

          k = 0.1667 0.1921 0.2059 ( 25944 PWs)   bands (ev):

   -78.3632 -67.5600 -67.5526 -67.0247 -66.9487 -66.9306 -44.5237 -44.4972
   -44.4174 -34.3312 -34.3172 -34.3099 -34.3010 -34.2972 -34.2939 -33.7827
   -33.7762 -33.7751 -33.7208 -33.7146 -33.7024 -33.6797 -33.6720 -33.6595
   -23.0088 -22.9916 -15.0027 -14.9824 -14.1929 -14.1700 -13.7149 -13.6908
   -13.3284 -13.1847 -13.1401 -13.0260 -12.9502 -12.9221 -12.8672 -12.7712
   -12.7596 -12.6638 -12.4810 -12.4047 -12.3227 -12.2892 -12.2114 -12.1234
   -11.0610 -10.8156  -6.5775  -6.5637  -6.5026  -6.4973  -6.4726  -6.4634
    -4.0806  -4.0235  -2.4973  -2.4466  -1.7681  -1.3441  -1.3072  -1.2105
    -0.8745  -0.7811  -0.7469  -0.5842  -0.4330  -0.3389  -0.2272  -0.1853
     0.0131   0.1009   0.1977   0.3446   0.4702   0.5889   0.6462   0.7200
     1.0770   1.1134   1.2424   1.3992   1.4067   1.4985   1.6057   1.7284
     1.8018   1.8442   1.9220   2.0496   2.1492   2.2607   2.3147   2.3967
     2.4680   2.4801   2.5371   2.5485   2.5941   2.7389   2.7714   2.8353
     2.8872   2.9553   3.0549   3.1268   3.1431   3.2095   3.2855   3.3319
     3.3835   3.4303   3.4827   3.5715   3.6374   3.6628   3.7170   3.7816
     3.8269   3.9139   3.9369   4.0805   4.1297   4.2630   4.3627   4.5881
     7.8087   7.8604   8.0203   9.1832   9.5335  10.1189  10.5751  10.8443
    11.2694  11.8698  12.2276  12.5814  12.7284  12.8505  13.0718  13.2145
    13.2322  13.2885  13.3568  13.4124  13.5003  13.6012  13.6737  13.7495
    13.8286  14.0020  14.1559  14.2686  14.5003

     occupation numbers 
     1.0000   1.0000   1.0000   1.0000   1.0000   1.0000   1.0000   1.0000
     1.0000   1.0000   1.0000   1.0000   1.0000   1.0000   1.0000   1.0000
     1.0000   1.0000   1.0000   1.0000   1.0000   1.0000   1.0000   1.0000
     1.0000   1.0000   1.0000   1.0000   1.0000   1.0000   1.0000   1.0000
     1.0000   1.0000   1.0000   1.0000   1.0000   1.0000   1.0000   1.0000
     1.0000   1.0000   1.0000   1.0000   1.0000   1.0000   1.0000   1.0000
     1.0000   1.0000   1.0000   1.0000   1.0000   1.0000   1.0000   1.0000
     1.0000   1.0000   1.0000   1.0000   1.0000   1.0000   1.0000   1.0000
     1.0000   1.0000   1.0000   1.0000   1.0000   1.0000   1.0000   1.0000
     1.0000   1.0000   1.0000   1.0000   1.0000   1.0000   1.0000   1.0000
     1.0000   1.0000   1.0000   1.0000   1.0000   1.0000   1.0000   1.0000
     1.0000   1.0000   1.0000   1.0000   1.0000   1.0000   1.0000   1.0000
     1.0000   1.0000   1.0000   1.0000   1.0000   1.0000   1.0000   1.0000
     1.0000   1.0000   1.0000   1.0000   1.0000   1.0000   1.0000   1.0000
     1.0000   1.0000   1.0000   1.0000   1.0000   1.0000   1.0000   1.0000
     1.0000   1.0000   1.0000   1.0000   1.0000   1.0000   1.0000   1.0000
     1.0000   1.0000   1.0000   0.0000   0.0000   0.0000   0.0000   0.0000
     0.0000   0.0000   0.0000   0.0000   0.0000   0.0000   0.0000   0.0000
     0.0000   0.0000   0.0000   0.0000   0.0000   0.0000   0.0000   0.0000
     0.0000   0.0000   0.0000   0.0000   0.0000

          k = 0.1667 0.1921-0.1457 ( 25923 PWs)   bands (ev):

   -78.3632 -67.5600 -67.5526 -67.0247 -66.9487 -66.9306 -44.5237 -44.4971
   -44.4174 -34.3312 -34.3172 -34.3099 -34.3010 -34.2972 -34.2939 -33.7827
   -33.7762 -33.7751 -33.7208 -33.7146 -33.7024 -33.6797 -33.6720 -33.6595
   -23.0088 -22.9916 -15.0091 -14.9757 -14.1944 -14.1684 -13.7118 -13.6940
   -13.3297 -13.1861 -13.1357 -13.0298 -12.9491 -12.9162 -12.8754 -12.7716
   -12.7558 -12.6660 -12.4772 -12.4064 -12.3124 -12.3010 -12.2117 -12.1220
   -11.0608 -10.8156  -6.5775  -6.5638  -6.5026  -6.4973  -6.4726  -6.4634
    -4.0656  -4.0388  -2.4974  -2.4458  -1.7761  -1.3634  -1.2904  -1.2122
    -0.8528  -0.8083  -0.7122  -0.6080  -0.4336  -0.3113  -0.2446  -0.1794
    -0.0125   0.1265   0.1640   0.3743   0.4977   0.5853   0.6752   0.7289
     1.0512   1.0905   1.2388   1.3633   1.4111   1.5074   1.5949   1.6872
     1.8037   1.8749   1.9224   2.0727   2.1454   2.2059   2.3337   2.4039
     2.4470   2.4929   2.5186   2.5580   2.6149   2.7490   2.7714   2.8159
     2.8909   2.9852   3.0567   3.1083   3.1721   3.1995   3.2978   3.3696
     3.4031   3.4349   3.5068   3.5626   3.5956   3.6921   3.7373   3.7584
     3.8317   3.8646   3.9102   4.0783   4.1378   4.2590   4.3658   4.5829
     7.8080   7.8594   8.0224   9.1776   9.5348   9.9995  10.7418  10.8148
    11.3370  11.9476  12.2723  12.5543  12.6652  12.8421  13.0187  13.1318
    13.2145  13.2524  13.3494  13.4098  13.5217  13.5746  13.6282  13.8406
    13.8834  13.9454  14.0849  14.3214  14.4577

     occupation numbers 
     1.0000   1.0000   1.0000   1.0000   1.0000   1.0000   1.0000   1.0000
     1.0000   1.0000   1.0000   1.0000   1.0000   1.0000   1.0000   1.0000
     1.0000   1.0000   1.0000   1.0000   1.0000   1.0000   1.0000   1.0000
     1.0000   1.0000   1.0000   1.0000   1.0000   1.0000   1.0000   1.0000
     1.0000   1.0000   1.0000   1.0000   1.0000   1.0000   1.0000   1.0000
     1.0000   1.0000   1.0000   1.0000   1.0000   1.0000   1.0000   1.0000
     1.0000   1.0000   1.0000   1.0000   1.0000   1.0000   1.0000   1.0000
     1.0000   1.0000   1.0000   1.0000   1.0000   1.0000   1.0000   1.0000
     1.0000   1.0000   1.0000   1.0000   1.0000   1.0000   1.0000   1.0000
     1.0000   1.0000   1.0000   1.0000   1.0000   1.0000   1.0000   1.0000
     1.0000   1.0000   1.0000   1.0000   1.0000   1.0000   1.0000   1.0000
     1.0000   1.0000   1.0000   1.0000   1.0000   1.0000   1.0000   1.0000
     1.0000   1.0000   1.0000   1.0000   1.0000   1.0000   1.0000   1.0000
     1.0000   1.0000   1.0000   1.0000   1.0000   1.0000   1.0000   1.0000
     1.0000   1.0000   1.0000   1.0000   1.0000   1.0000   1.0000   1.0000
     1.0000   1.0000   1.0000   1.0000   1.0000   1.0000   1.0000   1.0000
     1.0000   1.0000   1.0000   0.0000   0.0000   0.0000   0.0000   0.0000
     0.0000   0.0000   0.0000   0.0000   0.0000   0.0000   0.0000   0.0000
     0.0000   0.0000   0.0000   0.0000   0.0000   0.0000   0.0000   0.0000
     0.0000   0.0000   0.0000   0.0000   0.0000

          k = 0.3333 0.0000 0.0601 ( 25907 PWs)   bands (ev):

   -78.3632 -67.5599 -67.5527 -67.0247 -66.9487 -66.9306 -44.5237 -44.4972
   -44.4174 -34.3297 -34.3202 -34.3074 -34.3023 -34.2965 -34.2943 -33.7823
   -33.7762 -33.7755 -33.7200 -33.7157 -33.7016 -33.6789 -33.6714 -33.6614
   -23.0085 -22.9913 -14.8682 -14.8176 -14.2840 -14.2441 -13.8598 -13.8258
   -13.2690 -13.1288 -13.0568 -13.0423 -12.9408 -12.8884 -12.8258 -12.7869
   -12.7662 -12.6735 -12.5371 -12.4688 -12.4073 -12.3262 -12.2103 -12.1073
   -11.0560 -10.8253  -6.5799  -6.5689  -6.4997  -6.4957  -6.4721  -6.4562
    -3.7063  -3.6381  -2.5044  -2.3982  -1.8295  -1.6455  -1.4222  -1.1789
    -0.8904  -0.7051  -0.6697  -0.6523  -0.3650  -0.3276  -0.2177  -0.1875
    -0.0541   0.1337   0.2760   0.4011   0.4989   0.6135   0.6427   0.6698
     0.9746   1.1371   1.2573   1.3141   1.4050   1.4696   1.5697   1.6216
     1.6608   1.6843   1.8108   1.9697   2.0708   2.3069   2.3364   2.4111
     2.4476   2.5567   2.5613   2.6517   2.7084   2.7518   2.8086   2.8491
     2.9121   2.9707   3.0057   3.1009   3.1677   3.2113   3.2340   3.2822
     3.3124   3.4345   3.4766   3.5421   3.6013   3.6205   3.6585   3.7233
     3.7944   3.8159   3.9814   4.0177   4.0677   4.3300   4.4248   4.4700
     7.8111   7.8546   7.9752   9.2451   9.4986  10.2362  11.2260  11.4487
    11.9090  12.0296  12.1480  12.2856  12.6514  12.7323  12.7531  12.9918
    13.1377  13.2216  13.4616  13.4756  13.5100  13.5735  13.7312  13.9356
    13.9521  14.1776  14.2247  14.3182  14.4398

     occupation numbers 
     1.0000   1.0000   1.0000   1.0000   1.0000   1.0000   1.0000   1.0000
     1.0000   1.0000   1.0000   1.0000   1.0000   1.0000   1.0000   1.0000
     1.0000   1.0000   1.0000   1.0000   1.0000   1.0000   1.0000   1.0000
     1.0000   1.0000   1.0000   1.0000   1.0000   1.0000   1.0000   1.0000
     1.0000   1.0000   1.0000   1.0000   1.0000   1.0000   1.0000   1.0000
     1.0000   1.0000   1.0000   1.0000   1.0000   1.0000   1.0000   1.0000
     1.0000   1.0000   1.0000   1.0000   1.0000   1.0000   1.0000   1.0000
     1.0000   1.0000   1.0000   1.0000   1.0000   1.0000   1.0000   1.0000
     1.0000   1.0000   1.0000   1.0000   1.0000   1.0000   1.0000   1.0000
     1.0000   1.0000   1.0000   1.0000   1.0000   1.0000   1.0000   1.0000
     1.0000   1.0000   1.0000   1.0000   1.0000   1.0000   1.0000   1.0000
     1.0000   1.0000   1.0000   1.0000   1.0000   1.0000   1.0000   1.0000
     1.0000   1.0000   1.0000   1.0000   1.0000   1.0000   1.0000   1.0000
     1.0000   1.0000   1.0000   1.0000   1.0000   1.0000   1.0000   1.0000
     1.0000   1.0000   1.0000   1.0000   1.0000   1.0000   1.0000   1.0000
     1.0000   1.0000   1.0000   1.0000   1.0000   1.0000   1.0000   1.0000
     1.0000   1.0000   1.0000   0.0000   0.0000   0.0000   0.0000   0.0000
     0.0000   0.0000   0.0000   0.0000   0.0000   0.0000   0.0000   0.0000
     0.0000   0.0000   0.0000   0.0000   0.0000   0.0000   0.0000   0.0000
     0.0000   0.0000   0.0000   0.0000   0.0000

          k = 0.3333 0.0000 0.2360 ( 25948 PWs)   bands (ev):

   -78.3632 -67.5599 -67.5527 -67.0247 -66.9487 -66.9306 -44.5237 -44.4972
   -44.4174 -34.3297 -34.3202 -34.3074 -34.3023 -34.2965 -34.2943 -33.7823
   -33.7762 -33.7755 -33.7201 -33.7158 -33.7017 -33.6789 -33.6714 -33.6614
   -23.0085 -22.9913 -14.8502 -14.8366 -14.2805 -14.2477 -13.8545 -13.8316
   -13.2655 -13.1191 -13.0706 -13.0436 -12.9369 -12.8837 -12.8343 -12.7913
   -12.7592 -12.6738 -12.5314 -12.4792 -12.3910 -12.3380 -12.1996 -12.1169
   -11.0551 -10.8262  -6.5801  -6.5689  -6.4996  -6.4957  -6.4720  -6.4562
    -3.7088  -3.6356  -2.4781  -2.4277  -1.8035  -1.6815  -1.3957  -1.1636
    -0.8943  -0.7083  -0.6653  -0.6330  -0.3609  -0.3210  -0.2803  -0.2238
    -0.0001   0.0705   0.2783   0.3657   0.5047   0.5981   0.6507   0.6892
     1.0457   1.1492   1.2318   1.3307   1.3412   1.4868   1.5967   1.6493
     1.7067   1.7185   1.7636   2.0104   2.1079   2.2555   2.3543   2.4030
     2.4277   2.4645   2.6067   2.6473   2.7198   2.7365   2.7870   2.8374
     2.9248   2.9383   3.0378   3.1209   3.1265   3.1652   3.2452   3.3200
     3.3328   3.4544   3.4731   3.5415   3.5912   3.6239   3.6268   3.7310
     3.7856   3.8505   3.9107   4.0268   4.1150   4.3048   4.4443   4.4898
     7.8115   7.8517   7.9760   9.2361   9.4928  10.5642  10.7821  11.5126
    11.9163  11.9914  12.1479  12.3248  12.5878  12.6778  12.7674  12.9065
    13.2526  13.3169  13.4309  13.4395  13.5646  13.6013  13.8531  13.9077
    13.9625  14.0009  14.0480  14.4660  14.5602

     occupation numbers 
     1.0000   1.0000   1.0000   1.0000   1.0000   1.0000   1.0000   1.0000
     1.0000   1.0000   1.0000   1.0000   1.0000   1.0000   1.0000   1.0000
     1.0000   1.0000   1.0000   1.0000   1.0000   1.0000   1.0000   1.0000
     1.0000   1.0000   1.0000   1.0000   1.0000   1.0000   1.0000   1.0000
     1.0000   1.0000   1.0000   1.0000   1.0000   1.0000   1.0000   1.0000
     1.0000   1.0000   1.0000   1.0000   1.0000   1.0000   1.0000   1.0000
     1.0000   1.0000   1.0000   1.0000   1.0000   1.0000   1.0000   1.0000
     1.0000   1.0000   1.0000   1.0000   1.0000   1.0000   1.0000   1.0000
     1.0000   1.0000   1.0000   1.0000   1.0000   1.0000   1.0000   1.0000
     1.0000   1.0000   1.0000   1.0000   1.0000   1.0000   1.0000   1.0000
     1.0000   1.0000   1.0000   1.0000   1.0000   1.0000   1.0000   1.0000
     1.0000   1.0000   1.0000   1.0000   1.0000   1.0000   1.0000   1.0000
     1.0000   1.0000   1.0000   1.0000   1.0000   1.0000   1.0000   1.0000
     1.0000   1.0000   1.0000   1.0000   1.0000   1.0000   1.0000   1.0000
     1.0000   1.0000   1.0000   1.0000   1.0000   1.0000   1.0000   1.0000
     1.0000   1.0000   1.0000   1.0000   1.0000   1.0000   1.0000   1.0000
     1.0000   1.0000   1.0000   0.0000   0.0000   0.0000   0.0000   0.0000
     0.0000   0.0000   0.0000   0.0000   0.0000   0.0000   0.0000   0.0000
     0.0000   0.0000   0.0000   0.0000   0.0000   0.0000   0.0000   0.0000
     0.0000   0.0000   0.0000   0.0000   0.0000

          k = 0.3333 0.0000-0.1157 ( 25913 PWs)   bands (ev):

   -78.3632 -67.5599 -67.5527 -67.0247 -66.9487 -66.9306 -44.5237 -44.4972
   -44.4174 -34.3297 -34.3202 -34.3074 -34.3023 -34.2965 -34.2943 -33.7823
   -33.7762 -33.7755 -33.7200 -33.7157 -33.7016 -33.6789 -33.6714 -33.6614
   -23.0085 -22.9913 -14.8617 -14.8246 -14.2748 -14.2539 -13.8546 -13.8313
   -13.2685 -13.1137 -13.0749 -13.0434 -12.9373 -12.8755 -12.8423 -12.7818
   -12.7663 -12.6767 -12.5257 -12.4838 -12.3879 -12.3404 -12.2012 -12.1150
   -11.0550 -10.8262  -6.5801  -6.5690  -6.4996  -6.4957  -6.4720  -6.4562
    -3.6767  -3.6687  -2.4934  -2.4112  -1.8145  -1.6640  -1.4157  -1.1697
    -0.8764  -0.7015  -0.6719  -0.6313  -0.3672  -0.3255  -0.2705  -0.2041
    -0.0626   0.1087   0.3066   0.3527   0.5316   0.6015   0.6570   0.6916
     1.0279   1.1273   1.2362   1.3243   1.3879   1.4577   1.6082   1.6317
     1.6438   1.6867   1.8297   1.9748   2.0891   2.2550   2.3279   2.3988
     2.4395   2.5350   2.5985   2.6595   2.7215   2.7428   2.7916   2.8076
     2.9263   2.9511   3.0065   3.0885   3.1501   3.2131   3.2521   3.3309
     3.4252   3.4410   3.4886   3.5371   3.5978   3.6051   3.6597   3.7008
     3.7424   3.8173   3.8809   4.0094   4.1331   4.3237   4.4323   4.4923
     7.8111   7.8504   7.9770   9.2361   9.5099  10.2798  11.1088  11.5916
    11.8571  12.0724  12.1616  12.3504  12.5743  12.6612  12.8086  12.9084
    13.1368  13.2514  13.3616  13.5053  13.5417  13.5866  13.6460  13.8730
    14.0260  14.1156  14.2250  14.3865  14.5059

     occupation numbers 
     1.0000   1.0000   1.0000   1.0000   1.0000   1.0000   1.0000   1.0000
     1.0000   1.0000   1.0000   1.0000   1.0000   1.0000   1.0000   1.0000
     1.0000   1.0000   1.0000   1.0000   1.0000   1.0000   1.0000   1.0000
     1.0000   1.0000   1.0000   1.0000   1.0000   1.0000   1.0000   1.0000
     1.0000   1.0000   1.0000   1.0000   1.0000   1.0000   1.0000   1.0000
     1.0000   1.0000   1.0000   1.0000   1.0000   1.0000   1.0000   1.0000
     1.0000   1.0000   1.0000   1.0000   1.0000   1.0000   1.0000   1.0000
     1.0000   1.0000   1.0000   1.0000   1.0000   1.0000   1.0000   1.0000
     1.0000   1.0000   1.0000   1.0000   1.0000   1.0000   1.0000   1.0000
     1.0000   1.0000   1.0000   1.0000   1.0000   1.0000   1.0000   1.0000
     1.0000   1.0000   1.0000   1.0000   1.0000   1.0000   1.0000   1.0000
     1.0000   1.0000   1.0000   1.0000   1.0000   1.0000   1.0000   1.0000
     1.0000   1.0000   1.0000   1.0000   1.0000   1.0000   1.0000   1.0000
     1.0000   1.0000   1.0000   1.0000   1.0000   1.0000   1.0000   1.0000
     1.0000   1.0000   1.0000   1.0000   1.0000   1.0000   1.0000   1.0000
     1.0000   1.0000   1.0000   1.0000   1.0000   1.0000   1.0000   1.0000
     1.0000   1.0000   1.0000   0.0000   0.0000   0.0000   0.0000   0.0000
     0.0000   0.0000   0.0000   0.0000   0.0000   0.0000   0.0000   0.0000
     0.0000   0.0000   0.0000   0.0000   0.0000   0.0000   0.0000   0.0000
     0.0000   0.0000   0.0000   0.0000   0.0000

          k = 0.3333 0.1921 0.0601 ( 25923 PWs)   bands (ev):

   -78.3632 -67.5599 -67.5527 -67.0247 -66.9487 -66.9306 -44.5237 -44.4972
   -44.4174 -34.3297 -34.3202 -34.3074 -34.3023 -34.2965 -34.2943 -33.7823
   -33.7762 -33.7755 -33.7200 -33.7157 -33.7016 -33.6789 -33.6714 -33.6614
   -23.0085 -22.9913 -14.8647 -14.8140 -14.2953 -14.2539 -13.8558 -13.8242
   -13.2599 -13.1180 -13.0427 -13.0069 -12.9415 -12.9138 -12.8636 -12.7989
   -12.7546 -12.6875 -12.5304 -12.4559 -12.4062 -12.3315 -12.2090 -12.1072
   -11.0555 -10.8253  -6.5788  -6.5711  -6.4999  -6.4950  -6.4718  -6.4564
    -3.6849  -3.6170  -2.6054  -2.5080  -1.7592  -1.5426  -1.3773  -1.1864
    -0.9011  -0.7242  -0.6777  -0.6010  -0.4108  -0.2580  -0.2188  -0.0988
    -0.0550   0.0796   0.2503   0.4061   0.5017   0.5774   0.6090   0.6549
     0.9615   1.0358   1.2852   1.3451   1.4095   1.4829   1.5397   1.6210
     1.6451   1.7234   1.8239   1.9443   2.1139   2.2852   2.3485   2.4004
     2.4604   2.5273   2.5952   2.6266   2.6804   2.7652   2.8162   2.8458
     2.9282   3.0279   3.0531   3.1116   3.1661   3.2241   3.2655   3.3038
     3.3363   3.4118   3.4725   3.5085   3.5750   3.6079   3.6493   3.6942
     3.7333   3.8686   3.9648   4.0321   4.0657   4.3093   4.3817   4.4737
     7.8144   7.8602   7.9737   9.2213   9.5174  10.4780  11.0718  11.3969
    11.8081  11.9031  12.0920  12.4723  12.5102  12.7112  12.8326  13.0584
    13.1888  13.2417  13.4003  13.4262  13.5148  13.6256  13.7138  13.9065
    14.0789  14.2242  14.2607  14.3568  14.4181

     occupation numbers 
     1.0000   1.0000   1.0000   1.0000   1.0000   1.0000   1.0000   1.0000
     1.0000   1.0000   1.0000   1.0000   1.0000   1.0000   1.0000   1.0000
     1.0000   1.0000   1.0000   1.0000   1.0000   1.0000   1.0000   1.0000
     1.0000   1.0000   1.0000   1.0000   1.0000   1.0000   1.0000   1.0000
     1.0000   1.0000   1.0000   1.0000   1.0000   1.0000   1.0000   1.0000
     1.0000   1.0000   1.0000   1.0000   1.0000   1.0000   1.0000   1.0000
     1.0000   1.0000   1.0000   1.0000   1.0000   1.0000   1.0000   1.0000
     1.0000   1.0000   1.0000   1.0000   1.0000   1.0000   1.0000   1.0000
     1.0000   1.0000   1.0000   1.0000   1.0000   1.0000   1.0000   1.0000
     1.0000   1.0000   1.0000   1.0000   1.0000   1.0000   1.0000   1.0000
     1.0000   1.0000   1.0000   1.0000   1.0000   1.0000   1.0000   1.0000
     1.0000   1.0000   1.0000   1.0000   1.0000   1.0000   1.0000   1.0000
     1.0000   1.0000   1.0000   1.0000   1.0000   1.0000   1.0000   1.0000
     1.0000   1.0000   1.0000   1.0000   1.0000   1.0000   1.0000   1.0000
     1.0000   1.0000   1.0000   1.0000   1.0000   1.0000   1.0000   1.0000
     1.0000   1.0000   1.0000   1.0000   1.0000   1.0000   1.0000   1.0000
     1.0000   1.0000   1.0000   0.0000   0.0000   0.0000   0.0000   0.0000
     0.0000   0.0000   0.0000   0.0000   0.0000   0.0000   0.0000   0.0000
     0.0000   0.0000   0.0000   0.0000   0.0000   0.0000   0.0000   0.0000
     0.0000   0.0000   0.0000   0.0000   0.0000

          k = 0.3333 0.1921 0.2360 ( 25909 PWs)   bands (ev):

   -78.3632 -67.5599 -67.5527 -67.0247 -66.9487 -66.9306 -44.5237 -44.4972
   -44.4174 -34.3297 -34.3202 -34.3074 -34.3023 -34.2965 -34.2943 -33.7823
   -33.7762 -33.7755 -33.7200 -33.7157 -33.7016 -33.6789 -33.6714 -33.6614
   -23.0085 -22.9913 -14.8469 -14.8328 -14.2900 -14.2593 -13.8511 -13.8294
   -13.2571 -13.1061 -13.0532 -13.0150 -12.9328 -12.9208 -12.8584 -12.7981
   -12.7572 -12.6872 -12.5234 -12.4704 -12.3905 -12.3409 -12.1984 -12.1166
   -11.0547 -10.8261  -6.5789  -6.5712  -6.4998  -6.4950  -6.4717  -6.4563
    -3.6847  -3.6169  -2.5724  -2.5444  -1.7418  -1.5688  -1.3547  -1.1710
    -0.8981  -0.7456  -0.6285  -0.6137  -0.3958  -0.3353  -0.2019  -0.1290
    -0.0230   0.0308   0.2864   0.3503   0.4982   0.5689   0.6034   0.6730
     0.9821   1.0595   1.2974   1.3099   1.4224   1.4729   1.5992   1.6311
     1.6972   1.7621   1.7978   1.9440   2.1453   2.2200   2.3400   2.4014
     2.4388   2.5321   2.5739   2.6427   2.6835   2.7429   2.8040   2.8493
     2.9064   2.9986   3.0353   3.1096   3.1711   3.2270   3.2803   3.2960
     3.3535   3.4491   3.4715   3.5219   3.5700   3.5866   3.6322   3.7081
     3.7297   3.8944   3.9409   4.0004   4.1143   4.2778   4.3985   4.4959
     7.8150   7.8572   7.9745   9.2109   9.5122  10.7529  11.0174  11.2474
    11.5824  11.8790  12.0668  12.4668  12.6104  12.7292  12.8173  13.0011
    13.1507  13.3480  13.3895  13.4923  13.6149  13.6443  13.8175  13.9205
    14.0006  14.0962  14.1436  14.3151  14.4289

     occupation numbers 
     1.0000   1.0000   1.0000   1.0000   1.0000   1.0000   1.0000   1.0000
     1.0000   1.0000   1.0000   1.0000   1.0000   1.0000   1.0000   1.0000
     1.0000   1.0000   1.0000   1.0000   1.0000   1.0000   1.0000   1.0000
     1.0000   1.0000   1.0000   1.0000   1.0000   1.0000   1.0000   1.0000
[...]
     atom   10 type  7   force =     0.00033816    0.00362303   -0.01187684
     atom   11 type  7   force =    -0.00033815    0.00362303    0.01187679
     atom   12 type  7   force =    -0.00101972   -0.01142522    0.01077219
     atom   13 type  7   force =     0.00101970   -0.01142520   -0.01077232
     atom   14 type  1   force =    -0.00082856   -0.00235778   -0.01068838
     atom   15 type  1   force =     0.00082852   -0.00235778    0.01068844
     atom   16 type  6   force =     0.00081104    0.00146935    0.00599393
     atom   17 type  6   force =    -0.00081106    0.00146934   -0.00599393
     atom   18 type  6   force =    -0.00112840   -0.00120185   -0.00652009
     atom   19 type  6   force =     0.00112840   -0.00120185    0.00652010
     atom   20 type  6   force =     0.00013595   -0.00017688    0.00688228
     atom   21 type  6   force =    -0.00013596   -0.00017688   -0.00688227
     atom   22 type  6   force =     0.00004986    0.00004540   -0.00324788
     atom   23 type  6   force =    -0.00004987    0.00004540    0.00324787
     atom   24 type  6   force =     0.00465486   -0.00181703   -0.00573666
     atom   25 type  6   force =    -0.00465487   -0.00181703    0.00573663
     atom   26 type  6   force =    -0.00360350    0.00080645   -0.00741821
     atom   27 type  6   force =     0.00360352    0.00080645    0.00741817
     atom   28 type  6   force =    -0.00164417    0.00228841    0.00724612
     atom   29 type  6   force =     0.00164417    0.00228841   -0.00724614
     atom   30 type  6   force =     0.00094811   -0.00222965   -0.00745301
     atom   31 type  6   force =    -0.00094811   -0.00222965    0.00745303
     atom   32 type  6   force =    -0.00247691   -0.00350588   -0.00648551
     atom   33 type  6   force =     0.00247690   -0.00350588    0.00648552
     atom   34 type  6   force =     0.00093467    0.00430353    0.00637084
     atom   35 type  6   force =    -0.00093467    0.00430353   -0.00637083
     atom   36 type  6   force =    -0.00016346    0.00055204    0.01139273
     atom   37 type  6   force =     0.00016347    0.00055205   -0.01139276
     atom   38 type  6   force =    -0.00338051   -0.00139043    0.01051229
     atom   39 type  6   force =     0.00338051   -0.00139043   -0.01051229
     atom   40 type  3   force =     0.00000000    0.00000000    0.00000000
     atom   41 type  3   force =     0.00000000    0.00000000    0.00000000
     atom   42 type  3   force =     0.00000000    0.00000000    0.00000000
     atom   43 type  3   force =     0.00000000    0.00000000    0.00000000
     atom   44 type  2   force =     0.00000000   -0.00046295    0.00000000
     The Hubbard contrib.    to forces
     atom    1 type  4   force =     0.00000000    0.00000000    0.00000000
     atom    2 type  4   force =     0.00000000    0.00000000    0.00000000
     atom    3 type  5   force =     0.00000000    0.00000000    0.00000000
     atom    4 type  5   force =     0.00000000    0.00000000    0.00000000
     atom    5 type  5   force =     0.00000000    0.00000000    0.00000000
     atom    6 type  5   force =     0.00000000    0.00000000    0.00000000
     atom    7 type  5   force =     0.00000000    0.00000000    0.00000000
     atom    8 type  7   force =     0.00000000    0.00000000    0.00000000
     atom    9 type  7   force =     0.00000000    0.00000000    0.00000000
     atom   10 type  7   force =     0.00000000    0.00000000    0.00000000
     atom   11 type  7   force =     0.00000000    0.00000000    0.00000000
     atom   12 type  7   force =     0.00000000    0.00000000    0.00000000
     atom   13 type  7   force =     0.00000000    0.00000000    0.00000000
     atom   14 type  1   force =     0.00000000    0.00000000    0.00000000
     atom   15 type  1   force =     0.00000000    0.00000000    0.00000000
     atom   16 type  6   force =     0.00000000    0.00000000    0.00000000
     atom   17 type  6   force =     0.00000000    0.00000000    0.00000000
     atom   18 type  6   force =     0.00000000    0.00000000    0.00000000
     atom   19 type  6   force =     0.00000000    0.00000000    0.00000000
     atom   20 type  6   force =     0.00000000    0.00000000    0.00000000
     atom   21 type  6   force =     0.00000000    0.00000000    0.00000000
     atom   22 type  6   force =     0.00000000    0.00000000    0.00000000
     atom   23 type  6   force =     0.00000000    0.00000000    0.00000000
     atom   24 type  6   force =     0.00000000    0.00000000    0.00000000
     atom   25 type  6   force =     0.00000000    0.00000000    0.00000000
     atom   26 type  6   force =     0.00000000    0.00000000    0.00000000
     atom   27 type  6   force =     0.00000000    0.00000000    0.00000000
     atom   28 type  6   force =     0.00000000    0.00000000    0.00000000
     atom   29 type  6   force =     0.00000000    0.00000000    0.00000000
     atom   30 type  6   force =     0.00000000    0.00000000    0.00000000
     atom   31 type  6   force =     0.00000000    0.00000000    0.00000000
     atom   32 type  6   force =     0.00000000    0.00000000    0.00000000
     atom   33 type  6   force =     0.00000000    0.00000000    0.00000000
     atom   34 type  6   force =     0.00000000    0.00000000    0.00000000
     atom   35 type  6   force =     0.00000000    0.00000000    0.00000000
     atom   36 type  6   force =     0.00000000    0.00000000    0.00000000
     atom   37 type  6   force =     0.00000000    0.00000000    0.00000000
     atom   38 type  6   force =     0.00000000    0.00000000    0.00000000
     atom   39 type  6   force =     0.00000000    0.00000000    0.00000000
     atom   40 type  3   force =     0.00000000    0.00000000    0.00000000
     atom   41 type  3   force =     0.00000000    0.00000000    0.00000000
     atom   42 type  3   force =     0.00000000    0.00000000    0.00000000
     atom   43 type  3   force =     0.00000000    0.00000000    0.00000000
     atom   44 type  2   force =     0.00000000    0.00000000    0.00000000
     The SCF correction term to forces
     atom    1 type  4   force =     0.00000000   -0.00000809   -0.00000000
     atom    2 type  4   force =    -0.00000000    0.00000847    0.00000000
     atom    3 type  5   force =     0.00000000    0.00001164    0.00000000
     atom    4 type  5   force =     0.00000000   -0.00000948    0.00000000
     atom    5 type  5   force =    -0.00000000    0.00000665   -0.00000000
     atom    6 type  5   force =    -0.00000000   -0.00000416    0.00000000
     atom    7 type  5   force =    -0.00000000   -0.00000410    0.00000000
     atom    8 type  7   force =     0.00000168    0.00000248   -0.00000050
     atom    9 type  7   force =    -0.00000168    0.00000248    0.00000050
     atom   10 type  7   force =    -0.00000031    0.00000068   -0.00000425
     atom   11 type  7   force =     0.00000031    0.00000068    0.00000425
     atom   12 type  7   force =    -0.00000086   -0.00000363    0.00000461
     atom   13 type  7   force =     0.00000086   -0.00000363   -0.00000461
     atom   14 type  1   force =     0.00000021    0.00000015    0.00000086
     atom   15 type  1   force =    -0.00000021    0.00000015   -0.00000086
     atom   16 type  6   force =     0.00000158   -0.00000116   -0.00000132
     atom   17 type  6   force =    -0.00000158   -0.00000116    0.00000132
     atom   18 type  6   force =    -0.00000271   -0.00000412    0.00000383
     atom   19 type  6   force =     0.00000271   -0.00000412   -0.00000383
     atom   20 type  6   force =     0.00000011    0.00000106    0.00000487
     atom   21 type  6   force =    -0.00000011    0.00000106   -0.00000487
     atom   22 type  6   force =    -0.00000057    0.00000458   -0.00000736
     atom   23 type  6   force =     0.00000057    0.00000458    0.00000736
     atom   24 type  6   force =    -0.00000420   -0.00000569   -0.00000313
     atom   25 type  6   force =     0.00000420   -0.00000569    0.00000313
     atom   26 type  6   force =     0.00000358    0.00000011    0.00000984
     atom   27 type  6   force =    -0.00000358    0.00000011   -0.00000984
     atom   28 type  6   force =     0.00000178    0.00000153   -0.00001178
     atom   29 type  6   force =    -0.00000178    0.00000153    0.00001178
     atom   30 type  6   force =     0.00000119    0.00000300    0.00001161
     atom   31 type  6   force =    -0.00000119    0.00000300   -0.00001161
     atom   32 type  6   force =    -0.00000227    0.00000231   -0.00000240
     atom   33 type  6   force =     0.00000227    0.00000231    0.00000240
     atom   34 type  6   force =    -0.00000517   -0.00000144    0.00000488
     atom   35 type  6   force =     0.00000517   -0.00000144   -0.00000488
     atom   36 type  6   force =    -0.00000055    0.00000307    0.00000431
     atom   37 type  6   force =     0.00000055    0.00000307   -0.00000431
     atom   38 type  6   force =    -0.00000286   -0.00000302    0.00000035
     atom   39 type  6   force =     0.00000286   -0.00000302   -0.00000035
     atom   40 type  3   force =     0.00000003    0.00000049    0.00000261
     atom   41 type  3   force =    -0.00000003    0.00000049   -0.00000261
     atom   42 type  3   force =    -0.00000040   -0.00000051    0.00000138
     atom   43 type  3   force =     0.00000040   -0.00000051   -0.00000138
     atom   44 type  2   force =     0.00000000   -0.00000309    0.00000000

     DFT-D3 dispersion contribution to forces:
     atom    1 type  4   force =    -0.00000000    0.00093577    0.00000000
     atom    2 type  4   force =     0.00000000   -0.00070919   -0.00000000
     atom    3 type  5   force =     0.00000000    0.00049865   -0.00000000
     atom    4 type  5   force =    -0.00000000   -0.00089299    0.00000000
     atom    5 type  5   force =     0.00000000   -0.00060801    0.00000000
     atom    6 type  5   force =     0.00000000    0.00144168   -0.00000000
     atom    7 type  5   force =     0.00000000   -0.00043206   -0.00000000
     atom    8 type  7   force =     0.00008194   -0.00016846   -0.00006240
     atom    9 type  7   force =    -0.00008194   -0.00016846    0.00006240
     atom   10 type  7   force =    -0.00000027    0.00013521    0.00000401
     atom   11 type  7   force =     0.00000027    0.00013521   -0.00000401
     atom   12 type  7   force =    -0.00004773    0.00011566   -0.00018760
     atom   13 type  7   force =     0.00004773    0.00011566    0.00018760
     atom   14 type  1   force =     0.00007569    0.00015527   -0.00091316
     atom   15 type  1   force =    -0.00007569    0.00015527    0.00091316
     atom   16 type  6   force =     0.00000260    0.00013386    0.00043391
     atom   17 type  6   force =    -0.00000260    0.00013386   -0.00043391
     atom   18 type  6   force =     0.00000366   -0.00003528   -0.00036853
     atom   19 type  6   force =    -0.00000366   -0.00003528    0.00036853
     atom   20 type  6   force =    -0.00000603   -0.00007131    0.00042440
     atom   21 type  6   force =     0.00000603   -0.00007131   -0.00042441
     atom   22 type  6   force =    -0.00004329   -0.00001093    0.00005493
     atom   23 type  6   force =     0.00004329   -0.00001093   -0.00005493
     atom   24 type  6   force =    -0.00015577    0.00095352    0.00030870
     atom   25 type  6   force =     0.00015577    0.00095353   -0.00030870
     atom   26 type  6   force =     0.00086782    0.00007664    0.00022117
     atom   27 type  6   force =    -0.00086782    0.00007664   -0.00022117
     atom   28 type  6   force =     0.00036182   -0.00054831   -0.00002331
     atom   29 type  6   force =    -0.00036183   -0.00054832    0.00002331
     atom   30 type  6   force =    -0.00021230    0.00034888   -0.00000459
     atom   31 type  6   force =     0.00021230    0.00034888    0.00000459
     atom   32 type  6   force =     0.00094402   -0.00043453    0.00042548
     atom   33 type  6   force =    -0.00094402   -0.00043454   -0.00042548
     atom   34 type  6   force =     0.00066326   -0.00054644   -0.00042310
     atom   35 type  6   force =    -0.00066326   -0.00054644    0.00042310
     atom   36 type  6   force =    -0.00000868   -0.00003575   -0.00047432
     atom   37 type  6   force =     0.00000868   -0.00003575    0.00047432
     atom   38 type  6   force =    -0.00008246    0.00004200   -0.00056231
     atom   39 type  6   force =     0.00008246    0.00004200    0.00056231
     atom   40 type  3   force =    -0.00003632    0.00009541   -0.00023517
     atom   41 type  3   force =     0.00003632    0.00009541    0.00023517
     atom   42 type  3   force =    -0.00021584   -0.00035771   -0.00027176
     atom   43 type  3   force =     0.00021584   -0.00035771    0.00027176
     atom   44 type  2   force =    -0.00000000    0.00007068   -0.00000000

     Total force =     0.003963     Total SCF correction =     0.000045

     DFT-D3 dispersion Force =     0.004363


     Computing stress (Cartesian axis) and pressure

          total   stress  (Ry/bohr**3)                   (kbar)     P=       -0.28
  -0.00000343   0.00000000   0.00000320           -0.50        0.00        0.47
   0.00000000   0.00000038   0.00000000            0.00        0.06        0.00
   0.00000320   0.00000000  -0.00000274            0.47        0.00       -0.40

     kinetic stress (kbar)  20348.53      0.00     20.23
                                0.00  20348.43      0.00
                               20.23      0.00  20048.35

     local   stress (kbar) -42392.46      0.00    217.52
                                0.00 -41413.14      0.00
                              217.52      0.00  20302.23

     nonloc. stress (kbar)   3828.93      0.00     -2.18
                                0.00   3830.89      0.00
                               -2.18      0.00   3815.31

     hartree stress (kbar)  23810.54      0.00    -94.70
                                0.00  23345.74     -0.00
                              -94.70     -0.00  -6858.90

     exc-cor stress (kbar)  -2847.40     -0.00     -0.07
                               -0.00  -2847.71      0.00
                               -0.07      0.00  -2844.57

     corecor stress (kbar)  -1877.81      0.00     -0.06
                                0.00  -1877.96     -0.00
                               -0.06     -0.00  -1879.29

     ewald   stress (kbar)   -855.85     -0.00   -140.42
                               -0.00  -1370.96     -0.00
                             -140.42     -0.00 -32572.41

     hubbard stress (kbar)      0.00      0.00      0.00
                                0.00      0.00      0.00
                                0.00      0.00      0.00

     DFT-D   stress (kbar)    -15.00      0.00      0.15
                                0.00    -15.24     -0.00
                                0.15     -0.00    -11.12

     XDM     stress (kbar)      0.00      0.00      0.00
                                0.00      0.00      0.00
                                0.00      0.00      0.00

     dft-nl  stress (kbar)      0.00      0.00      0.00
                                0.00      0.00      0.00
                                0.00      0.00      0.00

     TS-vdW  stress (kbar)      0.00      0.00      0.00
                                0.00      0.00      0.00
                                0.00      0.00      0.00

     MDB     stress (kbar)      0.00      0.00      0.00
                                0.00      0.00      0.00
                                0.00      0.00      0.00

     3D-RISM stress (kbar)      0.00      0.00      0.00
                                0.00      0.00      0.00
                                0.00      0.00      0.00


     Writing all to output data dir ./temp/phl-fe1-fe1-nspin.save/ :
     XML data file, charge density, pseudopotentials, collected wavefunctions

     init_run     :    173.33s CPU    175.43s WALL (       2 calls)
     electrons    :  47510.88s CPU  47935.49s WALL (      16 calls)
     update_pot   :     17.54s CPU     17.77s WALL (      14 calls)
     forces       :   1030.16s CPU   1039.01s WALL (      16 calls)
     force_dftd3  :     66.22s CPU     66.35s WALL (      16 calls)
     stress       :   3492.05s CPU   3529.21s WALL (      16 calls)
     stres_dftd3  :     66.33s CPU     66.45s WALL (      16 calls)

     Called by init_run:
     wfcinit      :    162.52s CPU    163.53s WALL (       2 calls)
     wfcinit:atom :      0.29s CPU      0.29s WALL (      40 calls)
     wfcinit:wfcr :    159.95s CPU    160.94s WALL (      40 calls)
     potinit      :      2.72s CPU      2.76s WALL (       2 calls)
     hinit0       :      2.30s CPU      2.35s WALL (       2 calls)

     Called by electrons:
     c_bands      :  43828.68s CPU  44089.85s WALL (     142 calls)
     sum_band     :   3159.13s CPU   3261.02s WALL (     142 calls)
     v_of_rho     :     23.76s CPU     24.69s WALL (     147 calls)
     v_h          :      1.70s CPU      1.80s WALL (     147 calls)
     v_xc         :     26.77s CPU     27.89s WALL (     179 calls)
     newd         :    361.22s CPU    428.92s WALL (     147 calls)
     PAW_pot      :    151.03s CPU    151.06s WALL (     161 calls)
     mix_rho      :      3.20s CPU      3.35s WALL (     142 calls)
     energy_dftd3 :     51.08s CPU     51.09s WALL (      16 calls)

     Called by c_bands:
     init_us_2    :    108.61s CPU    108.78s WALL (    6640 calls)
     cegterg      :  43621.76s CPU  43882.30s WALL (    2861 calls)

     Called by sum_band:
     sum_band:wei :      0.04s CPU      0.04s WALL (     142 calls)
     sum_band:loo :   2693.89s CPU   2719.46s WALL (     142 calls)
     sum_band:buf :     12.39s CPU     12.43s WALL (    2840 calls)
     sum_band:ini :     47.23s CPU     47.29s WALL (    2840 calls)
     sum_band:cal :   2151.24s CPU   2152.80s WALL (    3120 calls)
     sum_band:bec :      5.35s CPU      5.37s WALL (    3120 calls)
     addusdens    :    456.93s CPU    532.95s WALL (     142 calls)
                                        0.00s GPU  (     142 calls)
     addusd:skk   :      3.25s CPU      5.18s WALL (     994 calls)
                                        0.00s GPU  (     994 calls)

     Called by *egterg:
     cdiaghg      :   1574.52s CPU   1590.74s WALL (   22088 calls)
     cegterg:over :   5831.20s CPU   5833.05s WALL (   19748 calls)
     cegterg:upda :   3461.90s CPU   3477.13s WALL (   19748 calls)
     cegterg:last :   9056.71s CPU   9060.83s WALL (    8406 calls)
     cdiaghg:chol :     35.95s CPU     36.03s WALL (   22088 calls)
     cdiaghg:inve :     35.20s CPU     35.24s WALL (   22088 calls)
     cdiaghg:para :    705.98s CPU    713.27s WALL (   44176 calls)
     h_psi        :  16164.61s CPU  16337.28s WALL (   22649 calls)
     s_psi        :   6445.27s CPU   6446.13s WALL (   22649 calls)
     g_psi        :     31.88s CPU     31.95s WALL (   19748 calls)

     Called by h_psi:
     h_psi:calbec :   6396.74s CPU   6401.77s WALL (   22649 calls)
     vloc_psi     :   3290.38s CPU   3437.69s WALL (   22649 calls)
     add_vuspsi   :   6448.53s CPU   6449.58s WALL (   22649 calls)

     General routines
     calbec       :   9640.31s CPU   9647.67s WALL (   27369 calls)
     fft          :     16.17s CPU     17.73s WALL (    2304 calls)
     ffts         :      0.57s CPU      0.60s WALL (     289 calls)
     fftw         :   2791.43s CPU   2898.42s WALL ( 3395294 calls)
     interpolate  :      1.74s CPU      1.85s WALL (     147 calls)

     Parallel routines

     PAW routines
     PAW_pot      :    151.03s CPU    151.06s WALL (     161 calls)
     PAW_symme    :      0.07s CPU      0.07s WALL (     303 calls)

     PWSCF        :     14h34m CPU     14h42m WALL


   This run was terminated on:   2:12:24   4Jan2025            

=------------------------------------------------------------------------------=
   JOB DONE.
=------------------------------------------------------------------------------=
