 INFO
nunit      1    1    1
unit   cell
celltype   primcell
shape   parapipedal
 END_INFO
 DIM-GROUP
           3           1
 PRIMVEC
    5.3363305780    0.0000000000    0.0000000000
    0.0000000000    9.2802693510    0.0000000000
   -1.9394047740    0.0000000000   10.3184123480
 CONVVEC
    5.3363305780    0.0000000000    0.0000000000
    0.0000000000    9.2802693510    0.0000000000
   -1.9394047740    0.0000000000   10.3184123480
 PRIMCOORD
          44           1
 19      0.0000000000     4.5208824470     0.0000000000     0.0000000000     0.0000356400     0.0000000000
 19      2.6681643500     0.0767797620     0.0000000000     0.0000000000     0.0000164900     0.0000000000
 12     -0.9697020040     0.0564418680     5.1592050030     0.0000000000     0.0000480900     0.0000000000
 12     -0.9697020040     6.1929529500     5.1592050030     0.0000000000     0.0000211000     0.0000000000
 12      1.6984623460     4.6019888170     5.1592050030     0.0000000000    -0.0000739600     0.0000000000
 12      1.6984623460     7.7530275490     5.1592050030     0.0000000000    -0.0000146600     0.0000000000
 12      1.6984623460     1.5823387090     5.1592050030     0.0000000000     0.0000166700     0.0000000000
 14      0.0260191430     1.5138647050     2.3398590870    -0.0000102300    -0.0000070200     0.0000261300
 14      3.3709053210     1.5138647050     7.9785510750     0.0000102300    -0.0000070200    -0.0000261300
 14      3.5108414830     7.7408120850     7.9025074550     0.0000026400     0.0000089700    -0.0000363600
 14     -0.1139223000     7.7408120850     2.4159022410    -0.0000026400     0.0000089700     0.0000363600
 14      2.5539802080     6.1877510620     2.4012190680    -0.0000080100     0.0000020600     0.0000593600
 14      0.8429445120     6.1877510620     7.9171907840     0.0000080100     0.0000020600    -0.0000593600
 13      0.7004598480     3.0701694330     7.9472123070    -0.0000181500    -0.0000012400    -0.0000315600
 13      2.6964592490     3.0701694330     2.3711978540     0.0000181500    -0.0000012400     0.0000315600
  8     -0.0258644450     1.4631525670     3.9695261890    -0.0000170800     0.0000322100     0.0000195700
  8      3.4227838050     1.4631525670     6.3488838170     0.0000170800     0.0000322100    -0.0000195700
  8      3.4919548570     7.7445960660     6.2809678670    -0.0000138600    -0.0000011300    -0.0000249100
  8     -0.0950353320     7.7445960660     4.0374421390     0.0000138600    -0.0000011300     0.0000249100
  8      2.5818585800     6.2169806540     4.0305632430     0.0000041900     0.0000086900     0.0000515800
  8      0.8150660650     6.2169806540     6.2878461540    -0.0000041900     0.0000086900    -0.0000515800
  8      0.7608186670     3.0924137810     6.1992489800    -0.0000372500    -0.0000041500    -0.0000320300
  8      2.6361005160     3.0924137810     4.1191607170     0.0000372500    -0.0000041500     0.0000320300
  8      1.4980404970     1.9147382370     1.7591296070     0.0000084100    -0.0000165500    -0.0000079600
  8      1.8988842240     1.9147382370     8.5592802440    -0.0000084100    -0.0000165500     0.0000079600
  8     -0.3083234920     9.2452549380     1.7709952000    -0.0000182000     0.0000044000    -0.0000240300
  8      3.7052431500     9.2452549380     8.5474144970     0.0000182000     0.0000044000     0.0000240300
  8      2.0875034500     7.1380612480     8.5017462040     0.0000159600    -0.0000182400     0.0000038200
  8      1.3094212410     7.1380612480     1.8166638030    -0.0000159600    -0.0000182400    -0.0000038200
  8      3.9699408310     6.8444804990     1.8058181280    -0.0000036400     0.0000163500     0.0000211400
  8     -0.5730159290     6.8444804990     8.5125920330     0.0000036400     0.0000163500    -0.0000211400
  8      2.3746126160     4.7102567480     1.7547105330    -0.0000276100     0.0000158500    -0.0000551800
  8      1.0223068580     4.7102567480     8.5636993190     0.0000276100     0.0000158500     0.0000551800
  8     -0.8538785710     2.5325533110     8.5999587680    -0.0000206900    -0.0000098700     0.0000650700
  8      4.2508032400     2.5325533110     1.7184509290     0.0000206900    -0.0000098700    -0.0000650700
  8     -0.0422932970     4.7482324120     4.0705338650    -0.0000248100    -0.0000515800     0.0000049000
  8      3.4392177700     4.7482324120     6.2478764510     0.0000248100    -0.0000515800    -0.0000049000
  8      2.6038667160     9.2761926760     4.1295213570    -0.0000296200     0.0000160800    -0.0000352900
  8      0.7930560670     9.2761926760     6.1888988030     0.0000296200     0.0000160800     0.0000352900
  1     -0.0339800530     4.5806177160     3.1190015230    -0.0000002800    -0.0000443800     0.0000027100
  1      3.4308996160     4.5806177160     7.1994084830     0.0000002800    -0.0000443800    -0.0000027100
  1      2.5756556280     0.1138803120     3.1706425940    -0.0000181800     0.0000318000    -0.0000061200
  1      0.8212638170     0.1138803120     7.1477674120     0.0000181800     0.0000318000     0.0000061200
 26     -0.9697020040     3.1133740890     5.1592050030     0.0000000000    -0.0000138800     0.0000000000
 CONVCOORD
          44           1
 19      0.0000000000     4.5208824470     0.0000000000
 19      2.6681643500     0.0767797620     0.0000000000
 12     -0.9697020040     0.0564418680     5.1592050030
 12     -0.9697020040     6.1929529500     5.1592050030
 12      1.6984623460     4.6019888170     5.1592050030
 12      1.6984623460     7.7530275490     5.1592050030
 12      1.6984623460     1.5823387090     5.1592050030
 14      0.0260191430     1.5138647050     2.3398590870
 14      3.3709053210     1.5138647050     7.9785510750
 14      3.5108414830     7.7408120850     7.9025074550
 14     -0.1139223000     7.7408120850     2.4159022410
 14      2.5539802080     6.1877510620     2.4012190680
 14      0.8429445120     6.1877510620     7.9171907840
 13      0.7004598480     3.0701694330     7.9472123070
 13      2.6964592490     3.0701694330     2.3711978540
  8     -0.0258644450     1.4631525670     3.9695261890
  8      3.4227838050     1.4631525670     6.3488838170
  8      3.4919548570     7.7445960660     6.2809678670
  8     -0.0950353320     7.7445960660     4.0374421390
  8      2.5818585800     6.2169806540     4.0305632430
  8      0.8150660650     6.2169806540     6.2878461540
  8      0.7608186670     3.0924137810     6.1992489800
  8      2.6361005160     3.0924137810     4.1191607170
  8      1.4980404970     1.9147382370     1.7591296070
  8      1.8988842240     1.9147382370     8.5592802440
  8     -0.3083234920     9.2452549380     1.7709952000
  8      3.7052431500     9.2452549380     8.5474144970
  8      2.0875034500     7.1380612480     8.5017462040
  8      1.3094212410     7.1380612480     1.8166638030
  8      3.9699408310     6.8444804990     1.8058181280
  8     -0.5730159290     6.8444804990     8.5125920330
  8      2.3746126160     4.7102567480     1.7547105330
  8      1.0223068580     4.7102567480     8.5636993190
  8     -0.8538785710     2.5325533110     8.5999587680
  8      4.2508032400     2.5325533110     1.7184509290
  8     -0.0422932970     4.7482324120     4.0705338650
  8      3.4392177700     4.7482324120     6.2478764510
  8      2.6038667160     9.2761926760     4.1295213570
  8      0.7930560670     9.2761926760     6.1888988030
  1     -0.0339800530     4.5806177160     3.1190015230
  1      3.4308996160     4.5806177160     7.1994084830
  1      2.5756556280     0.1138803120     3.1706425940
  1      0.8212638170     0.1138803120     7.1477674120
 26     -0.9697020040     3.1133740890     5.1592050030
 RECIP-PRIMVEC
    0.1873946873   -0.0000000000    0.0352219061

    0.0000000000    0.1077554931   -0.0000000000

    0.0000000000    0.0000000000    0.0969141343

 RECIP-CONVVEC
    0.1873946873   -0.0000000000    0.0352219061

    0.0000000000    0.1077554931   -0.0000000000

    0.0000000000    0.0000000000    0.0969141343

 WIGNER-SEITZ-PRIMCELL
           4
 -0.2668165E+01  0.4640135E+01 -0.4839970E+01  -0.3127008E+00  0.1591356E-15 -0.9498517E+00
 -0.7287605E+00  0.4640135E+01 -0.5478442E+01  -0.3127008E+00  0.1591356E-15 -0.9498517E+00
 -0.7287605E+00 -0.4640135E+01 -0.5478442E+01  -0.3127008E+00  0.1591356E-15 -0.9498517E+00
 -0.2668165E+01 -0.4640135E+01 -0.4839970E+01  -0.3127008E+00  0.1591356E-15 -0.9498517E+00
           4
 -0.2668165E+01  0.4640135E+01 -0.4839970E+01  -0.1000000E+01 -0.0000000E+00 -0.0000000E+00
 -0.2668165E+01 -0.4640135E+01 -0.4839970E+01  -0.1000000E+01 -0.0000000E+00 -0.0000000E+00
 -0.2668165E+01 -0.4640135E+01  0.4839970E+01  -0.1000000E+01 -0.0000000E+00 -0.0000000E+00
 -0.2668165E+01  0.4640135E+01  0.4839970E+01  -0.1000000E+01 -0.0000000E+00 -0.0000000E+00
           6
  0.2668165E+01 -0.4640135E+01  0.4839970E+01  -0.0000000E+00 -0.1000000E+01  0.0000000E+00
  0.7287605E+00 -0.4640135E+01  0.5478442E+01  -0.0000000E+00 -0.1000000E+01  0.0000000E+00
 -0.2668165E+01 -0.4640135E+01  0.4839970E+01  -0.0000000E+00 -0.1000000E+01  0.0000000E+00
 -0.2668165E+01 -0.4640135E+01 -0.4839970E+01  -0.0000000E+00 -0.1000000E+01  0.0000000E+00
 -0.7287605E+00 -0.4640135E+01 -0.5478442E+01  -0.0000000E+00 -0.1000000E+01  0.0000000E+00
  0.2668165E+01 -0.4640135E+01 -0.4839970E+01  -0.0000000E+00 -0.1000000E+01  0.0000000E+00
           4
  0.2668165E+01 -0.4640135E+01 -0.4839970E+01   0.1847212E+00  0.1740266E-15 -0.9827910E+00
 -0.7287605E+00 -0.4640135E+01 -0.5478442E+01   0.1847212E+00  0.1740266E-15 -0.9827910E+00
 -0.7287605E+00  0.4640135E+01 -0.5478442E+01   0.1847212E+00  0.1740266E-15 -0.9827910E+00
  0.2668165E+01  0.4640135E+01 -0.4839970E+01   0.1847212E+00  0.1740266E-15 -0.9827910E+00
           4
 -0.2668165E+01  0.4640135E+01  0.4839970E+01  -0.1847212E+00  0.1107579E-15  0.9827910E+00
 -0.2668165E+01 -0.4640135E+01  0.4839970E+01  -0.1847212E+00  0.1107579E-15  0.9827910E+00
  0.7287605E+00 -0.4640135E+01  0.5478442E+01  -0.1847212E+00  0.1107579E-15  0.9827910E+00
  0.7287605E+00  0.4640135E+01  0.5478442E+01  -0.1847212E+00  0.1107579E-15  0.9827910E+00
           6
  0.2668165E+01  0.4640135E+01 -0.4839970E+01   0.4630694E-30  0.1000000E+01 -0.1042740E-14
 -0.7287605E+00  0.4640135E+01 -0.5478442E+01   0.4630694E-30  0.1000000E+01 -0.1042740E-14
 -0.2668165E+01  0.4640135E+01 -0.4839970E+01   0.4630694E-30  0.1000000E+01 -0.1042740E-14
 -0.2668165E+01  0.4640135E+01  0.4839970E+01   0.4630694E-30  0.1000000E+01 -0.1042740E-14
  0.7287605E+00  0.4640135E+01  0.5478442E+01   0.4630694E-30  0.1000000E+01 -0.1042740E-14
  0.2668165E+01  0.4640135E+01  0.4839970E+01   0.4630694E-30  0.1000000E+01 -0.1042740E-14
           4
  0.2668165E+01  0.4640135E+01  0.4839970E+01   0.1000000E+01  0.0000000E+00  0.0000000E+00
  0.2668165E+01 -0.4640135E+01  0.4839970E+01   0.1000000E+01  0.0000000E+00  0.0000000E+00
  0.2668165E+01 -0.4640135E+01 -0.4839970E+01   0.1000000E+01  0.0000000E+00  0.0000000E+00
  0.2668165E+01  0.4640135E+01 -0.4839970E+01   0.1000000E+01  0.0000000E+00  0.0000000E+00
           4
  0.2668165E+01 -0.4640135E+01  0.4839970E+01   0.3127008E+00 -0.0000000E+00  0.9498517E+00
  0.2668165E+01  0.4640135E+01  0.4839970E+01   0.3127008E+00 -0.0000000E+00  0.9498517E+00
  0.7287605E+00  0.4640135E+01  0.5478442E+01   0.3127008E+00 -0.0000000E+00  0.9498517E+00
  0.7287605E+00 -0.4640135E+01  0.5478442E+01   0.3127008E+00 -0.0000000E+00  0.9498517E+00
 WIGNER-SEITZ-PRIMCELL_END
 WIGNER-SEITZ-CONVCELL
           4
 -0.2668165E+01  0.4640135E+01 -0.4839970E+01  -0.3127008E+00  0.1591356E-15 -0.9498517E+00
 -0.7287605E+00  0.4640135E+01 -0.5478442E+01  -0.3127008E+00  0.1591356E-15 -0.9498517E+00
 -0.7287605E+00 -0.4640135E+01 -0.5478442E+01  -0.3127008E+00  0.1591356E-15 -0.9498517E+00
 -0.2668165E+01 -0.4640135E+01 -0.4839970E+01  -0.3127008E+00  0.1591356E-15 -0.9498517E+00
           4
 -0.2668165E+01  0.4640135E+01 -0.4839970E+01  -0.1000000E+01 -0.0000000E+00 -0.0000000E+00
 -0.2668165E+01 -0.4640135E+01 -0.4839970E+01  -0.1000000E+01 -0.0000000E+00 -0.0000000E+00
 -0.2668165E+01 -0.4640135E+01  0.4839970E+01  -0.1000000E+01 -0.0000000E+00 -0.0000000E+00
 -0.2668165E+01  0.4640135E+01  0.4839970E+01  -0.1000000E+01 -0.0000000E+00 -0.0000000E+00
           6
  0.2668165E+01 -0.4640135E+01  0.4839970E+01  -0.0000000E+00 -0.1000000E+01  0.0000000E+00
  0.7287605E+00 -0.4640135E+01  0.5478442E+01  -0.0000000E+00 -0.1000000E+01  0.0000000E+00
 -0.2668165E+01 -0.4640135E+01  0.4839970E+01  -0.0000000E+00 -0.1000000E+01  0.0000000E+00
 -0.2668165E+01 -0.4640135E+01 -0.4839970E+01  -0.0000000E+00 -0.1000000E+01  0.0000000E+00
 -0.7287605E+00 -0.4640135E+01 -0.5478442E+01  -0.0000000E+00 -0.1000000E+01  0.0000000E+00
  0.2668165E+01 -0.4640135E+01 -0.4839970E+01  -0.0000000E+00 -0.1000000E+01  0.0000000E+00
           4
  0.2668165E+01 -0.4640135E+01 -0.4839970E+01   0.1847212E+00  0.1740266E-15 -0.9827910E+00
 -0.7287605E+00 -0.4640135E+01 -0.5478442E+01   0.1847212E+00  0.1740266E-15 -0.9827910E+00
 -0.7287605E+00  0.4640135E+01 -0.5478442E+01   0.1847212E+00  0.1740266E-15 -0.9827910E+00
  0.2668165E+01  0.4640135E+01 -0.4839970E+01   0.1847212E+00  0.1740266E-15 -0.9827910E+00
           4
 -0.2668165E+01  0.4640135E+01  0.4839970E+01  -0.1847212E+00  0.1107579E-15  0.9827910E+00
 -0.2668165E+01 -0.4640135E+01  0.4839970E+01  -0.1847212E+00  0.1107579E-15  0.9827910E+00
  0.7287605E+00 -0.4640135E+01  0.5478442E+01  -0.1847212E+00  0.1107579E-15  0.9827910E+00
  0.7287605E+00  0.4640135E+01  0.5478442E+01  -0.1847212E+00  0.1107579E-15  0.9827910E+00
           6
  0.2668165E+01  0.4640135E+01 -0.4839970E+01   0.4630694E-30  0.1000000E+01 -0.1042740E-14
 -0.7287605E+00  0.4640135E+01 -0.5478442E+01   0.4630694E-30  0.1000000E+01 -0.1042740E-14
 -0.2668165E+01  0.4640135E+01 -0.4839970E+01   0.4630694E-30  0.1000000E+01 -0.1042740E-14
 -0.2668165E+01  0.4640135E+01  0.4839970E+01   0.4630694E-30  0.1000000E+01 -0.1042740E-14
  0.7287605E+00  0.4640135E+01  0.5478442E+01   0.4630694E-30  0.1000000E+01 -0.1042740E-14
  0.2668165E+01  0.4640135E+01  0.4839970E+01   0.4630694E-30  0.1000000E+01 -0.1042740E-14
           4
  0.2668165E+01  0.4640135E+01  0.4839970E+01   0.1000000E+01  0.0000000E+00  0.0000000E+00
  0.2668165E+01 -0.4640135E+01  0.4839970E+01   0.1000000E+01  0.0000000E+00  0.0000000E+00
  0.2668165E+01 -0.4640135E+01 -0.4839970E+01   0.1000000E+01  0.0000000E+00  0.0000000E+00
  0.2668165E+01  0.4640135E+01 -0.4839970E+01   0.1000000E+01  0.0000000E+00  0.0000000E+00
           4
  0.2668165E+01 -0.4640135E+01  0.4839970E+01   0.3127008E+00 -0.0000000E+00  0.9498517E+00
  0.2668165E+01  0.4640135E+01  0.4839970E+01   0.3127008E+00 -0.0000000E+00  0.9498517E+00
  0.7287605E+00  0.4640135E+01  0.5478442E+01   0.3127008E+00 -0.0000000E+00  0.9498517E+00
  0.7287605E+00 -0.4640135E+01  0.5478442E+01   0.3127008E+00 -0.0000000E+00  0.9498517E+00
 WIGNER-SEITZ-CONVCELL_END
 BRILLOUIN-ZONE-PRIMCELL
           4
  0.9949505E-01 -0.5387775E-01 -0.1323516E-01   0.9498517E+00 -0.5426800E-16 -0.3127008E+00
  0.8789964E-01 -0.5387775E-01 -0.4845707E-01   0.9498517E+00 -0.5426800E-16 -0.3127008E+00
  0.8789964E-01  0.5387775E-01 -0.4845707E-01   0.9498517E+00 -0.5426800E-16 -0.3127008E+00
  0.9949505E-01  0.5387775E-01 -0.1323516E-01   0.9498517E+00 -0.5426800E-16 -0.3127008E+00
           4
 -0.8789964E-01 -0.5387775E-01 -0.4845707E-01   0.4578716E-16  0.9157433E-16 -0.1000000E+01
 -0.8789964E-01  0.5387775E-01 -0.4845707E-01   0.4578716E-16  0.9157433E-16 -0.1000000E+01
  0.8789964E-01  0.5387775E-01 -0.4845707E-01   0.4578716E-16  0.9157433E-16 -0.1000000E+01
  0.8789964E-01 -0.5387775E-01 -0.4845707E-01   0.4578716E-16  0.9157433E-16 -0.1000000E+01
           6
  0.8789964E-01 -0.5387775E-01  0.4845707E-01   0.0000000E+00 -0.1000000E+01  0.2801562E-15
 -0.8789964E-01 -0.5387775E-01  0.4845707E-01   0.0000000E+00 -0.1000000E+01  0.2801562E-15
 -0.9949505E-01 -0.5387775E-01  0.1323516E-01   0.0000000E+00 -0.1000000E+01  0.2801562E-15
 -0.8789964E-01 -0.5387775E-01 -0.4845707E-01   0.0000000E+00 -0.1000000E+01  0.2801562E-15
  0.8789964E-01 -0.5387775E-01 -0.4845707E-01   0.0000000E+00 -0.1000000E+01  0.2801562E-15
  0.9949505E-01 -0.5387775E-01 -0.1323516E-01   0.0000000E+00 -0.1000000E+01  0.2801562E-15
           4
  0.8789964E-01  0.5387775E-01  0.4845707E-01   0.9827910E+00 -0.5610087E-16  0.1847212E+00
  0.8789964E-01 -0.5387775E-01  0.4845707E-01   0.9827910E+00 -0.5610087E-16  0.1847212E+00
  0.9949505E-01 -0.5387775E-01 -0.1323516E-01   0.9827910E+00 -0.5610087E-16  0.1847212E+00
  0.9949505E-01  0.5387775E-01 -0.1323516E-01   0.9827910E+00 -0.5610087E-16  0.1847212E+00
           4
 -0.8789964E-01  0.5387775E-01 -0.4845707E-01  -0.9827910E+00 -0.2564611E-15 -0.1847212E+00
 -0.8789964E-01 -0.5387775E-01 -0.4845707E-01  -0.9827910E+00 -0.2564611E-15 -0.1847212E+00
 -0.9949505E-01 -0.5387775E-01  0.1323516E-01  -0.9827910E+00 -0.2564611E-15 -0.1847212E+00
 -0.9949505E-01  0.5387775E-01  0.1323516E-01  -0.9827910E+00 -0.2564611E-15 -0.1847212E+00
           6
  0.9949505E-01  0.5387775E-01 -0.1323516E-01  -0.0000000E+00  0.1000000E+01 -0.0000000E+00
  0.8789964E-01  0.5387775E-01 -0.4845707E-01  -0.0000000E+00  0.1000000E+01 -0.0000000E+00
 -0.8789964E-01  0.5387775E-01 -0.4845707E-01  -0.0000000E+00  0.1000000E+01 -0.0000000E+00
 -0.9949505E-01  0.5387775E-01  0.1323516E-01  -0.0000000E+00  0.1000000E+01 -0.0000000E+00
 -0.8789964E-01  0.5387775E-01  0.4845707E-01  -0.0000000E+00  0.1000000E+01 -0.0000000E+00
  0.8789964E-01  0.5387775E-01  0.4845707E-01  -0.0000000E+00  0.1000000E+01 -0.0000000E+00
           4
 -0.8789964E-01 -0.5387775E-01  0.4845707E-01  -0.0000000E+00 -0.9157433E-16  0.1000000E+01
  0.8789964E-01 -0.5387775E-01  0.4845707E-01  -0.0000000E+00 -0.9157433E-16  0.1000000E+01
  0.8789964E-01  0.5387775E-01  0.4845707E-01  -0.0000000E+00 -0.9157433E-16  0.1000000E+01
 -0.8789964E-01  0.5387775E-01  0.4845707E-01  -0.0000000E+00 -0.9157433E-16  0.1000000E+01
           4
 -0.8789964E-01  0.5387775E-01  0.4845707E-01  -0.9498517E+00 -0.1450310E-15  0.3127008E+00
 -0.9949505E-01  0.5387775E-01  0.1323516E-01  -0.9498517E+00 -0.1450310E-15  0.3127008E+00
 -0.9949505E-01 -0.5387775E-01  0.1323516E-01  -0.9498517E+00 -0.1450310E-15  0.3127008E+00
 -0.8789964E-01 -0.5387775E-01  0.4845707E-01  -0.9498517E+00 -0.1450310E-15  0.3127008E+00
 BRILLOUIN-ZONE-PRIMCELL_END
 BRILLOUIN-ZONE-CONVCELL
           4
  0.9949505E-01 -0.5387775E-01 -0.1323516E-01   0.9498517E+00 -0.5426800E-16 -0.3127008E+00
  0.8789964E-01 -0.5387775E-01 -0.4845707E-01   0.9498517E+00 -0.5426800E-16 -0.3127008E+00
  0.8789964E-01  0.5387775E-01 -0.4845707E-01   0.9498517E+00 -0.5426800E-16 -0.3127008E+00
  0.9949505E-01  0.5387775E-01 -0.1323516E-01   0.9498517E+00 -0.5426800E-16 -0.3127008E+00
           4
 -0.8789964E-01 -0.5387775E-01 -0.4845707E-01   0.4578716E-16  0.9157433E-16 -0.1000000E+01
 -0.8789964E-01  0.5387775E-01 -0.4845707E-01   0.4578716E-16  0.9157433E-16 -0.1000000E+01
  0.8789964E-01  0.5387775E-01 -0.4845707E-01   0.4578716E-16  0.9157433E-16 -0.1000000E+01
  0.8789964E-01 -0.5387775E-01 -0.4845707E-01   0.4578716E-16  0.9157433E-16 -0.1000000E+01
           6
  0.8789964E-01 -0.5387775E-01  0.4845707E-01   0.0000000E+00 -0.1000000E+01  0.2801562E-15
 -0.8789964E-01 -0.5387775E-01  0.4845707E-01   0.0000000E+00 -0.1000000E+01  0.2801562E-15
 -0.9949505E-01 -0.5387775E-01  0.1323516E-01   0.0000000E+00 -0.1000000E+01  0.2801562E-15
 -0.8789964E-01 -0.5387775E-01 -0.4845707E-01   0.0000000E+00 -0.1000000E+01  0.2801562E-15
  0.8789964E-01 -0.5387775E-01 -0.4845707E-01   0.0000000E+00 -0.1000000E+01  0.2801562E-15
  0.9949505E-01 -0.5387775E-01 -0.1323516E-01   0.0000000E+00 -0.1000000E+01  0.2801562E-15
           4
  0.8789964E-01  0.5387775E-01  0.4845707E-01   0.9827910E+00 -0.5610087E-16  0.1847212E+00
  0.8789964E-01 -0.5387775E-01  0.4845707E-01   0.9827910E+00 -0.5610087E-16  0.1847212E+00
  0.9949505E-01 -0.5387775E-01 -0.1323516E-01   0.9827910E+00 -0.5610087E-16  0.1847212E+00
  0.9949505E-01  0.5387775E-01 -0.1323516E-01   0.9827910E+00 -0.5610087E-16  0.1847212E+00
           4
 -0.8789964E-01  0.5387775E-01 -0.4845707E-01  -0.9827910E+00 -0.2564611E-15 -0.1847212E+00
 -0.8789964E-01 -0.5387775E-01 -0.4845707E-01  -0.9827910E+00 -0.2564611E-15 -0.1847212E+00
 -0.9949505E-01 -0.5387775E-01  0.1323516E-01  -0.9827910E+00 -0.2564611E-15 -0.1847212E+00
 -0.9949505E-01  0.5387775E-01  0.1323516E-01  -0.9827910E+00 -0.2564611E-15 -0.1847212E+00
           6
  0.9949505E-01  0.5387775E-01 -0.1323516E-01  -0.0000000E+00  0.1000000E+01 -0.0000000E+00
  0.8789964E-01  0.5387775E-01 -0.4845707E-01  -0.0000000E+00  0.1000000E+01 -0.0000000E+00
 -0.8789964E-01  0.5387775E-01 -0.4845707E-01  -0.0000000E+00  0.1000000E+01 -0.0000000E+00
 -0.9949505E-01  0.5387775E-01  0.1323516E-01  -0.0000000E+00  0.1000000E+01 -0.0000000E+00
 -0.8789964E-01  0.5387775E-01  0.4845707E-01  -0.0000000E+00  0.1000000E+01 -0.0000000E+00
  0.8789964E-01  0.5387775E-01  0.4845707E-01  -0.0000000E+00  0.1000000E+01 -0.0000000E+00
           4
 -0.8789964E-01 -0.5387775E-01  0.4845707E-01  -0.0000000E+00 -0.9157433E-16  0.1000000E+01
  0.8789964E-01 -0.5387775E-01  0.4845707E-01  -0.0000000E+00 -0.9157433E-16  0.1000000E+01
  0.8789964E-01  0.5387775E-01  0.4845707E-01  -0.0000000E+00 -0.9157433E-16  0.1000000E+01
 -0.8789964E-01  0.5387775E-01  0.4845707E-01  -0.0000000E+00 -0.9157433E-16  0.1000000E+01
           4
 -0.8789964E-01  0.5387775E-01  0.4845707E-01  -0.9498517E+00 -0.1450310E-15  0.3127008E+00
 -0.9949505E-01  0.5387775E-01  0.1323516E-01  -0.9498517E+00 -0.1450310E-15  0.3127008E+00
 -0.9949505E-01 -0.5387775E-01  0.1323516E-01  -0.9498517E+00 -0.1450310E-15  0.3127008E+00
 -0.8789964E-01 -0.5387775E-01  0.4845707E-01  -0.9498517E+00 -0.1450310E-15  0.3127008E+00
 BRILLOUIN-ZONE-CONVCELL_END
 ATOMS
   19    0.0000000000    4.5208824470    0.0000000000    0.0000000000    0.0000356400    0.0000000000
   19    2.6681643500    0.0767797620    0.0000000000    0.0000000000    0.0000164900    0.0000000000
   12   -0.9697020040    0.0564418680    5.1592050030    0.0000000000    0.0000480900    0.0000000000
   12   -0.9697020040    6.1929529500    5.1592050030    0.0000000000    0.0000211000    0.0000000000
   12    1.6984623460    4.6019888170    5.1592050030    0.0000000000   -0.0000739600    0.0000000000
   12    1.6984623460    7.7530275490    5.1592050030    0.0000000000   -0.0000146600    0.0000000000
   12    1.6984623460    1.5823387090    5.1592050030    0.0000000000    0.0000166700    0.0000000000
   14    0.0260191430    1.5138647050    2.3398590870   -0.0000102300   -0.0000070200    0.0000261300
   14    3.3709053210    1.5138647050    7.9785510750    0.0000102300   -0.0000070200   -0.0000261300
   14    3.5108414830    7.7408120850    7.9025074550    0.0000026400    0.0000089700   -0.0000363600
   14   -0.1139223000    7.7408120850    2.4159022410   -0.0000026400    0.0000089700    0.0000363600
   14    2.5539802080    6.1877510620    2.4012190680   -0.0000080100    0.0000020600    0.0000593600
   14    0.8429445120    6.1877510620    7.9171907840    0.0000080100    0.0000020600   -0.0000593600
   13    0.7004598480    3.0701694330    7.9472123070   -0.0000181500   -0.0000012400   -0.0000315600
   13    2.6964592490    3.0701694330    2.3711978540    0.0000181500   -0.0000012400    0.0000315600
    8   -0.0258644450    1.4631525670    3.9695261890   -0.0000170800    0.0000322100    0.0000195700
    8    3.4227838050    1.4631525670    6.3488838170    0.0000170800    0.0000322100   -0.0000195700
    8    3.4919548570    7.7445960660    6.2809678670   -0.0000138600   -0.0000011300   -0.0000249100
    8   -0.0950353320    7.7445960660    4.0374421390    0.0000138600   -0.0000011300    0.0000249100
    8    2.5818585800    6.2169806540    4.0305632430    0.0000041900    0.0000086900    0.0000515800
    8    0.8150660650    6.2169806540    6.2878461540   -0.0000041900    0.0000086900   -0.0000515800
    8    0.7608186670    3.0924137810    6.1992489800   -0.0000372500   -0.0000041500   -0.0000320300
    8    2.6361005160    3.0924137810    4.1191607170    0.0000372500   -0.0000041500    0.0000320300
    8    1.4980404970    1.9147382370    1.7591296070    0.0000084100   -0.0000165500   -0.0000079600
    8    1.8988842240    1.9147382370    8.5592802440   -0.0000084100   -0.0000165500    0.0000079600
    8   -0.3083234920    9.2452549380    1.7709952000   -0.0000182000    0.0000044000   -0.0000240300
    8    3.7052431500    9.2452549380    8.5474144970    0.0000182000    0.0000044000    0.0000240300
    8    2.0875034500    7.1380612480    8.5017462040    0.0000159600   -0.0000182400    0.0000038200
    8    1.3094212410    7.1380612480    1.8166638030   -0.0000159600   -0.0000182400   -0.0000038200
    8    3.9699408310    6.8444804990    1.8058181280   -0.0000036400    0.0000163500    0.0000211400
    8   -0.5730159290    6.8444804990    8.5125920330    0.0000036400    0.0000163500   -0.0000211400
    8    2.3746126160    4.7102567480    1.7547105330   -0.0000276100    0.0000158500   -0.0000551800
    8    1.0223068580    4.7102567480    8.5636993190    0.0000276100    0.0000158500    0.0000551800
    8   -0.8538785710    2.5325533110    8.5999587680   -0.0000206900   -0.0000098700    0.0000650700
    8    4.2508032400    2.5325533110    1.7184509290    0.0000206900   -0.0000098700   -0.0000650700
    8   -0.0422932970    4.7482324120    4.0705338650   -0.0000248100   -0.0000515800    0.0000049000
    8    3.4392177700    4.7482324120    6.2478764510    0.0000248100   -0.0000515800   -0.0000049000
    8    2.6038667160    9.2761926760    4.1295213570   -0.0000296200    0.0000160800   -0.0000352900
    8    0.7930560670    9.2761926760    6.1888988030    0.0000296200    0.0000160800    0.0000352900
    1   -0.0339800530    4.5806177160    3.1190015230   -0.0000002800   -0.0000443800    0.0000027100
    1    3.4308996160    4.5806177160    7.1994084830    0.0000002800   -0.0000443800   -0.0000027100
    1    2.5756556280    0.1138803120    3.1706425940   -0.0000181800    0.0000318000   -0.0000061200
    1    0.8212638170    0.1138803120    7.1477674120    0.0000181800    0.0000318000    0.0000061200
   26   -0.9697020040    3.1133740890    5.1592050030    0.0000000000   -0.0000138800    0.0000000000
   19   -1.9394047740    4.5208824470   10.3184123480    0.0000000000    0.0000356400    0.0000000000
   19    0.7287595760    0.0767797620   10.3184123480    0.0000000000    0.0000164900    0.0000000000
   19    5.3363305780    4.5208824470    0.0000000000    0.0000000000    0.0000356400    0.0000000000
   12    4.3666285740    0.0564418680    5.1592050030    0.0000000000    0.0000480900    0.0000000000
   12    4.3666285740    6.1929529500    5.1592050030    0.0000000000    0.0000211000    0.0000000000
   26    4.3666285740    3.1133740890    5.1592050030    0.0000000000   -0.0000138800    0.0000000000
   19    3.3969258040    4.5208824470   10.3184123480    0.0000000000    0.0000356400    0.0000000000
 FRAMES
1      0.0000000000    0.0000000000    0.0000000000      5.3363305780    0.0000000000    0.0000000000
1      0.0000000000    0.0000000000    0.0000000000      0.0000000000    9.2802693510    0.0000000000
1      0.0000000000    0.0000000000    0.0000000000     -1.9394047740    0.0000000000   10.3184123480
1     -1.9394047740    0.0000000000   10.3184123480      3.3969258040    0.0000000000   10.3184123480
1     -1.9394047740    0.0000000000   10.3184123480     -1.9394047740    9.2802693510   10.3184123480
1      0.0000000000    9.2802693510    0.0000000000      5.3363305780    9.2802693510    0.0000000000
1      0.0000000000    9.2802693510    0.0000000000     -1.9394047740    9.2802693510   10.3184123480
1     -1.9394047740    9.2802693510   10.3184123480      3.3969258040    9.2802693510   10.3184123480
1      5.3363305780    0.0000000000    0.0000000000      5.3363305780    9.2802693510    0.0000000000
1      5.3363305780    0.0000000000    0.0000000000      3.3969258040    0.0000000000   10.3184123480
1      3.3969258040    0.0000000000   10.3184123480      3.3969258040    9.2802693510   10.3184123480
1      5.3363305780    9.2802693510    0.0000000000      3.3969258040    9.2802693510   10.3184123480
