
     Program PWSCF v.7.3.1 starts on 26Dec2025 at 12:43:13 

     This program is part of the open-source Quantum ESPRESSO suite
     for quantum simulation of materials; please cite
         "P. Giannozzi et al., J. Phys.:Condens. Matter 21 395502 (2009);
         "P. Giannozzi et al., J. Phys.:Condens. Matter 29 465901 (2017);
         "P. Giannozzi et al., J. Chem. Phys. 152 154105 (2020);
          URL http://www.quantum-espresso.org", 
     in publications or presentations arising from this work. More details at
     http://www.quantum-espresso.org/quote

     Parallel version (MPI), running on    14 processors

     MPI processes distributed on     1 nodes
     21117 MiB available memory on the printing compute node when the environment starts

     Reading input from vc_relax.in

     Current dimensions of program PWSCF are:
     Max number of different atomic species (ntypx) = 10
     Max number of k-points (npk) = 120000
     Max angular momentum in pseudopotentials (lmaxx) =  4
     file Al.pbe-n-kjpaw_psl.1.0.0.UPF: wavefunction(s)  3S 3P renormalized
     file Fe.pbe-spn-kjpaw_psl.1.0.0.UPF: wavefunction(s)  3P 3D renormalized
     file H.pbe-kjpaw_psl.1.0.0.UPF: wavefunction(s)  1S renormalized
     file K.pbe-spn-kjpaw_psl.1.0.0.UPF: wavefunction(s)  3S renormalized
     file Mg.pbe-spnl-kjpaw_psl.1.0.0.UPF: wavefunction(s)  2P renormalized
     file O.pbe-n-kjpaw_psl.1.0.0.UPF: wavefunction(s)  2S 2P renormalized
     file Si.pbe-n-kjpaw_psl.1.0.0.UPF: wavefunction(s)  3S 3P renormalized

     K-points division:     npool     =       2
     R & G space division:  proc/nbgrp/npool/nimage =       7
     Subspace diagonalization in iterative solution of the eigenvalue problem:
     one sub-group per band group will be used
     custom distributed-memory algorithm (size of sub-group:  2*  2 procs)


     Parallelization info
     --------------------
     sticks:   dense  smooth     PW     G-vecs:    dense   smooth      PW
     Min        1442     720    193               160246    56657    7865
     Max        1443     721    194               160249    56663    7871
     Sum       10099    5041   1353              1121731   396609   55075

     Using Slab Decomposition



     bravais-lattice index     =          -12
     lattice parameter (alat)  =      10.0767  a.u.
     unit-cell volume          =    3438.7175 (a.u.)^3
     number of atoms/cell      =           44
     number of atomic types    =            7
     number of electrons       =       262.00
     number of Kohn-Sham states=          157
     kinetic-energy cutoff     =      90.0000  Ry
     charge density cutoff     =     720.0000  Ry
     scf convergence threshold =      1.0E-08
     mixing beta               =       0.7000
     number of iterations used =            8  plain     mixing
     energy convergence thresh.=      1.0E-05
     force convergence thresh. =      1.0E-04
     press convergence thresh. =      5.0E-02
     Exchange-correlation= SLA  PW   PBX  PBC
                           (   1   4   3   4   0   0   0)
     nstep                     =          100


     celldm(1)=  10.076666  celldm(2)=   1.735909  celldm(3)=   1.968321
     celldm(4)=   0.000000  celldm(5)=  -0.180309  celldm(6)=   0.000000

     crystal axes: (cart. coord. in units of alat)
               a(1) = (   1.000000   0.000000   0.000000 )  
               a(2) = (   0.000000   1.735909   0.000000 )  
               a(3) = (  -0.354905   0.000000   1.936060 )  

     reciprocal axes: (cart. coord. in units 2 pi/alat)
               b(1) = (  1.000000 -0.000000  0.183313 )  
               b(2) = (  0.000000  0.576067 -0.000000 )  
               b(3) = (  0.000000  0.000000  0.516513 )  


     PseudoPot. # 1 for Al read from file:
     ./../../../pseudos/Al.pbe-n-kjpaw_psl.1.0.0.UPF
     MD5 check sum: 502b6b27b9c6270cab5dd1084b96fa6d
     Pseudo is Projector augmented-wave + core cor, Zval =  3.0
     Generated using &quot;atomic&quot; code by A. Dal Corso  v.6.3
     Shape of augmentation charge: PSQ
     Using radial grid of 1135 points,  6 beta functions with: 
                l(1) =   0
                l(2) =   0
                l(3) =   1
                l(4) =   1
                l(5) =   2
                l(6) =   2
     Q(r) pseudized with 0 coefficients 


     PseudoPot. # 2 for Fe read from file:
     ./../../../pseudos/Fe.pbe-spn-kjpaw_psl.1.0.0.UPF
     MD5 check sum: fc81f059e5c5069939230b1155715ae8
     Pseudo is Projector augmented-wave + core cor, Zval = 16.0
     Generated using &quot;atomic&quot; code by A. Dal Corso  v.6.3
     Shape of augmentation charge: PSQ
     Using radial grid of 1191 points,  6 beta functions with: 
                l(1) =   0
                l(2) =   0
                l(3) =   1
                l(4) =   1
                l(5) =   2
                l(6) =   2
     Q(r) pseudized with 0 coefficients 


     PseudoPot. # 3 for H  read from file:
     ./../../../pseudos/H.pbe-kjpaw_psl.1.0.0.UPF
     MD5 check sum: d81a744832360e4a8af0b0b5b123bc2a
     Pseudo is Projector augmented-wave, Zval =  1.0
     Generated using &quot;atomic&quot; code by A. Dal Corso  v.6.3MaX
     Shape of augmentation charge: PSQ
     Using radial grid of  929 points,  2 beta functions with: 
                l(1) =   0
                l(2) =   0
     Q(r) pseudized with 0 coefficients 


     PseudoPot. # 4 for K  read from file:
     ./../../../pseudos/K.pbe-spn-kjpaw_psl.1.0.0.UPF
     MD5 check sum: 34cc42130a09071ebe376fd42eb21491
     Pseudo is Projector augmented-wave + core cor, Zval =  9.0
     Generated using &quot;atomic&quot; code by A. Dal Corso  v.6.2.2
     Shape of augmentation charge: PSQ
     Using radial grid of 1165 points,  6 beta functions with: 
                l(1) =   0
                l(2) =   0
                l(3) =   1
                l(4) =   1
                l(5) =   2
                l(6) =   2
     Q(r) pseudized with 0 coefficients 


     PseudoPot. # 5 for Mg read from file:
     ./../../../pseudos/Mg.pbe-spnl-kjpaw_psl.1.0.0.UPF
     MD5 check sum: fda14e0d92a6a9a5ebed782e5a4b3067
     Pseudo is Projector augmented-wave + core cor, Zval = 10.0
     Generated using &quot;atomic&quot; code by A. Dal Corso  v.6.3
     Shape of augmentation charge: PSQ
     Using radial grid of 1129 points,  4 beta functions with: 
                l(1) =   0
                l(2) =   0
                l(3) =   1
                l(4) =   1
     Q(r) pseudized with 0 coefficients 


     PseudoPot. # 6 for O  read from file:
     ./../../../pseudos/O.pbe-n-kjpaw_psl.1.0.0.UPF
     MD5 check sum: e99d9cef9b487d1ca56f5b95ecd0fd7a
     Pseudo is Projector augmented-wave + core cor, Zval =  6.0
     Generated using &quot;atomic&quot; code by A. Dal Corso  v.6.3
     Shape of augmentation charge: PSQ
     Using radial grid of 1095 points,  4 beta functions with: 
                l(1) =   0
                l(2) =   0
                l(3) =   1
                l(4) =   1
     Q(r) pseudized with 0 coefficients 


     PseudoPot. # 7 for Si read from file:
     ./../../../pseudos/Si.pbe-n-kjpaw_psl.1.0.0.UPF
     MD5 check sum: c39c59da582df4a0d9f10159256ea34e
     Pseudo is Projector augmented-wave + core cor, Zval =  4.0
     Generated using &quot;atomic&quot; code by A. Dal Corso  v.6.3
     Shape of augmentation charge: PSQ
     Using radial grid of 1141 points,  6 beta functions with: 
                l(1) =   0
                l(2) =   0
                l(3) =   1
                l(4) =   1
                l(5) =   2
                l(6) =   2
     Q(r) pseudized with 0 coefficients 


     atomic species   valence    mass     pseudopotential
     Al                3.00    26.98154     Al( 1.00)
     Fe               16.00    55.84500     Fe( 1.00)
     H                 1.00     1.00794     H ( 1.00)
     K                 9.00    39.09830     K ( 1.00)
     Mg               10.00    24.30500     Mg( 1.00)
     O                 6.00    15.99940     O ( 1.00)
     Si                4.00    28.08550     Si( 1.00)

     Starting magnetic structure 
     atomic species   magnetization
     Al              0.000
     Fe              0.300
     H               0.000
     K               0.000
     Mg              0.000
     O               0.000
     Si              0.000

      2 Sym. Ops. (no inversion) found


                                    s                        frac. trans.

      isym =  1     identity                                     

 cryst.   s( 1) = (     1          0          0      )
                  (     0          1          0      )
                  (     0          0          1      )

 cart.    s( 1) = (  1.0000000  0.0000000  0.0000000 )
                  (  0.0000000  1.0000000  0.0000000 )
                  (  0.0000000  0.0000000  1.0000000 )


      isym =  2     180 deg rotation - cart. axis [0,1,0]        

 cryst.   s( 2) = (    -1          0          0      )
                  (     0          1          0      )
                  (     0          0         -1      )

 cart.    s( 2) = ( -1.0000000  0.0000000  0.0000000 )
                  (  0.0000000  1.0000000  0.0000000 )
                  (  0.0000000  0.0000000 -1.0000000 )


     point group C_2  (2)   
     there are  2 classes
     the character table:

       E     C2   
A      1.00  1.00
B      1.00 -1.00

     the symmetry operations in each class and the name of the first element:

     E        1
          identity                                               
     C2       2
          180 deg rotation - cart. axis [0,1,0]                  

   Cartesian axes

     site n.     atom                  positions (alat units)
         1        K      tau(   1) = (   0.0000000   0.8491907   0.0000000  )
         2        K      tau(   2) = (   0.5000000   0.0112264   0.0000000  )
         3        Mg     tau(   3) = (  -0.1774526   0.0108850   0.9680302  )
         4        Mg     tau(   4) = (  -0.1774526   1.1581727   0.9680302  )
         5        Mg     tau(   5) = (   0.3225474   0.8606593   0.9680302  )
         6        Mg     tau(   6) = (   0.3225474   1.4502904   0.9680302  )
         7        Mg     tau(   7) = (   0.3225474   0.2959455   0.9680302  )
         8        Si     tau(   8) = (   0.0093032   0.2834707   0.4389049  )
         9        Si     tau(   9) = (   0.6357916   0.2834707   1.4971555  )
        10        Si     tau(  10) = (   0.6626119   1.4480519   1.4825222  )
        11        Si     tau(  11) = (  -0.0175181   1.4480519   0.4535381  )
        12        Si     tau(  12) = (   0.4824227   1.1573228   0.4507353  )
        13        Si     tau(  13) = (   0.1626722   1.1573228   1.4853251  )
        14        Al     tau(  14) = (   0.1354448   0.5740311   1.4912780  )
        15        Al     tau(  15) = (   0.5096491   0.5740311   0.4447824  )
        16        O      tau(  16) = (  -0.0004045   0.2739446   0.7445135  )
        17        O      tau(  17) = (   0.6454984   0.2739446   1.1915469  )
        18        O      tau(  18) = (   0.6587345   1.4487315   1.1784980  )
        19        O      tau(  19) = (  -0.0136406   1.4487315   0.7575624  )
        20        O      tau(  20) = (   0.4880060   1.1627478   0.7562369  )
        21        O      tau(  21) = (   0.1570889   1.1627478   1.1798234  )
        22        O      tau(  22) = (   0.1468058   0.5783323   1.1634891  )
        23        O      tau(  23) = (   0.4982880   0.5783323   0.7725712  )
        24        O      tau(  24) = (   0.2861775   0.3559822   0.3302622  )
        25        O      tau(  25) = (   0.3589174   0.3559822   1.6057981  )
        26        O      tau(  26) = (  -0.0557502   1.7296245   0.3321091  )
        27        O      tau(  27) = (   0.7008442   1.7296245   1.6039512  )
        28        O      tau(  28) = (   0.3950377   1.3367586   1.5950035  )
        29        O      tau(  29) = (   0.2500571   1.3367586   0.3410569  )
        30        O      tau(  30) = (   0.7486447   1.2787523   0.3389272  )
        31        O      tau(  31) = (  -0.1035498   1.2787523   1.5971332  )
        32        O      tau(  32) = (   0.4471539   0.8808503   0.3288894  )
        33        O      tau(  33) = (   0.1979400   0.8808503   1.6071709  )
        34        O      tau(  34) = (  -0.1571519   0.4761129   1.6134124  )
        35        O      tau(  35) = (   0.8022468   0.4761129   0.3226480  )
        36        O      tau(  36) = (  -0.0035169   0.8879147   0.7635125  )
        37        O      tau(  37) = (   0.6486117   0.8879147   1.1725480  )
        38        O      tau(  38) = (   0.4923582   1.7351986   0.7747400  )
        39        O      tau(  39) = (   0.1527363   1.7351986   1.1613223  )
        40        H      tau(  40) = (  -0.0020351   0.8554979   0.5852320  )
        41        H      tau(  41) = (   0.6471290   0.8554979   1.3508284  )
        42        H      tau(  42) = (   0.4866752   0.0223673   0.5950375  )
        43        H      tau(  43) = (   0.1584187   0.0223673   1.3410229  )
        44        Fe     tau(  44) = (  -0.1774526   0.5822214   0.9680302  )

     --------------------------------------------
     DFT-D3 Dispersion Correction (3-body terms):
     --------------------------------------------
       Reference C6 values for interpolation: 

         atom   Coordination number   C6
         H          0.912             6.05
         H          0.000            15.18
         O          0.000            31.01
         O          0.993            25.63
         O          1.989            20.74
         Mg         0.000          1366.75
         Mg         0.963           902.54
         Mg         1.950           351.12
         Al         0.000          1081.08
         Al         0.965           875.51
         Al         1.931           513.50
         Al         2.915           307.19
         Si         0.000           635.71
         Si         0.951           540.53
         Si         1.944           466.25
         Si         2.941           443.01
         Si         3.868           299.55
         K          0.000          9967.00
         K          0.977           676.04
         Fe         0.000           982.67
         Fe         1.648           409.99
         Fe         9.138           219.01

       Values used:

         atom   Coordination number  R0_AB[au]  C6      C8
         K         11.406            4.007    676.04 129074.98
         K         11.806            4.007    676.04 129074.98
         Mg        11.306            3.292    351.12  31436.69
         Mg        11.287            3.292    351.12  31436.69
         Mg        11.194            3.292    351.12  31436.69
         Mg        11.563            3.292    351.12  31436.69
         Mg        11.362            3.292    351.12  31436.69
         Si         6.506            3.583    299.55  21425.58
         Si         6.506            3.583    299.55  21425.58
         Si         6.196            3.583    299.55  21425.58
         Si         6.196            3.583    299.55  21425.58
         Si         6.227            3.583    299.55  21425.58
         Si         6.227            3.583    299.55  21425.58
         Al         7.188            3.789    307.19  29441.29
         Al         7.188            3.789    307.19  29441.29
         O          3.465            2.345     20.74    418.58
         O          3.465            2.345     20.74    418.58
         O          3.905            2.345     20.74    418.58
         O          3.905            2.345     20.74    418.58
         O          3.894            2.345     20.74    418.58
         O          3.894            2.345     20.74    418.58
         O          3.828            2.345     20.74    418.58
         O          3.828            2.345     20.74    418.58
         O          3.131            2.345     20.74    418.58
         O          3.131            2.345     20.74    418.58
         O          3.041            2.345     20.74    418.58
         O          3.041            2.345     20.74    418.58
         O          2.834            2.345     20.74    418.58
         O          2.834            2.345     20.74    418.58
         O          2.821            2.345     20.74    418.58
         O          2.821            2.345     20.74    418.58
         O          3.044            2.345     20.74    418.58
         O          3.044            2.345     20.74    418.58
         O          3.162            2.345     20.74    418.58
         O          3.162            2.345     20.74    418.58
         O          3.633            2.345     20.74    418.58
         O          3.633            2.345     20.74    418.58
         O          3.979            2.345     20.74    418.58
         O          3.979            2.345     20.74    418.58
         H          1.208            2.062      6.08     73.52
         H          1.208            2.062      6.08     73.52
         H          1.217            2.062      6.08     73.49
         H          1.217            2.062      6.08     73.49
         Fe         7.259            3.252    219.01  20487.87

         Molecular C6 ( Ry / a.u.^6 ) =    165310.76


   Crystallographic axes

     site n.     atom                  positions (cryst. coord.)
         1        K      tau(   1) = (  0.0000000  0.4891908  0.0000000  )
         2        K      tau(   2) = (  0.5000000  0.0064671  0.0000000  )
         3        Mg     tau(   3) = ( -0.0000000  0.0062705  0.5000000  )
         4        Mg     tau(   4) = ( -0.0000000  0.6671851  0.5000000  )
         5        Mg     tau(   5) = (  0.5000000  0.4957975  0.5000000  )
         6        Mg     tau(   6) = (  0.5000000  0.8354645  0.5000000  )
         7        Mg     tau(   7) = (  0.5000000  0.1704844  0.5000000  )
         8        Si     tau(   8) = (  0.0897602  0.1632981  0.2267000  )
         9        Si     tau(   9) = (  0.9102398  0.1632981  0.7733000  )
        10        Si     tau(  10) = (  0.9343776  0.8341750  0.7657417  )
        11        Si     tau(  11) = (  0.0656213  0.8341750  0.2342583  )
        12        Si     tau(  12) = (  0.5650483  0.6666955  0.2328105  )
        13        Si     tau(  13) = (  0.4349517  0.6666955  0.7671894  )
        14        Al     tau(  14) = (  0.4088155  0.3306804  0.7702642  )
        15        Al     tau(  15) = (  0.5911835  0.3306804  0.2297358  )
        16        O      tau(  16) = (  0.1360745  0.1578105  0.3845507  )
        17        O      tau(  17) = (  0.8639245  0.1578105  0.6154492  )
        18        O      tau(  18) = (  0.8747686  0.8345665  0.6087093  )
        19        O      tau(  19) = (  0.1252304  0.8345665  0.3912907  )
        20        O      tau(  20) = (  0.6266341  0.6698207  0.3906060  )
        21        O      tau(  21) = (  0.3733659  0.6698207  0.6093939  )
        22        O      tau(  22) = (  0.3600886  0.3331582  0.6009570  )
        23        O      tau(  23) = (  0.6399104  0.3331582  0.3990429  )
        24        O      tau(  24) = (  0.3467188  0.2050696  0.1705847  )
        25        O      tau(  25) = (  0.6532812  0.2050696  0.8294153  )
        26        O      tau(  26) = (  0.0051297  0.9963797  0.1715386  )
        27        O      tau(  27) = (  0.9948694  0.9963797  0.8284613  )
        28        O      tau(  28) = (  0.6874227  0.7700626  0.8238397  )
        29        O      tau(  29) = (  0.3125773  0.7700626  0.1761603  )
        30        O      tau(  30) = (  0.8107745  0.7366471  0.1750602  )
        31        O      tau(  31) = (  0.1892255  0.7366471  0.8249398  )
        32        O      tau(  32) = (  0.5074436  0.5074288  0.1698756  )
        33        O      tau(  33) = (  0.4925554  0.5074288  0.8301244  )
        34        O      tau(  34) = (  0.1386076  0.2742729  0.8333482  )
        35        O      tau(  35) = (  0.8613924  0.2742729  0.1666518  )
        36        O      tau(  36) = (  0.1364449  0.5114984  0.3943640  )
        37        O      tau(  37) = (  0.8635551  0.5114984  0.6056361  )
        38        O      tau(  38) = (  0.6343782  0.9995907  0.4001631  )
        39        O      tau(  39) = (  0.3656218  0.9995907  0.5998378  )
        40        H      tau(  40) = (  0.1052455  0.4928242  0.3022798  )
        41        H      tau(  41) = (  0.8947535  0.4928242  0.6977202  )
        42        H      tau(  42) = (  0.5957534  0.0128851  0.3073445  )
        43        H      tau(  43) = (  0.4042456  0.0128851  0.6926555  )
        44        Fe     tau(  44) = ( -0.0000000  0.3353986  0.5000000  )

     number of k points=    20  Gaussian smearing, width (Ry)=  0.0005
                       cart. coord. in units 2pi/alat
        k(    1) = (   0.0000000   0.0000000   0.0000000), wk =   0.0185185
        k(    2) = (   0.0000000   0.0000000   0.1721709), wk =   0.0370370
        k(    3) = (   0.0000000   0.1920223   0.0000000), wk =   0.0370370
        k(    4) = (   0.0000000   0.1920223   0.1721709), wk =   0.0740741
        k(    5) = (   0.1666667   0.0000000   0.0305522), wk =   0.0370370
        k(    6) = (   0.1666667   0.0000000   0.2027231), wk =   0.0370370
        k(    7) = (   0.1666667   0.0000000  -0.1416188), wk =   0.0370370
        k(    8) = (   0.1666667   0.1920223   0.0305522), wk =   0.0740741
        k(    9) = (   0.1666667   0.1920223   0.2027231), wk =   0.0740741
        k(   10) = (   0.1666667   0.1920223  -0.1416188), wk =   0.0740741
        k(   11) = (   0.3333333   0.0000000   0.0611044), wk =   0.0370370
        k(   12) = (   0.3333333   0.0000000   0.2332753), wk =   0.0370370
        k(   13) = (   0.3333333   0.0000000  -0.1110666), wk =   0.0370370
        k(   14) = (   0.3333333   0.1920223   0.0611044), wk =   0.0740741
        k(   15) = (   0.3333333   0.1920223   0.2332753), wk =   0.0740741
        k(   16) = (   0.3333333   0.1920223  -0.1110666), wk =   0.0740741
        k(   17) = (  -0.5000000   0.0000000  -0.0916565), wk =   0.0185185
        k(   18) = (  -0.5000000   0.0000000   0.0805144), wk =   0.0370370
        k(   19) = (  -0.5000000   0.1920223  -0.0916565), wk =   0.0370370
        k(   20) = (  -0.5000000   0.1920223   0.0805144), wk =   0.0740741

                       cryst. coord.
        k(    1) = (   0.0000000   0.0000000   0.0000000), wk =   0.0185185
        k(    2) = (   0.0000000   0.0000000   0.3333333), wk =   0.0370370
        k(    3) = (   0.0000000   0.3333333   0.0000000), wk =   0.0370370
        k(    4) = (   0.0000000   0.3333333   0.3333333), wk =   0.0740741
        k(    5) = (   0.1666667   0.0000000  -0.0000000), wk =   0.0370370
        k(    6) = (   0.1666667   0.0000000   0.3333333), wk =   0.0370370
        k(    7) = (   0.1666667   0.0000000  -0.3333333), wk =   0.0370370
        k(    8) = (   0.1666667   0.3333333  -0.0000000), wk =   0.0740741
        k(    9) = (   0.1666667   0.3333333   0.3333333), wk =   0.0740741
        k(   10) = (   0.1666667   0.3333333  -0.3333333), wk =   0.0740741
        k(   11) = (   0.3333333   0.0000000  -0.0000000), wk =   0.0370370
        k(   12) = (   0.3333333   0.0000000   0.3333333), wk =   0.0370370
        k(   13) = (   0.3333333   0.0000000  -0.3333333), wk =   0.0370370
        k(   14) = (   0.3333333   0.3333333  -0.0000000), wk =   0.0740741
        k(   15) = (   0.3333333   0.3333333   0.3333333), wk =   0.0740741
        k(   16) = (   0.3333333   0.3333333  -0.3333333), wk =   0.0740741
        k(   17) = (  -0.5000000   0.0000000   0.0000000), wk =   0.0185185
        k(   18) = (  -0.5000000   0.0000000   0.3333333), wk =   0.0370370
        k(   19) = (  -0.5000000   0.3333333   0.0000000), wk =   0.0370370
        k(   20) = (  -0.5000000   0.3333333   0.3333333), wk =   0.0740741

     Dense  grid:  1121731 G-vectors     FFT dimensions: (  90, 150, 180)

     Smooth grid:   396609 G-vectors     FFT dimensions: (  64, 108, 120)

     Dynamical RAM for                 wfc:      16.97 MB

     Dynamical RAM for     wfc (w. buffer):     356.28 MB

     Dynamical RAM for           str. fact:      17.12 MB

     Dynamical RAM for           local pot:       0.00 MB

     Dynamical RAM for          nlocal pot:      47.33 MB

     Dynamical RAM for                qrad:      30.14 MB

     Dynamical RAM for          rho,v,vnew:      30.74 MB

     Dynamical RAM for               rhoin:      10.25 MB

     Dynamical RAM for            rho*nmix:      78.25 MB

     Dynamical RAM for           G-vectors:       9.60 MB

     Dynamical RAM for          h,s,v(r/c):       1.13 MB

     Dynamical RAM for          <psi|beta>:       1.05 MB

     Dynamical RAM for                 psi:      33.93 MB

     Dynamical RAM for                hpsi:      33.93 MB

     Dynamical RAM for                spsi:      33.93 MB

     Dynamical RAM for      wfcinit/wfcrot:      40.32 MB

     Dynamical RAM for           addusdens:     260.41 MB

     Dynamical RAM for          addusforce:     315.62 MB

     Dynamical RAM for         addusstress:     248.80 MB

     Estimated static dynamical RAM per process >     537.08 MB

     Estimated max dynamical RAM per process >     930.95 MB

     Estimated total dynamical RAM >      12.19 GB

     Check: negative core charge=   -0.000001
     Generating pointlists ...
     new r_m :   0.1353 (alat units)  1.3634 (a.u.) for type    1
     new r_m :   0.1562 (alat units)  1.5738 (a.u.) for type    2
     new r_m :   0.0747 (alat units)  0.7532 (a.u.) for type    3
     new r_m :   0.2158 (alat units)  2.1744 (a.u.) for type    4
     new r_m :   0.1571 (alat units)  1.5835 (a.u.) for type    5
     new r_m :   0.0747 (alat units)  0.7532 (a.u.) for type    6
     new r_m :   0.1254 (alat units)  1.2638 (a.u.) for type    7

     Initial potential from superposition of free atoms

     starting charge     261.9493, renormalised to     262.0000
     Starting wfcs are  183 randomized atomic wfcs
     Checking if some PAW data can be deallocated... 
       PAW data deallocated on   12 nodes for type:  1
       PAW data deallocated on   13 nodes for type:  2
       PAW data deallocated on   12 nodes for type:  3
       PAW data deallocated on   13 nodes for type:  4
       PAW data deallocated on   12 nodes for type:  5
       PAW data deallocated on    5 nodes for type:  6
       PAW data deallocated on   11 nodes for type:  7

     total cpu time spent up to now is      218.3 secs

     Self-consistent Calculation

     iteration #  1     ecut=    90.00 Ry     beta= 0.70
     Davidson diagonalization with overlap

---- Real-time Memory Report at c_bands before calling an iterative solver
           602 MiB given to the printing process from OS
             0 MiB allocation reported by mallinfo(arena+hblkhd)
         14054 MiB available memory on the node where the printing process lives
------------------
     ethr =  1.00E-02,  avg # of iterations =  7.4

     negative rho (up, down):  0.000E+00 7.646E-05

     total cpu time spent up to now is      988.6 secs

     total energy              =   -2624.89891752 Ry
     estimated scf accuracy    <      11.72173125 Ry

     total magnetization       =     4.00 Bohr mag/cell
     absolute magnetization    =     4.02 Bohr mag/cell

     iteration #  2     ecut=    90.00 Ry     beta= 0.70
     Davidson diagonalization with overlap

---- Real-time Memory Report at c_bands before calling an iterative solver
           885 MiB given to the printing process from OS
             0 MiB allocation reported by mallinfo(arena+hblkhd)
         11267 MiB available memory on the node where the printing process lives
------------------
     ethr =  4.47E-03,  avg # of iterations =  5.1

     negative rho (up, down):  0.000E+00 7.668E-05

     total cpu time spent up to now is     2084.9 secs

     total energy              =   -2629.22399085 Ry
     estimated scf accuracy    <       9.94451297 Ry

     total magnetization       =     4.00 Bohr mag/cell
     absolute magnetization    =     4.37 Bohr mag/cell

     iteration #  3     ecut=    90.00 Ry     beta= 0.70
     Davidson diagonalization with overlap

---- Real-time Memory Report at c_bands before calling an iterative solver
           889 MiB given to the printing process from OS
             0 MiB allocation reported by mallinfo(arena+hblkhd)
         11066 MiB available memory on the node where the printing process lives
------------------
     ethr =  3.80E-03,  avg # of iterations =  2.0

     negative rho (up, down):  0.000E+00 1.451E-04

     total cpu time spent up to now is     2671.8 secs

     total energy              =   -2630.12360293 Ry
     estimated scf accuracy    <       2.92024220 Ry

     total magnetization       =     4.93 Bohr mag/cell
     absolute magnetization    =     5.31 Bohr mag/cell

     iteration #  4     ecut=    90.00 Ry     beta= 0.70
     Davidson diagonalization with overlap

---- Real-time Memory Report at c_bands before calling an iterative solver
           892 MiB given to the printing process from OS
             0 MiB allocation reported by mallinfo(arena+hblkhd)
         11090 MiB available memory on the node where the printing process lives
------------------
     ethr =  1.11E-03,  avg # of iterations =  4.7

     negative rho (up, down):  0.000E+00 1.835E-04

     total cpu time spent up to now is     3418.6 secs

     total energy              =   -2631.06244617 Ry
     estimated scf accuracy    <       0.36637007 Ry

     total magnetization       =     4.00 Bohr mag/cell
     absolute magnetization    =     4.13 Bohr mag/cell

     iteration #  5     ecut=    90.00 Ry     beta= 0.70
     Davidson diagonalization with overlap

---- Real-time Memory Report at c_bands before calling an iterative solver
           896 MiB given to the printing process from OS
             0 MiB allocation reported by mallinfo(arena+hblkhd)
         11096 MiB available memory on the node where the printing process lives
------------------
     c_bands:  1 eigenvalues not converged
     c_bands:  3 eigenvalues not converged
     c_bands:  2 eigenvalues not converged
     c_bands:  1 eigenvalues not converged
     ethr =  1.40E-04,  avg # of iterations = 16.0

     negative rho (up, down):  0.000E+00 2.761E-04

     total cpu time spent up to now is     4506.9 secs

     total energy              =   -2631.28809737 Ry
     estimated scf accuracy    <       0.05625947 Ry

     total magnetization       =     4.00 Bohr mag/cell
     absolute magnetization    =     4.18 Bohr mag/cell

     iteration #  6     ecut=    90.00 Ry     beta= 0.70
     Davidson diagonalization with overlap

---- Real-time Memory Report at c_bands before calling an iterative solver
           900 MiB given to the printing process from OS
             0 MiB allocation reported by mallinfo(arena+hblkhd)
         11135 MiB available memory on the node where the printing process lives
------------------
     c_bands:  2 eigenvalues not converged
     c_bands:  3 eigenvalues not converged
     c_bands:  1 eigenvalues not converged
     c_bands:  1 eigenvalues not converged
     c_bands:  1 eigenvalues not converged
     c_bands:  2 eigenvalues not converged
     c_bands:  1 eigenvalues not converged
     c_bands:  1 eigenvalues not converged
     c_bands:  2 eigenvalues not converged
     ethr =  2.15E-05,  avg # of iterations = 16.6

     negative rho (up, down):  0.000E+00 3.076E-04

     total cpu time spent up to now is     5804.3 secs

     total energy              =   -2631.31378429 Ry
     estimated scf accuracy    <       0.02818529 Ry

     total magnetization       =     4.00 Bohr mag/cell
     absolute magnetization    =     4.07 Bohr mag/cell

     iteration #  7     ecut=    90.00 Ry     beta= 0.70
     Davidson diagonalization with overlap

---- Real-time Memory Report at c_bands before calling an iterative solver
           903 MiB given to the printing process from OS
             0 MiB allocation reported by mallinfo(arena+hblkhd)
         11429 MiB available memory on the node where the printing process lives
------------------
     c_bands:  1 eigenvalues not converged
     c_bands:  1 eigenvalues not converged
     c_bands:  1 eigenvalues not converged
     c_bands:  1 eigenvalues not converged
     c_bands:  4 eigenvalues not converged
     c_bands:  1 eigenvalues not converged
     ethr =  1.08E-05,  avg # of iterations = 12.8

     negative rho (up, down):  0.000E+00 3.008E-04

     total cpu time spent up to now is     6525.3 secs

     total energy              =   -2631.31510267 Ry
     estimated scf accuracy    <       0.01013395 Ry

     total magnetization       =     4.00 Bohr mag/cell
     absolute magnetization    =     4.06 Bohr mag/cell

     iteration #  8     ecut=    90.00 Ry     beta= 0.70
     Davidson diagonalization with overlap

---- Real-time Memory Report at c_bands before calling an iterative solver
           907 MiB given to the printing process from OS
             0 MiB allocation reported by mallinfo(arena+hblkhd)
         10959 MiB available memory on the node where the printing process lives
------------------
     c_bands:  1 eigenvalues not converged
     c_bands:  1 eigenvalues not converged
     c_bands:  1 eigenvalues not converged
     ethr =  3.87E-06,  avg # of iterations = 12.3

     negative rho (up, down):  0.000E+00 2.973E-04

     total cpu time spent up to now is     7415.1 secs

     total energy              =   -2631.31717934 Ry
     estimated scf accuracy    <       0.00281786 Ry

     total magnetization       =     4.00 Bohr mag/cell
     absolute magnetization    =     4.05 Bohr mag/cell

     iteration #  9     ecut=    90.00 Ry     beta= 0.70
     Davidson diagonalization with overlap

---- Real-time Memory Report at c_bands before calling an iterative solver
           911 MiB given to the printing process from OS
             0 MiB allocation reported by mallinfo(arena+hblkhd)
         11411 MiB available memory on the node where the printing process lives
------------------
     c_bands:  1 eigenvalues not converged
     c_bands:  1 eigenvalues not converged
     ethr =  1.08E-06,  avg # of iterations =  9.3

     negative rho (up, down):  0.000E+00 2.949E-04

     total cpu time spent up to now is     8219.8 secs

     total energy              =   -2631.31774500 Ry
     estimated scf accuracy    <       0.00068883 Ry

     total magnetization       =     4.00 Bohr mag/cell
     absolute magnetization    =     4.06 Bohr mag/cell

     iteration # 10     ecut=    90.00 Ry     beta= 0.70
     Davidson diagonalization with overlap

---- Real-time Memory Report at c_bands before calling an iterative solver
           914 MiB given to the printing process from OS
             0 MiB allocation reported by mallinfo(arena+hblkhd)
         10944 MiB available memory on the node where the printing process lives
------------------
     c_bands:  2 eigenvalues not converged
     ethr =  2.63E-07,  avg # of iterations =  6.7

     negative rho (up, down):  0.000E+00 2.948E-04

     total cpu time spent up to now is     9289.8 secs

     total energy              =   -2631.31817365 Ry
     estimated scf accuracy    <       0.00019429 Ry

     total magnetization       =     4.00 Bohr mag/cell
     absolute magnetization    =     4.05 Bohr mag/cell

     iteration # 11     ecut=    90.00 Ry     beta= 0.70
     Davidson diagonalization with overlap

---- Real-time Memory Report at c_bands before calling an iterative solver
           914 MiB given to the printing process from OS
             0 MiB allocation reported by mallinfo(arena+hblkhd)
         11233 MiB available memory on the node where the printing process lives
------------------
     ethr =  7.42E-08,  avg # of iterations =  4.7

     negative rho (up, down):  0.000E+00 2.932E-04

     total cpu time spent up to now is     9981.0 secs

     total energy              =   -2631.31818147 Ry
     estimated scf accuracy    <       0.00005110 Ry

     total magnetization       =     4.00 Bohr mag/cell
     absolute magnetization    =     4.05 Bohr mag/cell

     iteration # 12     ecut=    90.00 Ry     beta= 0.70
     Davidson diagonalization with overlap

---- Real-time Memory Report at c_bands before calling an iterative solver
           914 MiB given to the printing process from OS
             0 MiB allocation reported by mallinfo(arena+hblkhd)
         11177 MiB available memory on the node where the printing process lives
------------------
     ethr =  1.95E-08,  avg # of iterations =  6.5

     negative rho (up, down):  0.000E+00 2.922E-04

     total cpu time spent up to now is    11157.0 secs

     total energy              =   -2631.31822403 Ry
     estimated scf accuracy    <       0.00004826 Ry

     total magnetization       =     4.00 Bohr mag/cell
     absolute magnetization    =     4.05 Bohr mag/cell

     iteration # 13     ecut=    90.00 Ry     beta= 0.70
     Davidson diagonalization with overlap

---- Real-time Memory Report at c_bands before calling an iterative solver
           914 MiB given to the printing process from OS
             0 MiB allocation reported by mallinfo(arena+hblkhd)
         11202 MiB available memory on the node where the printing process lives
------------------
     ethr =  1.84E-08,  avg # of iterations =  1.9

     negative rho (up, down):  0.000E+00 2.921E-04

     total cpu time spent up to now is    11718.9 secs

     total energy              =   -2631.31821990 Ry
     estimated scf accuracy    <       0.00001648 Ry

     total magnetization       =     4.00 Bohr mag/cell
     absolute magnetization    =     4.05 Bohr mag/cell

     iteration # 14     ecut=    90.00 Ry     beta= 0.70
     Davidson diagonalization with overlap

---- Real-time Memory Report at c_bands before calling an iterative solver
           914 MiB given to the printing process from OS
             0 MiB allocation reported by mallinfo(arena+hblkhd)
         11077 MiB available memory on the node where the printing process lives
------------------
     ethr =  6.29E-09,  avg # of iterations =  5.5

     negative rho (up, down):  0.000E+00 2.920E-04

     total cpu time spent up to now is    12546.4 secs

     total energy              =   -2631.31822632 Ry
     estimated scf accuracy    <       0.00000104 Ry

     total magnetization       =     4.00 Bohr mag/cell
     absolute magnetization    =     4.05 Bohr mag/cell

     iteration # 15     ecut=    90.00 Ry     beta= 0.70
     Davidson diagonalization with overlap

---- Real-time Memory Report at c_bands before calling an iterative solver
           914 MiB given to the printing process from OS
             0 MiB allocation reported by mallinfo(arena+hblkhd)
         11007 MiB available memory on the node where the printing process lives
------------------
     ethr =  3.98E-10,  avg # of iterations =  8.7

     negative rho (up, down):  0.000E+00 2.919E-04

     total cpu time spent up to now is    13863.3 secs

     total energy              =   -2631.31822739 Ry
     estimated scf accuracy    <       0.00000076 Ry

     total magnetization       =     4.00 Bohr mag/cell
     absolute magnetization    =     4.05 Bohr mag/cell

     iteration # 16     ecut=    90.00 Ry     beta= 0.70
     Davidson diagonalization with overlap

---- Real-time Memory Report at c_bands before calling an iterative solver
           914 MiB given to the printing process from OS
             0 MiB allocation reported by mallinfo(arena+hblkhd)
         10901 MiB available memory on the node where the printing process lives
------------------
     ethr =  2.92E-10,  avg # of iterations =  1.9

     negative rho (up, down):  0.000E+00 2.919E-04

     total cpu time spent up to now is    14438.5 secs

     total energy              =   -2631.31822735 Ry
     estimated scf accuracy    <       0.00000025 Ry

     total magnetization       =     4.00 Bohr mag/cell
     absolute magnetization    =     4.05 Bohr mag/cell

     iteration # 17     ecut=    90.00 Ry     beta= 0.70
     Davidson diagonalization with overlap

---- Real-time Memory Report at c_bands before calling an iterative solver
           914 MiB given to the printing process from OS
             0 MiB allocation reported by mallinfo(arena+hblkhd)
         11201 MiB available memory on the node where the printing process lives
------------------
     ethr =  9.66E-11,  avg # of iterations =  5.7

     negative rho (up, down):  0.000E+00 2.920E-04

     total cpu time spent up to now is    15404.4 secs

     total energy              =   -2631.31822749 Ry
     estimated scf accuracy    <       0.00000006 Ry

     total magnetization       =     4.00 Bohr mag/cell
     absolute magnetization    =     4.04 Bohr mag/cell

     iteration # 18     ecut=    90.00 Ry     beta= 0.70
     Davidson diagonalization with overlap

---- Real-time Memory Report at c_bands before calling an iterative solver
           914 MiB given to the printing process from OS
             0 MiB allocation reported by mallinfo(arena+hblkhd)
         10970 MiB available memory on the node where the printing process lives
------------------
     ethr =  2.36E-11,  avg # of iterations =  8.2

     negative rho (up, down):  0.000E+00 2.920E-04

     total cpu time spent up to now is    16422.4 secs

     total energy              =   -2631.31822750 Ry
     estimated scf accuracy    <       0.00000010 Ry

     total magnetization       =     4.00 Bohr mag/cell
     absolute magnetization    =     4.04 Bohr mag/cell

     iteration # 19     ecut=    90.00 Ry     beta= 0.70
     Davidson diagonalization with overlap

---- Real-time Memory Report at c_bands before calling an iterative solver
           914 MiB given to the printing process from OS
             0 MiB allocation reported by mallinfo(arena+hblkhd)
         10938 MiB available memory on the node where the printing process lives
------------------
     ethr =  2.36E-11,  avg # of iterations =  4.4

     negative rho (up, down):  0.000E+00 2.920E-04

     total cpu time spent up to now is    17176.1 secs

     total energy              =   -2631.31822752 Ry
     estimated scf accuracy    <       0.00000002 Ry

     total magnetization       =     4.00 Bohr mag/cell
     absolute magnetization    =     4.04 Bohr mag/cell

     iteration # 20     ecut=    90.00 Ry     beta= 0.70
     Davidson diagonalization with overlap

---- Real-time Memory Report at c_bands before calling an iterative solver
           914 MiB given to the printing process from OS
             0 MiB allocation reported by mallinfo(arena+hblkhd)
         11198 MiB available memory on the node where the printing process lives
------------------
     ethr =  7.48E-12,  avg # of iterations =  4.3

     negative rho (up, down):  0.000E+00 2.921E-04

     total cpu time spent up to now is    18074.6 secs

     total energy              =   -2631.31822752 Ry
     estimated scf accuracy    <       0.00000003 Ry

     total magnetization       =     4.00 Bohr mag/cell
     absolute magnetization    =     4.04 Bohr mag/cell

     iteration # 21     ecut=    90.00 Ry     beta= 0.70
     Davidson diagonalization with overlap

---- Real-time Memory Report at c_bands before calling an iterative solver
           914 MiB given to the printing process from OS
             0 MiB allocation reported by mallinfo(arena+hblkhd)
         11370 MiB available memory on the node where the printing process lives
------------------
     ethr =  7.48E-12,  avg # of iterations =  2.0

     negative rho (up, down):  0.000E+00 2.921E-04

     Magnetic moment per site  (integrated on atomic sphere of radius R)
     atom   1 (R=0.216)  charge=  7.5516  magn=  0.0000
     atom   2 (R=0.216)  charge=  7.5554  magn=  0.0001
     atom   3 (R=0.157)  charge=  8.1106  magn= -0.0002
     atom   4 (R=0.157)  charge=  8.1074  magn= -0.0000
     atom   5 (R=0.157)  charge=  8.1100  magn=  0.0007
     atom   6 (R=0.157)  charge=  8.1062  magn= -0.0000
     atom   7 (R=0.157)  charge=  8.1133  magn=  0.0006
     atom   8 (R=0.125)  charge=  0.5520  magn=  0.0008
     atom   9 (R=0.125)  charge=  0.5520  magn=  0.0008
     atom  10 (R=0.125)  charge=  0.5439  magn= -0.0000
     atom  11 (R=0.125)  charge=  0.5439  magn= -0.0000
     atom  12 (R=0.125)  charge=  0.5438  magn=  0.0000
     atom  13 (R=0.125)  charge=  0.5438  magn=  0.0000
     atom  14 (R=0.135)  charge=  0.3432  magn=  0.0014
     atom  15 (R=0.135)  charge=  0.3432  magn=  0.0014
     atom  16 (R=0.075)  charge=  1.9394  magn=  0.0156
     atom  17 (R=0.075)  charge=  1.9394  magn=  0.0156
     atom  18 (R=0.075)  charge=  1.9437  magn=  0.0004
     atom  19 (R=0.075)  charge=  1.9437  magn=  0.0004
     atom  20 (R=0.075)  charge=  1.9416  magn=  0.0004
     atom  21 (R=0.075)  charge=  1.9416  magn=  0.0004
     atom  22 (R=0.075)  charge=  1.9358  magn=  0.0275
     atom  23 (R=0.075)  charge=  1.9358  magn=  0.0275
     atom  24 (R=0.075)  charge=  1.9437  magn=  0.0009
     atom  25 (R=0.075)  charge=  1.9437  magn=  0.0009
     atom  26 (R=0.075)  charge=  1.9491  magn=  0.0008
     atom  27 (R=0.075)  charge=  1.9491  magn=  0.0008
     atom  28 (R=0.075)  charge=  1.9474  magn=  0.0001
     atom  29 (R=0.075)  charge=  1.9474  magn=  0.0001
     atom  30 (R=0.075)  charge=  1.9477  magn=  0.0001
     atom  31 (R=0.075)  charge=  1.9477  magn=  0.0001
     atom  32 (R=0.075)  charge=  1.9437  magn=  0.0005
     atom  33 (R=0.075)  charge=  1.9437  magn=  0.0005
     atom  34 (R=0.075)  charge=  1.9442  magn= -0.0000
     atom  35 (R=0.075)  charge=  1.9442  magn= -0.0000
     atom  36 (R=0.075)  charge=  1.9394  magn=  0.0210
     atom  37 (R=0.075)  charge=  1.9394  magn=  0.0210
     atom  38 (R=0.075)  charge=  1.9428  magn=  0.0002
     atom  39 (R=0.075)  charge=  1.9428  magn=  0.0002
     atom  40 (R=0.075)  charge=  0.4009  magn=  0.0001
     atom  41 (R=0.075)  charge=  0.4009  magn=  0.0001
     atom  42 (R=0.075)  charge=  0.4003  magn=  0.0000
     atom  43 (R=0.075)  charge=  0.4003  magn=  0.0000
     atom  44 (R=0.156)  charge= 13.2699  magn=  3.2808

     total cpu time spent up to now is    18660.4 secs

     End of self-consistent calculation

 ------ SPIN UP ------------


          k = 0.0000 0.0000 0.0000 ( 49603 PWs)   bands (ev):

   -81.6012 -67.9812 -67.9529 -67.7742 -67.6304 -67.4670 -48.6088 -47.2887
   -47.0941 -34.7628 -34.7422 -34.7371 -34.7234 -34.7223 -34.7002 -34.5525
   -34.5420 -34.5219 -34.4024 -34.3951 -34.3866 -34.2433 -34.2288 -34.2227
   -23.5910 -23.5740 -15.2936 -15.2523 -14.3851 -14.3502 -13.8509 -13.8385
   -13.6897 -13.5806 -13.5132 -13.3865 -13.1908 -13.1479 -13.1145 -13.1072
   -13.0031 -12.8992 -12.7726 -12.7140 -12.6065 -12.5892 -12.5236 -12.4264
   -11.8691 -11.5837  -7.1293  -7.1046  -7.0622  -7.0572  -7.0499  -7.0467
    -4.5535  -4.5178  -2.6924  -2.6154  -2.0873  -1.6215  -1.4605  -1.4283
    -1.3383  -1.2831  -0.9293  -0.9094  -0.8502  -0.6604  -0.6209  -0.4508
    -0.2597  -0.1857  -0.0840   0.1276   0.2573   0.2696   0.4204   0.6269
     0.6272   0.7829   0.8145   0.9223   1.1306   1.1696   1.1813   1.3510
     1.3959   1.5400   1.5618   1.7654   1.8148   1.8230   1.8430   1.9433
     1.9469   2.1762   2.2056   2.3092   2.3214   2.3471   2.4011   2.4923
     2.5376   2.5503   2.7065   2.7637   2.8038   2.8542   2.8838   2.9823
     3.0374   3.0850   3.1115   3.1381   3.2206   3.2335   3.2586   3.3541
     3.4413   3.5171   3.5268   3.5895   3.6252   3.7608   3.9588   4.0044
     4.8019   5.0954   5.9427   6.3989   6.6422   8.6273  10.1079  10.7830
    11.0550  11.4462  11.5469  11.7142  12.0070  12.1255  12.5030  12.5327
    12.6334  12.8800  12.9241  13.0594  13.1274  13.1517  13.3012  13.3361
    13.4432  13.4608  13.5171  13.6111  13.8276

     occupation numbers 
     1.0000   1.0000   1.0000   1.0000   1.0000   1.0000   1.0000   1.0000
     1.0000   1.0000   1.0000   1.0000   1.0000   1.0000   1.0000   1.0000
     1.0000   1.0000   1.0000   1.0000   1.0000   1.0000   1.0000   1.0000
     1.0000   1.0000   1.0000   1.0000   1.0000   1.0000   1.0000   1.0000
     1.0000   1.0000   1.0000   1.0000   1.0000   1.0000   1.0000   1.0000
     1.0000   1.0000   1.0000   1.0000   1.0000   1.0000   1.0000   1.0000
     1.0000   1.0000   1.0000   1.0000   1.0000   1.0000   1.0000   1.0000
     1.0000   1.0000   1.0000   1.0000   1.0000   1.0000   1.0000   1.0000
     1.0000   1.0000   1.0000   1.0000   1.0000   1.0000   1.0000   1.0000
     1.0000   1.0000   1.0000   1.0000   1.0000   1.0000   1.0000   1.0000
     1.0000   1.0000   1.0000   1.0000   1.0000   1.0000   1.0000   1.0000
     1.0000   1.0000   1.0000   1.0000   1.0000   1.0000   1.0000   1.0000
     1.0000   1.0000   1.0000   1.0000   1.0000   1.0000   1.0000   1.0000
     1.0000   1.0000   1.0000   1.0000   1.0000   1.0000   1.0000   1.0000
     1.0000   1.0000   1.0000   1.0000   1.0000   1.0000   1.0000   1.0000
     1.0000   1.0000   1.0000   1.0000   1.0000   1.0000   1.0000   1.0000
     1.0000   1.0000   1.0000   1.0000   1.0000   0.0000   0.0000   0.0000
     0.0000   0.0000   0.0000   0.0000   0.0000   0.0000   0.0000   0.0000
     0.0000   0.0000   0.0000   0.0000   0.0000   0.0000   0.0000   0.0000
     0.0000   0.0000   0.0000   0.0000   0.0000

          k = 0.0000 0.0000 0.1722 ( 49593 PWs)   bands (ev):

   -81.6012 -67.9812 -67.9529 -67.7742 -67.6304 -67.4670 -48.6088 -47.2887
   -47.0941 -34.7628 -34.7422 -34.7371 -34.7234 -34.7223 -34.7002 -34.5525
   -34.5420 -34.5219 -34.4024 -34.3951 -34.3866 -34.2433 -34.2288 -34.2227
   -23.5910 -23.5740 -15.2851 -15.2612 -14.3767 -14.3590 -13.8513 -13.8381
   -13.6830 -13.5922 -13.5090 -13.3838 -13.1913 -13.1489 -13.1175 -13.1052
   -12.9995 -12.9015 -12.7688 -12.7178 -12.6083 -12.5872 -12.5198 -12.4305
   -11.8689 -11.5842  -7.1293  -7.1046  -7.0622  -7.0572  -7.0499  -7.0466
    -4.5503  -4.5213  -2.6747  -2.6356  -2.0660  -1.6133  -1.4552  -1.4331
    -1.3356  -1.2943  -0.9359  -0.8911  -0.8636  -0.6696  -0.6014  -0.5285
    -0.2312  -0.1733  -0.1229   0.0861   0.2547   0.2613   0.4422   0.6363
     0.6613   0.7850   0.8482   0.8852   1.1113   1.1989   1.2174   1.2936
     1.4788   1.5543   1.6399   1.8058   1.8159   1.8313   1.8518   1.9110
     1.9886   2.1048   2.2032   2.2315   2.3124   2.3427   2.3800   2.4644
     2.5029   2.5723   2.7229   2.7630   2.8075   2.8479   2.8786   2.9972
     3.0331   3.0767   3.0971   3.1371   3.2010   3.2491   3.3055   3.3588
     3.4412   3.4773   3.5111   3.5936   3.6159   3.7970   3.9597   4.0011
     4.8029   5.0918   5.9425   6.3975   6.6439   8.9244   9.6266  10.8810
    11.1030  11.2804  11.5948  11.6291  12.1891  12.3397  12.5339  12.5765
    12.7511  12.8067  12.8955  12.9338  13.0205  13.1938  13.3048  13.3665
    13.4115  13.4427  13.6342  13.6481  13.6806

     occupation numbers 
     1.0000   1.0000   1.0000   1.0000   1.0000   1.0000   1.0000   1.0000
     1.0000   1.0000   1.0000   1.0000   1.0000   1.0000   1.0000   1.0000
     1.0000   1.0000   1.0000   1.0000   1.0000   1.0000   1.0000   1.0000
     1.0000   1.0000   1.0000   1.0000   1.0000   1.0000   1.0000   1.0000
     1.0000   1.0000   1.0000   1.0000   1.0000   1.0000   1.0000   1.0000
     1.0000   1.0000   1.0000   1.0000   1.0000   1.0000   1.0000   1.0000
     1.0000   1.0000   1.0000   1.0000   1.0000   1.0000   1.0000   1.0000
     1.0000   1.0000   1.0000   1.0000   1.0000   1.0000   1.0000   1.0000
     1.0000   1.0000   1.0000   1.0000   1.0000   1.0000   1.0000   1.0000
     1.0000   1.0000   1.0000   1.0000   1.0000   1.0000   1.0000   1.0000
     1.0000   1.0000   1.0000   1.0000   1.0000   1.0000   1.0000   1.0000
     1.0000   1.0000   1.0000   1.0000   1.0000   1.0000   1.0000   1.0000
     1.0000   1.0000   1.0000   1.0000   1.0000   1.0000   1.0000   1.0000
     1.0000   1.0000   1.0000   1.0000   1.0000   1.0000   1.0000   1.0000
     1.0000   1.0000   1.0000   1.0000   1.0000   1.0000   1.0000   1.0000
     1.0000   1.0000   1.0000   1.0000   1.0000   1.0000   1.0000   1.0000
     1.0000   1.0000   1.0000   1.0000   1.0000   0.0000   0.0000   0.0000
     0.0000   0.0000   0.0000   0.0000   0.0000   0.0000   0.0000   0.0000
     0.0000   0.0000   0.0000   0.0000   0.0000   0.0000   0.0000   0.0000
     0.0000   0.0000   0.0000   0.0000   0.0000

          k = 0.0000 0.1920 0.0000 ( 49535 PWs)   bands (ev):

   -81.6012 -67.9812 -67.9529 -67.7742 -67.6304 -67.4670 -48.6088 -47.2887
   -47.0941 -34.7628 -34.7422 -34.7371 -34.7234 -34.7223 -34.7002 -34.5525
   -34.5420 -34.5219 -34.4024 -34.3950 -34.3866 -34.2433 -34.2288 -34.2227
   -23.5910 -23.5740 -15.2882 -15.2471 -14.4215 -14.3820 -13.8510 -13.8386
   -13.5999 -13.5028 -13.4752 -13.3983 -13.2328 -13.1820 -13.1674 -13.1383
   -13.0125 -12.8957 -12.7620 -12.7097 -12.6062 -12.5890 -12.5177 -12.4222
   -11.8672 -11.5830  -7.1277  -7.1064  -7.0613  -7.0561  -7.0512  -7.0473
    -4.5122  -4.4750  -2.8467  -2.7678  -2.0301  -1.6929  -1.3319  -1.3282
    -1.2599  -1.2215  -0.9780  -0.9419  -0.9001  -0.6132  -0.5773  -0.4264
    -0.3574  -0.1278  -0.0810   0.1277   0.2074   0.2137   0.4345   0.5757
     0.6613   0.7147   0.7985   0.8932   1.0527   1.2437   1.2644   1.3806
     1.4171   1.5621   1.6595   1.7700   1.7713   1.8485   1.9185   2.0235
     2.0344   2.1443   2.1561   2.2329   2.3223   2.3371   2.4521   2.4817
     2.5321   2.6063   2.6879   2.7164   2.7566   2.8192   2.9141   2.9573
     3.0368   3.0831   3.1333   3.1686   3.2164   3.2527   3.2937   3.3479
     3.4237   3.4913   3.5125   3.5751   3.5975   3.7839   3.7917   3.9396
     4.8033   5.0865   5.9512   6.3690   6.6552   9.0230   9.9441  10.3560
    10.9394  11.3548  11.7182  12.0436  12.1251  12.2006  12.4223  12.5792
    12.6070  12.8036  12.9500  12.9689  13.0675  13.2032  13.2684  13.3159
    13.3955  13.4301  13.6302  13.7976  13.8222

     occupation numbers 
     1.0000   1.0000   1.0000   1.0000   1.0000   1.0000   1.0000   1.0000
     1.0000   1.0000   1.0000   1.0000   1.0000   1.0000   1.0000   1.0000
     1.0000   1.0000   1.0000   1.0000   1.0000   1.0000   1.0000   1.0000
     1.0000   1.0000   1.0000   1.0000   1.0000   1.0000   1.0000   1.0000
     1.0000   1.0000   1.0000   1.0000   1.0000   1.0000   1.0000   1.0000
     1.0000   1.0000   1.0000   1.0000   1.0000   1.0000   1.0000   1.0000
     1.0000   1.0000   1.0000   1.0000   1.0000   1.0000   1.0000   1.0000
     1.0000   1.0000   1.0000   1.0000   1.0000   1.0000   1.0000   1.0000
     1.0000   1.0000   1.0000   1.0000   1.0000   1.0000   1.0000   1.0000
     1.0000   1.0000   1.0000   1.0000   1.0000   1.0000   1.0000   1.0000
     1.0000   1.0000   1.0000   1.0000   1.0000   1.0000   1.0000   1.0000
     1.0000   1.0000   1.0000   1.0000   1.0000   1.0000   1.0000   1.0000
     1.0000   1.0000   1.0000   1.0000   1.0000   1.0000   1.0000   1.0000
     1.0000   1.0000   1.0000   1.0000   1.0000   1.0000   1.0000   1.0000
     1.0000   1.0000   1.0000   1.0000   1.0000   1.0000   1.0000   1.0000
     1.0000   1.0000   1.0000   1.0000   1.0000   1.0000   1.0000   1.0000
     1.0000   1.0000   1.0000   1.0000   1.0000   0.0000   0.0000   0.0000
     0.0000   0.0000   0.0000   0.0000   0.0000   0.0000   0.0000   0.0000
     0.0000   0.0000   0.0000   0.0000   0.0000   0.0000   0.0000   0.0000
     0.0000   0.0000   0.0000   0.0000   0.0000

          k = 0.0000 0.1920 0.1722 ( 49591 PWs)   bands (ev):

   -81.6012 -67.9812 -67.9529 -67.7742 -67.6304 -67.4670 -48.6088 -47.2887
   -47.0941 -34.7628 -34.7422 -34.7371 -34.7234 -34.7223 -34.7002 -34.5525
   -34.5420 -34.5219 -34.4024 -34.3950 -34.3866 -34.2433 -34.2288 -34.2227
   -23.5910 -23.5740 -15.2795 -15.2563 -14.4130 -14.3911 -13.8514 -13.8382
   -13.5954 -13.4995 -13.4863 -13.3919 -13.2391 -13.1749 -13.1688 -13.1395
   -13.0108 -12.8980 -12.7583 -12.7134 -12.6081 -12.5870 -12.5136 -12.4262
   -11.8670 -11.5835  -7.1277  -7.1064  -7.0613  -7.0561  -7.0512  -7.0473
    -4.5066  -4.4808  -2.8279  -2.7883  -2.0116  -1.6858  -1.3310  -1.3268
    -1.2535  -1.2315  -0.9743  -0.9458  -0.9052  -0.6432  -0.5494  -0.4921
    -0.3214  -0.1383  -0.1226   0.1028   0.2003   0.2162   0.4628   0.5713
     0.6928   0.7236   0.7572   0.9340   1.1007   1.2238   1.3018   1.3703
     1.5046   1.5445   1.6977   1.7431   1.8083   1.8286   1.9307   2.0071
     2.0550   2.1106   2.1668   2.2193   2.2790   2.3251   2.4279   2.4706
     2.5317   2.5977   2.6675   2.7271   2.7444   2.8264   2.8703   2.9664
     3.0133   3.1037   3.1392   3.1806   3.2322   3.2456   3.2901   3.3611
     3.4075   3.4766   3.5113   3.5802   3.5880   3.7974   3.8199   3.9413
     4.8045   5.0821   5.9511   6.3654   6.6565   9.2832   9.9211  10.1264
    10.6271  11.3561  11.7239  12.0818  12.2359  12.4565  12.5378  12.6163
    12.7495  12.8324  12.9116  12.9911  13.0647  13.1125  13.2097  13.3298
    13.3535  13.4762  13.6082  13.6930  13.8088

     occupation numbers 
     1.0000   1.0000   1.0000   1.0000   1.0000   1.0000   1.0000   1.0000
     1.0000   1.0000   1.0000   1.0000   1.0000   1.0000   1.0000   1.0000
     1.0000   1.0000   1.0000   1.0000   1.0000   1.0000   1.0000   1.0000
     1.0000   1.0000   1.0000   1.0000   1.0000   1.0000   1.0000   1.0000
     1.0000   1.0000   1.0000   1.0000   1.0000   1.0000   1.0000   1.0000
     1.0000   1.0000   1.0000   1.0000   1.0000   1.0000   1.0000   1.0000
     1.0000   1.0000   1.0000   1.0000   1.0000   1.0000   1.0000   1.0000
     1.0000   1.0000   1.0000   1.0000   1.0000   1.0000   1.0000   1.0000
     1.0000   1.0000   1.0000   1.0000   1.0000   1.0000   1.0000   1.0000
     1.0000   1.0000   1.0000   1.0000   1.0000   1.0000   1.0000   1.0000
     1.0000   1.0000   1.0000   1.0000   1.0000   1.0000   1.0000   1.0000
     1.0000   1.0000   1.0000   1.0000   1.0000   1.0000   1.0000   1.0000
     1.0000   1.0000   1.0000   1.0000   1.0000   1.0000   1.0000   1.0000
     1.0000   1.0000   1.0000   1.0000   1.0000   1.0000   1.0000   1.0000
     1.0000   1.0000   1.0000   1.0000   1.0000   1.0000   1.0000   1.0000
     1.0000   1.0000   1.0000   1.0000   1.0000   1.0000   1.0000   1.0000
     1.0000   1.0000   1.0000   1.0000   1.0000   0.0000   0.0000   0.0000
     0.0000   0.0000   0.0000   0.0000   0.0000   0.0000   0.0000   0.0000
     0.0000   0.0000   0.0000   0.0000   0.0000   0.0000   0.0000   0.0000
     0.0000   0.0000   0.0000   0.0000   0.0000

          k = 0.1667 0.0000 0.0306 ( 49577 PWs)   bands (ev):

   -81.6012 -67.9812 -67.9529 -67.7742 -67.6304 -67.4670 -48.6088 -47.2887
   -47.0941 -34.7625 -34.7432 -34.7363 -34.7243 -34.7215 -34.7003 -34.5525
   -34.5420 -34.5219 -34.4024 -34.3950 -34.3866 -34.2433 -34.2288 -34.2227
   -23.5909 -23.5739 -15.2361 -15.1958 -14.4002 -14.3690 -13.9727 -13.9520
   -13.6181 -13.5048 -13.4667 -13.3696 -13.2050 -13.1580 -13.1122 -13.1081
   -12.9964 -12.9060 -12.7903 -12.7339 -12.6650 -12.6274 -12.5048 -12.4143
   -11.8528 -11.5989  -7.1304  -7.1064  -7.0617  -7.0556  -7.0499  -7.0460
    -4.3963  -4.3551  -2.6529  -2.5735  -2.0923  -1.7297  -1.6729  -1.5935
    -1.1565  -1.0976  -0.9965  -0.9399  -0.8081  -0.6194  -0.5949  -0.4421
    -0.2284  -0.1811  -0.0910   0.0964   0.2214   0.3018   0.3809   0.5030
     0.6753   0.8028   0.8145   0.9116   1.0454   1.1439   1.2407   1.2899
     1.3563   1.5668   1.6503   1.6716   1.7517   1.8266   1.9211   1.9677
     2.0671   2.1288   2.2123   2.2797   2.3092   2.3583   2.4080   2.5033
     2.5489   2.6024   2.6682   2.7426   2.8080   2.8570   2.9197   2.9536
     2.9991   3.0520   3.0923   3.1186   3.1478   3.2415   3.3087   3.3771
     3.4215   3.4813   3.4960   3.5372   3.5704   3.7069   3.7802   3.9772
     4.8628   5.0635   5.9459   6.3988   6.6315   8.9502  10.2844  10.8689
    11.2052  11.4832  11.5915  11.8864  12.0751  12.1701  12.4777  12.5602
    12.6622  12.7496  12.8728  13.0506  13.0756  13.1864  13.1947  13.2515
    13.3783  13.5758  13.6019  13.7217  13.7745

     occupation numbers 
     1.0000   1.0000   1.0000   1.0000   1.0000   1.0000   1.0000   1.0000
     1.0000   1.0000   1.0000   1.0000   1.0000   1.0000   1.0000   1.0000
     1.0000   1.0000   1.0000   1.0000   1.0000   1.0000   1.0000   1.0000
     1.0000   1.0000   1.0000   1.0000   1.0000   1.0000   1.0000   1.0000
     1.0000   1.0000   1.0000   1.0000   1.0000   1.0000   1.0000   1.0000
     1.0000   1.0000   1.0000   1.0000   1.0000   1.0000   1.0000   1.0000
     1.0000   1.0000   1.0000   1.0000   1.0000   1.0000   1.0000   1.0000
     1.0000   1.0000   1.0000   1.0000   1.0000   1.0000   1.0000   1.0000
     1.0000   1.0000   1.0000   1.0000   1.0000   1.0000   1.0000   1.0000
     1.0000   1.0000   1.0000   1.0000   1.0000   1.0000   1.0000   1.0000
     1.0000   1.0000   1.0000   1.0000   1.0000   1.0000   1.0000   1.0000
     1.0000   1.0000   1.0000   1.0000   1.0000   1.0000   1.0000   1.0000
     1.0000   1.0000   1.0000   1.0000   1.0000   1.0000   1.0000   1.0000
     1.0000   1.0000   1.0000   1.0000   1.0000   1.0000   1.0000   1.0000
     1.0000   1.0000   1.0000   1.0000   1.0000   1.0000   1.0000   1.0000
     1.0000   1.0000   1.0000   1.0000   1.0000   1.0000   1.0000   1.0000
     1.0000   1.0000   1.0000   1.0000   1.0000   0.0000   0.0000   0.0000
     0.0000   0.0000   0.0000   0.0000   0.0000   0.0000   0.0000   0.0000
     0.0000   0.0000   0.0000   0.0000   0.0000   0.0000   0.0000   0.0000
     0.0000   0.0000   0.0000   0.0000   0.0000

          k = 0.1667 0.0000 0.2027 ( 49607 PWs)   bands (ev):

   -81.6012 -67.9812 -67.9529 -67.7742 -67.6304 -67.4670 -48.6088 -47.2887
   -47.0941 -34.7625 -34.7432 -34.7363 -34.7243 -34.7215 -34.7003 -34.5525
   -34.5420 -34.5219 -34.4024 -34.3950 -34.3866 -34.2433 -34.2288 -34.2227
   -23.5909 -23.5739 -15.2254 -15.2070 -14.3918 -14.3777 -13.9687 -13.9561
   -13.6120 -13.5167 -13.4624 -13.3659 -13.2047 -13.1583 -13.1223 -13.1004
   -12.9929 -12.9085 -12.7867 -12.7389 -12.6592 -12.6322 -12.4992 -12.4197
   -11.8523 -11.5995  -7.1305  -7.1063  -7.0617  -7.0555  -7.0499  -7.0459
    -4.3978  -4.3537  -2.6375  -2.5920  -2.0693  -1.7558  -1.6522  -1.5842
    -1.1522  -1.1040  -0.9970  -0.9520  -0.7892  -0.6232  -0.5800  -0.5310
    -0.2013  -0.1516  -0.1306   0.0486   0.2153   0.3050   0.3625   0.5484
     0.6919   0.7900   0.8397   0.9092   1.0350   1.1858   1.2084   1.3341
     1.3739   1.6135   1.6657   1.7044   1.7573   1.8895   1.9253   1.9753
     2.0093   2.1250   2.1702   2.2286   2.2743   2.3707   2.3977   2.4646
     2.5193   2.6371   2.6738   2.7131   2.8128   2.8804   2.8992   2.9679
     2.9762   3.0405   3.0759   3.1206   3.1815   3.2677   3.3346   3.3508
     3.4177   3.4512   3.4926   3.5413   3.5533   3.7267   3.8113   3.9749
     4.8632   5.0599   5.9453   6.3980   6.6315   9.3102   9.7314  10.9558
    11.2361  11.3442  11.6481  11.7852  12.0382  12.4105  12.5778  12.6053
    12.7515  12.8810  12.9204  12.9889  13.0560  13.1045  13.2376  13.2949
    13.3386  13.4278  13.5357  13.5813  13.8612

     occupation numbers 
     1.0000   1.0000   1.0000   1.0000   1.0000   1.0000   1.0000   1.0000
     1.0000   1.0000   1.0000   1.0000   1.0000   1.0000   1.0000   1.0000
     1.0000   1.0000   1.0000   1.0000   1.0000   1.0000   1.0000   1.0000
     1.0000   1.0000   1.0000   1.0000   1.0000   1.0000   1.0000   1.0000
     1.0000   1.0000   1.0000   1.0000   1.0000   1.0000   1.0000   1.0000
     1.0000   1.0000   1.0000   1.0000   1.0000   1.0000   1.0000   1.0000
     1.0000   1.0000   1.0000   1.0000   1.0000   1.0000   1.0000   1.0000
     1.0000   1.0000   1.0000   1.0000   1.0000   1.0000   1.0000   1.0000
     1.0000   1.0000   1.0000   1.0000   1.0000   1.0000   1.0000   1.0000
     1.0000   1.0000   1.0000   1.0000   1.0000   1.0000   1.0000   1.0000
     1.0000   1.0000   1.0000   1.0000   1.0000   1.0000   1.0000   1.0000
     1.0000   1.0000   1.0000   1.0000   1.0000   1.0000   1.0000   1.0000
     1.0000   1.0000   1.0000   1.0000   1.0000   1.0000   1.0000   1.0000
     1.0000   1.0000   1.0000   1.0000   1.0000   1.0000   1.0000   1.0000
     1.0000   1.0000   1.0000   1.0000   1.0000   1.0000   1.0000   1.0000
     1.0000   1.0000   1.0000   1.0000   1.0000   1.0000   1.0000   1.0000
     1.0000   1.0000   1.0000   1.0000   1.0000   0.0000   0.0000   0.0000
     0.0000   0.0000   0.0000   0.0000   0.0000   0.0000   0.0000   0.0000
     0.0000   0.0000   0.0000   0.0000   0.0000   0.0000   0.0000   0.0000
     0.0000   0.0000   0.0000   0.0000   0.0000

          k = 0.1667 0.0000-0.1416 ( 49612 PWs)   bands (ev):

   -81.6012 -67.9812 -67.9529 -67.7742 -67.6304 -67.4670 -48.6088 -47.2887
   -47.0941 -34.7625 -34.7432 -34.7363 -34.7243 -34.7215 -34.7003 -34.5525
   -34.5420 -34.5219 -34.4024 -34.3950 -34.3866 -34.2433 -34.2288 -34.2227
   -23.5909 -23.5739 -15.2298 -15.2024 -14.3935 -14.3760 -13.9679 -13.9568
   -13.6143 -13.5100 -13.4673 -13.3664 -13.2051 -13.1577 -13.1193 -13.1022
   -12.9944 -12.9082 -12.7846 -12.7409 -12.6516 -12.6396 -12.4999 -12.4185
   -11.8523 -11.5994  -7.1305  -7.1064  -7.0617  -7.0555  -7.0499  -7.0459
    -4.3813  -4.3704  -2.6362  -2.5920  -2.0785  -1.7515  -1.6535  -1.5879
    -1.1477  -1.1099  -0.9908  -0.9321  -0.8096  -0.6164  -0.5949  -0.5076
    -0.2215  -0.1597  -0.1182   0.0565   0.2304   0.2964   0.4108   0.5278
     0.6670   0.8023   0.8242   0.9124   1.0539   1.1677   1.2339   1.2739
     1.4133   1.6206   1.6317   1.6931   1.7456   1.8155   1.9207   1.9727
     2.0099   2.1479   2.1963   2.2531   2.2785   2.3658   2.4133   2.4691
     2.5421   2.6147   2.6993   2.7431   2.8461   2.8840   2.9107   2.9372
     2.9853   3.0422   3.0711   3.1476   3.1630   3.2077   3.3096   3.3798
     3.3969   3.4477   3.4807   3.5573   3.5706   3.7178   3.8051   3.9803
     4.8605   5.0635   5.9458   6.3979   6.6334   9.1160   9.9862  10.9848
    11.2807  11.3378  11.6729  11.7798  12.0326  12.3858  12.5284  12.5713
    12.7231  12.7548  12.8659  12.9575  13.0921  13.1032  13.1844  13.2734
    13.3952  13.5023  13.5521  13.6832  13.8126

     occupation numbers 
     1.0000   1.0000   1.0000   1.0000   1.0000   1.0000   1.0000   1.0000
     1.0000   1.0000   1.0000   1.0000   1.0000   1.0000   1.0000   1.0000
     1.0000   1.0000   1.0000   1.0000   1.0000   1.0000   1.0000   1.0000
     1.0000   1.0000   1.0000   1.0000   1.0000   1.0000   1.0000   1.0000
     1.0000   1.0000   1.0000   1.0000   1.0000   1.0000   1.0000   1.0000
     1.0000   1.0000   1.0000   1.0000   1.0000   1.0000   1.0000   1.0000
     1.0000   1.0000   1.0000   1.0000   1.0000   1.0000   1.0000   1.0000
     1.0000   1.0000   1.0000   1.0000   1.0000   1.0000   1.0000   1.0000
     1.0000   1.0000   1.0000   1.0000   1.0000   1.0000   1.0000   1.0000
     1.0000   1.0000   1.0000   1.0000   1.0000   1.0000   1.0000   1.0000
     1.0000   1.0000   1.0000   1.0000   1.0000   1.0000   1.0000   1.0000
     1.0000   1.0000   1.0000   1.0000   1.0000   1.0000   1.0000   1.0000
     1.0000   1.0000   1.0000   1.0000   1.0000   1.0000   1.0000   1.0000
     1.0000   1.0000   1.0000   1.0000   1.0000   1.0000   1.0000   1.0000
     1.0000   1.0000   1.0000   1.0000   1.0000   1.0000   1.0000   1.0000
     1.0000   1.0000   1.0000   1.0000   1.0000   1.0000   1.0000   1.0000
     1.0000   1.0000   1.0000   1.0000   1.0000   0.0000   0.0000   0.0000
     0.0000   0.0000   0.0000   0.0000   0.0000   0.0000   0.0000   0.0000
     0.0000   0.0000   0.0000   0.0000   0.0000   0.0000   0.0000   0.0000
     0.0000   0.0000   0.0000   0.0000   0.0000

          k = 0.1667 0.1920 0.0306 ( 49547 PWs)   bands (ev):

   -81.6012 -67.9812 -67.9529 -67.7742 -67.6304 -67.4670 -48.6088 -47.2887
   -47.0941 -34.7625 -34.7432 -34.7363 -34.7243 -34.7215 -34.7003 -34.5525
   -34.5420 -34.5219 -34.4024 -34.3950 -34.3866 -34.2433 -34.2288 -34.2227
   -23.5909 -23.5739 -15.2308 -15.1909 -14.4322 -14.3968 -13.9575 -13.9403
   -13.5603 -13.4799 -13.4205 -13.3601 -13.2201 -13.1933 -13.1632 -13.1409
   -13.0114 -12.9021 -12.7842 -12.7205 -12.6597 -12.6310 -12.5017 -12.4121
   -11.8514 -11.5985  -7.1295  -7.1076  -7.0609  -7.0546  -7.0509  -7.0464
    -4.3579  -4.3156  -2.8210  -2.7421  -2.0123  -1.6679  -1.5701  -1.5247
    -1.1485  -1.1078  -1.0312  -0.9439  -0.7959  -0.5872  -0.5468  -0.4052
    -0.2947  -0.1554  -0.1039   0.0914   0.1713   0.2639   0.4031   0.4644
     0.6569   0.7320   0.8225   0.9066   1.0117   1.1742   1.2733   1.3314
     1.3809   1.5654   1.6322   1.6872   1.7766   1.8348   1.9642   2.0254
     2.1002   2.1674   2.1931   2.2328   2.2952   2.3973   2.4525   2.4981
     2.5563   2.6117   2.6762   2.7303   2.7973   2.8495   2.8956   2.9289
     3.0255   3.0576   3.1084   3.1294   3.1796   3.2090   3.2720   3.3596
     3.3899   3.4437   3.5086   3.5188   3.5592   3.6550   3.7951   3.8949
     4.8645   5.0534   5.9538   6.3703   6.6469   9.2984  10.1354  10.5097
    11.0472  11.4176  11.7236  12.1130  12.1580  12.2848  12.4121  12.5972
    12.6400  12.7960  12.8454  12.9797  13.0281  13.1750  13.2245  13.3255
    13.4222  13.4593  13.6617  13.8142  13.9337

     occupation numbers 
     1.0000   1.0000   1.0000   1.0000   1.0000   1.0000   1.0000   1.0000
     1.0000   1.0000   1.0000   1.0000   1.0000   1.0000   1.0000   1.0000
     1.0000   1.0000   1.0000   1.0000   1.0000   1.0000   1.0000   1.0000
     1.0000   1.0000   1.0000   1.0000   1.0000   1.0000   1.0000   1.0000
     1.0000   1.0000   1.0000   1.0000   1.0000   1.0000   1.0000   1.0000
     1.0000   1.0000   1.0000   1.0000   1.0000   1.0000   1.0000   1.0000
     1.0000   1.0000   1.0000   1.0000   1.0000   1.0000   1.0000   1.0000
     1.0000   1.0000   1.0000   1.0000   1.0000   1.0000   1.0000   1.0000
     1.0000   1.0000   1.0000   1.0000   1.0000   1.0000   1.0000   1.0000
     1.0000   1.0000   1.0000   1.0000   1.0000   1.0000   1.0000   1.0000
     1.0000   1.0000   1.0000   1.0000   1.0000   1.0000   1.0000   1.0000
     1.0000   1.0000   1.0000   1.0000   1.0000   1.0000   1.0000   1.0000
     1.0000   1.0000   1.0000   1.0000   1.0000   1.0000   1.0000   1.0000
     1.0000   1.0000   1.0000   1.0000   1.0000   1.0000   1.0000   1.0000
     1.0000   1.0000   1.0000   1.0000   1.0000   1.0000   1.0000   1.0000
     1.0000   1.0000   1.0000   1.0000   1.0000   1.0000   1.0000   1.0000
     1.0000   1.0000   1.0000   1.0000   1.0000   0.0000   0.0000   0.0000
     0.0000   0.0000   0.0000   0.0000   0.0000   0.0000   0.0000   0.0000
     0.0000   0.0000   0.0000   0.0000   0.0000   0.0000   0.0000   0.0000
     0.0000   0.0000   0.0000   0.0000   0.0000

          k = 0.1667 0.1920 0.2027 ( 49568 PWs)   bands (ev):

   -81.6012 -67.9812 -67.9529 -67.7742 -67.6304 -67.4670 -48.6088 -47.2887
   -47.0941 -34.7625 -34.7432 -34.7363 -34.7243 -34.7215 -34.7003 -34.5525
   -34.5420 -34.5219 -34.4024 -34.3950 -34.3866 -34.2433 -34.2288 -34.2227
   -23.5909 -23.5739 -15.2199 -15.2023 -14.4223 -14.4072 -13.9558 -13.9421
   -13.5561 -13.4771 -13.4325 -13.3514 -13.2236 -13.1962 -13.1612 -13.1379
   -13.0099 -12.9048 -12.7812 -12.7250 -12.6561 -12.6335 -12.4960 -12.4174
   -11.8510 -11.5991  -7.1296  -7.1075  -7.0609  -7.0546  -7.0509  -7.0464
    -4.3569  -4.3167  -2.8015  -2.7634  -1.9943  -1.6603  -1.5872  -1.5087
    -1.1530  -1.1028  -1.0330  -0.9509  -0.7792  -0.6301  -0.5235  -0.4573
    -0.2645  -0.1728  -0.1194   0.0561   0.1698   0.2643   0.3898   0.4902
     0.6540   0.7282   0.8543   0.9199   1.0246   1.2110   1.2676   1.3509
     1.4475   1.5422   1.6106   1.7141   1.8115   1.8585   1.9782   2.0350
     2.0732   2.1492   2.1766   2.2145   2.2627   2.3731   2.4283   2.5068
     2.5339   2.6016   2.6534   2.7540   2.7867   2.8259   2.8629   2.9742
     3.0177   3.0371   3.1170   3.1329   3.1952   3.2314   3.2770   3.3564
     3.3814   3.4284   3.4976   3.5076   3.5564   3.6951   3.8135   3.8993
     4.8648   5.0492   5.9534   6.3680   6.6468   9.6070  10.0204  10.3358
    10.7177  11.4052  11.7194  12.1414  12.2344  12.3649  12.6053  12.7184
    12.7857  12.8801  12.9269  12.9696  13.0482  13.1079  13.1983  13.2632
    13.2877  13.4831  13.5547  13.7562  13.8116

     occupation numbers 
     1.0000   1.0000   1.0000   1.0000   1.0000   1.0000   1.0000   1.0000
     1.0000   1.0000   1.0000   1.0000   1.0000   1.0000   1.0000   1.0000
     1.0000   1.0000   1.0000   1.0000   1.0000   1.0000   1.0000   1.0000
     1.0000   1.0000   1.0000   1.0000   1.0000   1.0000   1.0000   1.0000
     1.0000   1.0000   1.0000   1.0000   1.0000   1.0000   1.0000   1.0000
     1.0000   1.0000   1.0000   1.0000   1.0000   1.0000   1.0000   1.0000
     1.0000   1.0000   1.0000   1.0000   1.0000   1.0000   1.0000   1.0000
     1.0000   1.0000   1.0000   1.0000   1.0000   1.0000   1.0000   1.0000
     1.0000   1.0000   1.0000   1.0000   1.0000   1.0000   1.0000   1.0000
     1.0000   1.0000   1.0000   1.0000   1.0000   1.0000   1.0000   1.0000
     1.0000   1.0000   1.0000   1.0000   1.0000   1.0000   1.0000   1.0000
     1.0000   1.0000   1.0000   1.0000   1.0000   1.0000   1.0000   1.0000
     1.0000   1.0000   1.0000   1.0000   1.0000   1.0000   1.0000   1.0000
     1.0000   1.0000   1.0000   1.0000   1.0000   1.0000   1.0000   1.0000
     1.0000   1.0000   1.0000   1.0000   1.0000   1.0000   1.0000   1.0000
     1.0000   1.0000   1.0000   1.0000   1.0000   1.0000   1.0000   1.0000
     1.0000   1.0000   1.0000   1.0000   1.0000   0.0000   0.0000   0.0000
     0.0000   0.0000   0.0000   0.0000   0.0000   0.0000   0.0000   0.0000
     0.0000   0.0000   0.0000   0.0000   0.0000   0.0000   0.0000   0.0000
     0.0000   0.0000   0.0000   0.0000   0.0000

          k = 0.1667 0.1920-0.1416 ( 49571 PWs)   bands (ev):

   -81.6012 -67.9812 -67.9529 -67.7742 -67.6304 -67.4670 -48.6088 -47.2887
   -47.0941 -34.7625 -34.7432 -34.7363 -34.7243 -34.7215 -34.7003 -34.5525
   -34.5420 -34.5219 -34.4024 -34.3950 -34.3866 -34.2433 -34.2288 -34.2227
   -23.5909 -23.5739 -15.2245 -15.1976 -14.4251 -14.4044 -13.9534 -13.9445
   -13.5577 -13.4774 -13.4280 -13.3554 -13.2245 -13.1902 -13.1652 -13.1391
   -13.0099 -12.9043 -12.7786 -12.7268 -12.6483 -12.6418 -12.4968 -12.4163
   -11.8509 -11.5990  -7.1296  -7.1076  -7.0609  -7.0546  -7.0509  -7.0464
    -4.3411  -4.3327  -2.8028  -2.7617  -2.0013  -1.6629  -1.5869  -1.5083
    -1.1385  -1.1200  -1.0114  -0.9468  -0.8079  -0.6061  -0.5361  -0.4411
    -0.2858  -0.1688  -0.1228   0.0734   0.1792   0.2557   0.4317   0.4873
     0.6296   0.7299   0.8329   0.9312   1.0283   1.1680   1.2962   1.3552
     1.4239   1.5562   1.6017   1.7323   1.7759   1.8397   1.9403   2.0164
     2.0549   2.1510   2.1990   2.2412   2.2886   2.3810   2.4463   2.5054
     2.5726   2.6016   2.6765   2.7146   2.8075   2.8398   2.8448   2.9751
     3.0343   3.0649   3.1032   3.1500   3.1823   3.2098   3.2807   3.3386
     3.3930   3.4209   3.4716   3.5236   3.5510   3.6875   3.8089   3.8993
     4.8622   5.0536   5.9538   6.3671   6.6474   9.4566  10.2279  10.2717
    10.8313  11.4638  11.7531  12.1054  12.1609  12.3912  12.5334  12.5945
    12.7513  12.8063  12.8838  12.9591  13.0753  13.1466  13.2068  13.3074
    13.3647  13.4240  13.5212  13.7806  13.8729

     occupation numbers 
     1.0000   1.0000   1.0000   1.0000   1.0000   1.0000   1.0000   1.0000
     1.0000   1.0000   1.0000   1.0000   1.0000   1.0000   1.0000   1.0000
     1.0000   1.0000   1.0000   1.0000   1.0000   1.0000   1.0000   1.0000
     1.0000   1.0000   1.0000   1.0000   1.0000   1.0000   1.0000   1.0000
     1.0000   1.0000   1.0000   1.0000   1.0000   1.0000   1.0000   1.0000
     1.0000   1.0000   1.0000   1.0000   1.0000   1.0000   1.0000   1.0000
     1.0000   1.0000   1.0000   1.0000   1.0000   1.0000   1.0000   1.0000
     1.0000   1.0000   1.0000   1.0000   1.0000   1.0000   1.0000   1.0000
     1.0000   1.0000   1.0000   1.0000   1.0000   1.0000   1.0000   1.0000
     1.0000   1.0000   1.0000   1.0000   1.0000   1.0000   1.0000   1.0000
     1.0000   1.0000   1.0000   1.0000   1.0000   1.0000   1.0000   1.0000
     1.0000   1.0000   1.0000   1.0000   1.0000   1.0000   1.0000   1.0000
     1.0000   1.0000   1.0000   1.0000   1.0000   1.0000   1.0000   1.0000
     1.0000   1.0000   1.0000   1.0000   1.0000   1.0000   1.0000   1.0000
     1.0000   1.0000   1.0000   1.0000   1.0000   1.0000   1.0000   1.0000
     1.0000   1.0000   1.0000   1.0000   1.0000   1.0000   1.0000   1.0000
     1.0000   1.0000   1.0000   1.0000   1.0000   0.0000   0.0000   0.0000
     0.0000   0.0000   0.0000   0.0000   0.0000   0.0000   0.0000   0.0000
     0.0000   0.0000   0.0000   0.0000   0.0000   0.0000   0.0000   0.0000
     0.0000   0.0000   0.0000   0.0000   0.0000

          k = 0.3333 0.0000 0.0611 ( 49555 PWs)   bands (ev):

   -81.6012 -67.9812 -67.9529 -67.7742 -67.6304 -67.4670 -48.6088 -47.2887
   -47.0941 -34.7618 -34.7448 -34.7350 -34.7252 -34.7208 -34.7004 -34.5525
   -34.5420 -34.5219 -34.4025 -34.3949 -34.3867 -34.2434 -34.2289 -34.2226
   -23.5907 -23.5737 -15.0776 -15.0411 -14.5134 -14.4883 -14.0959 -14.0726
   -13.5173 -13.4067 -13.3538 -13.3303 -13.2453 -13.1939 -13.1268 -13.1236
   -13.0003 -12.9220 -12.8455 -12.8049 -12.7310 -12.6615 -12.4853 -12.4065
   -11.8161 -11.6363  -7.1333  -7.1096  -7.0605  -7.0523  -7.0496  -7.0447
    -3.9828  -3.9272  -2.7853  -2.6876  -2.0922  -1.9579  -1.6813  -1.5291
    -1.1380  -1.1038  -1.0293  -0.9787  -0.6731  -0.5568  -0.5092  -0.3996
    -0.3162  -0.1641  -0.0535   0.0818   0.1980   0.2971   0.3869   0.4644
     0.5361   0.7065   0.8137   0.8679   1.0532   1.1384   1.2112   1.2649
     1.3117   1.4043   1.5232   1.6393   1.7333   1.9069   1.9997   2.0608
     2.1173   2.1547   2.2485   2.3069   2.3775   2.3955   2.4239   2.5322
     2.5865   2.6271   2.6426   2.7402   2.7931   2.8328   2.8497   2.8914
     2.9463   2.9843   3.0437   3.1221   3.1894   3.2283   3.2703   3.3200
     3.3577   3.3771   3.4274   3.4626   3.5168   3.5670   3.6742   3.9013
     4.9548   4.9971   5.9522   6.3997   6.6198   9.7275  10.7089  11.0224
    11.4630  11.5372  11.6851  11.7854  12.2396  12.2801  12.2963  12.4838
    12.6592  12.7566  12.7972  13.0572  13.0914  13.1486  13.1784  13.2250
    13.4723  13.5772  13.6674  13.8878  13.9135

     occupation numbers 
     1.0000   1.0000   1.0000   1.0000   1.0000   1.0000   1.0000   1.0000
     1.0000   1.0000   1.0000   1.0000   1.0000   1.0000   1.0000   1.0000
     1.0000   1.0000   1.0000   1.0000   1.0000   1.0000   1.0000   1.0000
     1.0000   1.0000   1.0000   1.0000   1.0000   1.0000   1.0000   1.0000
     1.0000   1.0000   1.0000   1.0000   1.0000   1.0000   1.0000   1.0000
     1.0000   1.0000   1.0000   1.0000   1.0000   1.0000   1.0000   1.0000
     1.0000   1.0000   1.0000   1.0000   1.0000   1.0000   1.0000   1.0000
     1.0000   1.0000   1.0000   1.0000   1.0000   1.0000   1.0000   1.0000
     1.0000   1.0000   1.0000   1.0000   1.0000   1.0000   1.0000   1.0000
     1.0000   1.0000   1.0000   1.0000   1.0000   1.0000   1.0000   1.0000
     1.0000   1.0000   1.0000   1.0000   1.0000   1.0000   1.0000   1.0000
     1.0000   1.0000   1.0000   1.0000   1.0000   1.0000   1.0000   1.0000
     1.0000   1.0000   1.0000   1.0000   1.0000   1.0000   1.0000   1.0000
     1.0000   1.0000   1.0000   1.0000   1.0000   1.0000   1.0000   1.0000
     1.0000   1.0000   1.0000   1.0000   1.0000   1.0000   1.0000   1.0000
     1.0000   1.0000   1.0000   1.0000   1.0000   1.0000   1.0000   1.0000
     1.0000   1.0000   1.0000   1.0000   1.0000   0.0000   0.0000   0.0000
     0.0000   0.0000   0.0000   0.0000   0.0000   0.0000   0.0000   0.0000
     0.0000   0.0000   0.0000   0.0000   0.0000   0.0000   0.0000   0.0000
     0.0000   0.0000   0.0000   0.0000   0.0000

          k = 0.3333 0.0000 0.2333 ( 49570 PWs)   bands (ev):

   -81.6012 -67.9812 -67.9529 -67.7742 -67.6304 -67.4670 -48.6088 -47.2887
   -47.0941 -34.7618 -34.7448 -34.7351 -34.7252 -34.7208 -34.7004 -34.5525
[...]
     atom    4 type  5   force =    -0.00000000   -0.00000073   -0.00000000
     atom    5 type  5   force =     0.00000000    0.00000377   -0.00000000
     atom    6 type  5   force =    -0.00000000    0.00000054   -0.00000000
     atom    7 type  5   force =    -0.00000000    0.00000148   -0.00000000
     atom    8 type  7   force =     0.00000008    0.00000022    0.00000041
     atom    9 type  7   force =    -0.00000008    0.00000022   -0.00000041
     atom   10 type  7   force =    -0.00000008   -0.00000008   -0.00000115
     atom   11 type  7   force =     0.00000008   -0.00000008    0.00000115
     atom   12 type  7   force =    -0.00000003    0.00000010    0.00000140
     atom   13 type  7   force =     0.00000003    0.00000010   -0.00000140
     atom   14 type  1   force =    -0.00000000   -0.00000020   -0.00000029
     atom   15 type  1   force =     0.00000000   -0.00000020    0.00000029
     atom   16 type  6   force =     0.00000033   -0.00000082   -0.00000006
     atom   17 type  6   force =    -0.00000033   -0.00000082    0.00000006
     atom   18 type  6   force =    -0.00000041    0.00000048   -0.00000182
     atom   19 type  6   force =     0.00000041    0.00000048    0.00000182
     atom   20 type  6   force =    -0.00000001    0.00000002    0.00000170
     atom   21 type  6   force =     0.00000001    0.00000002   -0.00000170
     atom   22 type  6   force =     0.00000012   -0.00000012    0.00000011
     atom   23 type  6   force =    -0.00000012   -0.00000012   -0.00000011
     atom   24 type  6   force =     0.00000015   -0.00000041   -0.00000034
     atom   25 type  6   force =    -0.00000015   -0.00000041    0.00000034
     atom   26 type  6   force =    -0.00000109    0.00000080   -0.00000041
     atom   27 type  6   force =     0.00000109    0.00000080    0.00000041
     atom   28 type  6   force =    -0.00000066    0.00000060   -0.00000010
     atom   29 type  6   force =     0.00000066    0.00000060    0.00000010
     atom   30 type  6   force =     0.00000038   -0.00000099    0.00000000
     atom   31 type  6   force =    -0.00000038   -0.00000099   -0.00000000
     atom   32 type  6   force =    -0.00000086   -0.00000051   -0.00000028
     atom   33 type  6   force =     0.00000086   -0.00000051    0.00000028
     atom   34 type  6   force =    -0.00000012    0.00000015    0.00000056
     atom   35 type  6   force =     0.00000012    0.00000015   -0.00000056
     atom   36 type  6   force =     0.00000041    0.00000085   -0.00000014
     atom   37 type  6   force =    -0.00000041    0.00000085    0.00000014
     atom   38 type  6   force =    -0.00000033   -0.00000008    0.00000147
     atom   39 type  6   force =     0.00000033   -0.00000008   -0.00000147
     atom   40 type  3   force =     0.00000003   -0.00000001   -0.00000023
     atom   41 type  3   force =    -0.00000003   -0.00000001    0.00000023
     atom   42 type  3   force =    -0.00000004    0.00000004   -0.00000012
     atom   43 type  3   force =     0.00000004    0.00000004    0.00000012
     atom   44 type  2   force =    -0.00000000    0.00000032   -0.00000000

     DFT-D3 dispersion contribution to forces:
     atom    1 type  4   force =    -0.00000002    0.00127581   -0.00000000
     atom    2 type  4   force =    -0.00000000   -0.00090399   -0.00000000
     atom    3 type  5   force =    -0.00000000    0.00046131   -0.00000001
     atom    4 type  5   force =     0.00000000   -0.00130335    0.00000001
     atom    5 type  5   force =    -0.00000000   -0.00050011   -0.00000001
     atom    6 type  5   force =     0.00000000    0.00112955    0.00000000
     atom    7 type  5   force =     0.00000000   -0.00032756    0.00000000
     atom    8 type  7   force =    -0.00003180   -0.00004963   -0.00008603
     atom    9 type  7   force =     0.00003180   -0.00004963    0.00008603
     atom   10 type  7   force =     0.00003525    0.00001477    0.00022059
     atom   11 type  7   force =    -0.00003526    0.00001477   -0.00022059
     atom   12 type  7   force =     0.00002732    0.00025996   -0.00021794
     atom   13 type  7   force =    -0.00002732    0.00025996    0.00021794
     atom   14 type  1   force =    -0.00017878    0.00004712   -0.00097501
     atom   15 type  1   force =     0.00017878    0.00004712    0.00097501
     atom   16 type  6   force =    -0.00005292    0.00012292    0.00051029
     atom   17 type  6   force =     0.00005292    0.00012293   -0.00051028
     atom   18 type  6   force =     0.00000453    0.00000366   -0.00040969
     atom   19 type  6   force =    -0.00000453    0.00000366    0.00040970
     atom   20 type  6   force =    -0.00002147   -0.00000033    0.00041511
     atom   21 type  6   force =     0.00002146   -0.00000033   -0.00041511
     atom   22 type  6   force =    -0.00007535   -0.00001707    0.00001464
     atom   23 type  6   force =     0.00007536   -0.00001706   -0.00001464
     atom   24 type  6   force =    -0.00019554    0.00103055    0.00030122
     atom   25 type  6   force =     0.00019554    0.00103055   -0.00030122
     atom   26 type  6   force =     0.00086042    0.00006926    0.00021533
     atom   27 type  6   force =    -0.00086041    0.00006926   -0.00021532
     atom   28 type  6   force =     0.00030847   -0.00044522    0.00005900
     atom   29 type  6   force =    -0.00030847   -0.00044521   -0.00005900
     atom   30 type  6   force =    -0.00012833    0.00021049   -0.00011781
     atom   31 type  6   force =     0.00012833    0.00021050    0.00011780
     atom   32 type  6   force =     0.00094672   -0.00042904    0.00039043
     atom   33 type  6   force =    -0.00094671   -0.00042904   -0.00039043
     atom   34 type  6   force =     0.00070390   -0.00060744   -0.00044712
     atom   35 type  6   force =    -0.00070390   -0.00060743    0.00044712
     atom   36 type  6   force =    -0.00010565   -0.00016293   -0.00036219
     atom   37 type  6   force =     0.00010565   -0.00016293    0.00036218
     atom   38 type  6   force =     0.00002119   -0.00000325   -0.00051976
     atom   39 type  6   force =    -0.00002120   -0.00000325    0.00051974
     atom   40 type  3   force =    -0.00010545    0.00012335   -0.00010057
     atom   41 type  3   force =     0.00010546    0.00012335    0.00010057
     atom   42 type  3   force =     0.00009198   -0.00041910   -0.00031312
     atom   43 type  3   force =    -0.00009197   -0.00041910    0.00031312
     atom   44 type  2   force =     0.00000000    0.00067213    0.00000000

     Total force =     0.001912     Total SCF correction =     0.000008

     DFT-D3 dispersion Force =     0.004564


     Computing stress (Cartesian axis) and pressure


     negative rho (up, down):  0.000E+00 2.928E-04
          total   stress  (Ry/bohr**3)                   (kbar)     P=       -0.12
  -0.00000140   0.00000000  -0.00000025           -0.21        0.00       -0.04
   0.00000000  -0.00000130   0.00000000            0.00       -0.19        0.00
  -0.00000025   0.00000000   0.00000029           -0.04        0.00        0.04

     kinetic stress (kbar)  19903.11      0.00    -53.22
                                0.00  19992.89      0.00
                              -53.22      0.00  19686.56

     local   stress (kbar) -41531.33     -0.01   -336.48
                               -0.01 -40702.01      0.00
                             -336.48      0.00  20095.14

     nonloc. stress (kbar)   3780.77      0.00      6.98
                                0.00   3770.13      0.00
                                6.98      0.00   3758.92

     hartree stress (kbar)  23267.22     -0.00    124.62
                               -0.00  22934.16      0.00
                              124.62      0.00  -6836.42

     exc-cor stress (kbar)  -2797.14      0.00     -0.01
                                0.00  -2797.15      0.00
                               -0.01      0.00  -2794.05

     corecor stress (kbar)  -1842.03     -0.00      0.45
                               -0.00  -1842.68     -0.00
                                0.45     -0.00  -1844.00

     ewald   stress (kbar)   -766.32      0.01    257.60
                                0.01  -1340.92      0.00
                              257.60      0.00 -32055.40

     hubbard stress (kbar)      0.00      0.00      0.00
                                0.00      0.00      0.00
                                0.00      0.00      0.00

     DFT-D   stress (kbar)    -14.49     -0.00      0.03
                               -0.00    -14.60     -0.00
                                0.03     -0.00    -10.72

     XDM     stress (kbar)      0.00      0.00      0.00
                                0.00      0.00      0.00
                                0.00      0.00      0.00

     dft-nl  stress (kbar)      0.00      0.00      0.00
                                0.00      0.00      0.00
                                0.00      0.00      0.00

     TS-vdW  stress (kbar)      0.00      0.00      0.00
                                0.00      0.00      0.00
                                0.00      0.00      0.00

     MDB     stress (kbar)      0.00      0.00      0.00
                                0.00      0.00      0.00
                                0.00      0.00      0.00

     3D-RISM stress (kbar)      0.00      0.00      0.00
                                0.00      0.00      0.00
                                0.00      0.00      0.00

     Energy error            =      6.0E-06 Ry
     Gradient error          =      4.1E-04 Ry/Bohr
     Cell gradient error     =      2.1E-01 kbar

     number of scf cycles    =   5
     number of bfgs steps    =   4

     enthalpy           old  =   -2631.3183287148 Ry
     enthalpy           new  =   -2631.3183346950 Ry

     CASE: enthalpy          _new < enthalpy          _old

     new trust radius        =       0.0025745251 bohr
ibrav =    -12
 celldm(1) =     10.07793815
 celldm(2) =      1.73932460
 celldm(3) =      1.96738172
 celldm(5) =     -0.18117211
Input lattice vectors:
     1.00012622     0.00000000    -0.00000348
     0.00000000     1.73954414     0.00000000
    -0.35647294     0.00000000     1.93506977
New lattice vectors in INITIAL alat:
     1.00012622     0.00000000     0.00000000
     0.00000000     1.73954414     0.00000000
    -0.35647968     0.00000000     1.93506853
New lattice vectors in NEW alat (for information only):
     1.00000000     0.00000000     0.00000000
     0.00000000     1.73932460     0.00000000
    -0.35643469     0.00000000     1.93482432
Discrepancy in bohr =     0.000003    0.000000    0.000007
     new conv_thr            =            1.0E-10 Ry

     new unit-cell volume =   3444.58767 a.u.^3 (   510.43523 Ang^3 )
     density =      2.81745 g/cm^3

CELL_PARAMETERS (alat= 10.07666626)
   1.000126221   0.000000000   0.000000000
   0.000000000   1.739544139   0.000000000
  -0.356479681   0.000000000   1.935068534

ATOMIC_POSITIONS (crystal)
K                0.0000000000        0.4891597205        0.0000000000
K                0.5000000000        0.0064897787        0.0000000000
Mg               0.0000000000        0.0062456311        0.5000000000
Mg               0.0000000000        0.6671701506        0.5000000000
Mg               0.5000000000        0.4957486254        0.5000000000
Mg               0.5000000000        0.8354812395        0.5000000000
Mg               0.5000000000        0.1705122701        0.5000000000
Si               0.0896910045        0.1632040587        0.2266824741
Si               0.9103089585        0.1632040587        0.7733175409
Si               0.9344071465        0.8342434575        0.7658072887
Si               0.0655918105        0.8342434575        0.2341926813
Si               0.5650238659        0.6666674877        0.2327597446
Si               0.4349761341        0.6666674877        0.7672402404
Al               0.4089110713        0.3307657140        0.7703603541
Al               0.5910878857        0.3307657140        0.2296396609
O                0.1359964712        0.1577595909        0.3846060515
O                0.8640025298        0.1577595909        0.6153939485
O                0.8748107697        0.8345609282        0.6086948748
O                0.1251882623        0.8345609282        0.3913051252
O                0.6266212026        0.6698177788        0.3906361261
O                0.3733787674        0.6698177788        0.6093638149
O                0.3601381057        0.3331654497        0.6009408981
O                0.6398608513        0.3331654497        0.3990590719
O                0.3465581158        0.2052079810        0.1706264920
O                0.6534418842        0.2052079810        0.8293734930
O                0.0054607926        0.9963534054        0.1716798427
O                0.9945382534        0.9963534054        0.8283201273
O                0.6875630555        0.7699425280        0.8238230912
O                0.3124369445        0.7699425280        0.1761769088
O                0.8106484539        0.7367771061        0.1750886019
O                0.1893515911        0.7367771061        0.8249114131
O                0.5077402978        0.5075033807        0.1700357925
O                0.4922587192        0.5075033807        0.8299641925
O                0.1387320480        0.2740807092        0.8332997696
O                0.8612679370        0.2740807092        0.1667002004
O                0.1363573565        0.5115280928        0.3944262394
O                0.8636426135        0.5115280928        0.6055737906
O                0.6342812757        0.9995898750        0.4002159058
O                0.3657187243        0.9995898750        0.5997850782
H                0.1052454444        0.4928321676        0.3023200245
H                0.8947535946        0.4928321676        0.6976799755
H                0.5957277070        0.0128549533        0.3073618736
H                0.4042713100        0.0128549533        0.6926381264
Fe               0.0000000000        0.3354693842        0.5000000000



     Writing config-only to output data dir ./temp/phl-fe1-fe2.save/ :
     XML data file
     NEW-OLD atomic charge density approx. for the potential

     Check: negative core charge=   -0.000001

     negative rho (up, down):  0.000E+00 2.932E-04
     Generating pointlists ...

     total cpu time spent up to now is    57067.5 secs

     Self-consistent Calculation

     iteration #  1     ecut=    90.00 Ry     beta= 0.70
     Davidson diagonalization with overlap

---- Real-time Memory Report at c_bands before calling an iterative solver
           920 MiB given to the printing process from OS
             0 MiB allocation reported by mallinfo(arena+hblkhd)
         11142 MiB available memory on the node where the printing process lives
------------------
     ethr =  1.00E-06,  avg # of iterations =  2.0

     Threshold (ethr) on eigenvalues was too large:
     Diagonalizing with lowered threshold

     Davidson diagonalization with overlap

---- Real-time Memory Report at c_bands before calling an iterative solver
           920 MiB given to the printing process from OS
             0 MiB allocation reported by mallinfo(arena+hblkhd)
         11345 MiB available memory on the node where the printing process lives
------------------
     ethr =  7.44E-09,  avg # of iterations =  7.9

     negative rho (up, down):  0.000E+00 2.933E-04

     total cpu time spent up to now is    59441.9 secs

     total energy              =   -2631.31833857 Ry
     estimated scf accuracy    <       0.00000326 Ry

     total magnetization       =     4.00 Bohr mag/cell
     absolute magnetization    =     4.04 Bohr mag/cell

     iteration #  2     ecut=    90.00 Ry     beta= 0.70
     Davidson diagonalization with overlap

---- Real-time Memory Report at c_bands before calling an iterative solver
           920 MiB given to the printing process from OS
             0 MiB allocation reported by mallinfo(arena+hblkhd)
         10686 MiB available memory on the node where the printing process lives
------------------
     ethr =  1.24E-09,  avg # of iterations =  2.6

     negative rho (up, down):  0.000E+00 2.934E-04

     total cpu time spent up to now is    60130.3 secs

     total energy              =   -2631.31833928 Ry
     estimated scf accuracy    <       0.00000022 Ry

     total magnetization       =     4.00 Bohr mag/cell
     absolute magnetization    =     4.04 Bohr mag/cell

     iteration #  3     ecut=    90.00 Ry     beta= 0.70
     Davidson diagonalization with overlap

---- Real-time Memory Report at c_bands before calling an iterative solver
           920 MiB given to the printing process from OS
             0 MiB allocation reported by mallinfo(arena+hblkhd)
         10856 MiB available memory on the node where the printing process lives
------------------
     ethr =  8.47E-11,  avg # of iterations = 11.9

     negative rho (up, down):  0.000E+00 2.934E-04

     total cpu time spent up to now is    61422.7 secs

     total energy              =   -2631.31833959 Ry
     estimated scf accuracy    <       0.00000007 Ry

     total magnetization       =     4.00 Bohr mag/cell
     absolute magnetization    =     4.04 Bohr mag/cell

     iteration #  4     ecut=    90.00 Ry     beta= 0.70
     Davidson diagonalization with overlap

---- Real-time Memory Report at c_bands before calling an iterative solver
           920 MiB given to the printing process from OS
             0 MiB allocation reported by mallinfo(arena+hblkhd)
         10625 MiB available memory on the node where the printing process lives
------------------
     ethr =  2.74E-11,  avg # of iterations =  6.3

     negative rho (up, down):  0.000E+00 2.934E-04

     total cpu time spent up to now is    62136.2 secs

     total energy              =   -2631.31833961 Ry
     estimated scf accuracy    <       0.00000001 Ry

     total magnetization       =     4.00 Bohr mag/cell
     absolute magnetization    =     4.04 Bohr mag/cell

     iteration #  5     ecut=    90.00 Ry     beta= 0.70
     Davidson diagonalization with overlap

---- Real-time Memory Report at c_bands before calling an iterative solver
           920 MiB given to the printing process from OS
             0 MiB allocation reported by mallinfo(arena+hblkhd)
         10768 MiB available memory on the node where the printing process lives
------------------
     ethr =  4.71E-12,  avg # of iterations =  9.1

     negative rho (up, down):  0.000E+00 2.934E-04

     total cpu time spent up to now is    63258.7 secs

     total energy              =   -2631.31833962 Ry
     estimated scf accuracy    <          3.3E-09 Ry

     total magnetization       =     4.00 Bohr mag/cell
     absolute magnetization    =     4.04 Bohr mag/cell

     iteration #  6     ecut=    90.00 Ry     beta= 0.70
     Davidson diagonalization with overlap

---- Real-time Memory Report at c_bands before calling an iterative solver
           920 MiB given to the printing process from OS
             0 MiB allocation reported by mallinfo(arena+hblkhd)
         10666 MiB available memory on the node where the printing process lives
------------------
     ethr =  1.27E-12,  avg # of iterations =  6.0

     negative rho (up, down):  0.000E+00 2.934E-04

     total cpu time spent up to now is    64051.1 secs

     total energy              =   -2631.31833962 Ry
     estimated scf accuracy    <          1.6E-09 Ry

     total magnetization       =     4.00 Bohr mag/cell
     absolute magnetization    =     4.04 Bohr mag/cell

     iteration #  7     ecut=    90.00 Ry     beta= 0.70
     Davidson diagonalization with overlap

---- Real-time Memory Report at c_bands before calling an iterative solver
           920 MiB given to the printing process from OS
             0 MiB allocation reported by mallinfo(arena+hblkhd)
         10823 MiB available memory on the node where the printing process lives
------------------
