
     Program PWSCF v.7.3.1 starts on 30Dec2025 at  5:10:48 

     This program is part of the open-source Quantum ESPRESSO suite
     for quantum simulation of materials; please cite
         "P. Giannozzi et al., J. Phys.:Condens. Matter 21 395502 (2009);
         "P. Giannozzi et al., J. Phys.:Condens. Matter 29 465901 (2017);
         "P. Giannozzi et al., J. Chem. Phys. 152 154105 (2020);
          URL http://www.quantum-espresso.org", 
     in publications or presentations arising from this work. More details at
     http://www.quantum-espresso.org/quote

     Parallel version (MPI), running on    14 processors

     MPI processes distributed on     1 nodes
     21742 MiB available memory on the printing compute node when the environment starts

     Reading input from vc_relax.in

     Current dimensions of program PWSCF are:
     Max number of different atomic species (ntypx) = 10
     Max number of k-points (npk) = 120000
     Max angular momentum in pseudopotentials (lmaxx) =  4
     file Al.pbe-n-kjpaw_psl.1.0.0.UPF: wavefunction(s)  3S 3P renormalized
     file Fe.pbe-spn-kjpaw_psl.1.0.0.UPF: wavefunction(s)  3P 3D renormalized
     file H.pbe-kjpaw_psl.1.0.0.UPF: wavefunction(s)  1S renormalized
     file K.pbe-spn-kjpaw_psl.1.0.0.UPF: wavefunction(s)  3S renormalized
     file Mg.pbe-spnl-kjpaw_psl.1.0.0.UPF: wavefunction(s)  2P renormalized
     file O.pbe-n-kjpaw_psl.1.0.0.UPF: wavefunction(s)  2S 2P renormalized
     file Si.pbe-n-kjpaw_psl.1.0.0.UPF: wavefunction(s)  3S 3P renormalized

     K-points division:     npool     =       2
     R & G space division:  proc/nbgrp/npool/nimage =       7
     Subspace diagonalization in iterative solution of the eigenvalue problem:
     one sub-group per band group will be used
     custom distributed-memory algorithm (size of sub-group:  2*  2 procs)


     Parallelization info
     --------------------
     sticks:   dense  smooth     PW     G-vecs:    dense   smooth      PW
     Min        1442     720    193               160246    56657    7865
     Max        1443     721    194               160249    56663    7871
     Sum       10099    5041   1353              1121731   396609   55075

     Using Slab Decomposition



     bravais-lattice index     =          -12
     lattice parameter (alat)  =      10.0767  a.u.
     unit-cell volume          =    3438.7175 (a.u.)^3
     number of atoms/cell      =           44
     number of atomic types    =            7
     number of electrons       =       262.00
     number of Kohn-Sham states=          157
     kinetic-energy cutoff     =      90.0000  Ry
     charge density cutoff     =     720.0000  Ry
     scf convergence threshold =      1.0E-08
     mixing beta               =       0.7000
     number of iterations used =            8  plain     mixing
     energy convergence thresh.=      1.0E-05
     force convergence thresh. =      1.0E-04
     press convergence thresh. =      5.0E-02
     Exchange-correlation= SLA  PW   PBX  PBC
                           (   1   4   3   4   0   0   0)
     nstep                     =          100


     celldm(1)=  10.076666  celldm(2)=   1.735909  celldm(3)=   1.968321
     celldm(4)=   0.000000  celldm(5)=  -0.180309  celldm(6)=   0.000000

     crystal axes: (cart. coord. in units of alat)
               a(1) = (   1.000000   0.000000   0.000000 )  
               a(2) = (   0.000000   1.735909   0.000000 )  
               a(3) = (  -0.354905   0.000000   1.936060 )  

     reciprocal axes: (cart. coord. in units 2 pi/alat)
               b(1) = (  1.000000 -0.000000  0.183313 )  
               b(2) = (  0.000000  0.576067 -0.000000 )  
               b(3) = (  0.000000  0.000000  0.516513 )  


     PseudoPot. # 1 for Al read from file:
     ./../../../pseudos/Al.pbe-n-kjpaw_psl.1.0.0.UPF
     MD5 check sum: 502b6b27b9c6270cab5dd1084b96fa6d
     Pseudo is Projector augmented-wave + core cor, Zval =  3.0
     Generated using &quot;atomic&quot; code by A. Dal Corso  v.6.3
     Shape of augmentation charge: PSQ
     Using radial grid of 1135 points,  6 beta functions with: 
                l(1) =   0
                l(2) =   0
                l(3) =   1
                l(4) =   1
                l(5) =   2
                l(6) =   2
     Q(r) pseudized with 0 coefficients 


     PseudoPot. # 2 for Fe read from file:
     ./../../../pseudos/Fe.pbe-spn-kjpaw_psl.1.0.0.UPF
     MD5 check sum: fc81f059e5c5069939230b1155715ae8
     Pseudo is Projector augmented-wave + core cor, Zval = 16.0
     Generated using &quot;atomic&quot; code by A. Dal Corso  v.6.3
     Shape of augmentation charge: PSQ
     Using radial grid of 1191 points,  6 beta functions with: 
                l(1) =   0
                l(2) =   0
                l(3) =   1
                l(4) =   1
                l(5) =   2
                l(6) =   2
     Q(r) pseudized with 0 coefficients 


     PseudoPot. # 3 for H  read from file:
     ./../../../pseudos/H.pbe-kjpaw_psl.1.0.0.UPF
     MD5 check sum: d81a744832360e4a8af0b0b5b123bc2a
     Pseudo is Projector augmented-wave, Zval =  1.0
     Generated using &quot;atomic&quot; code by A. Dal Corso  v.6.3MaX
     Shape of augmentation charge: PSQ
     Using radial grid of  929 points,  2 beta functions with: 
                l(1) =   0
                l(2) =   0
     Q(r) pseudized with 0 coefficients 


     PseudoPot. # 4 for K  read from file:
     ./../../../pseudos/K.pbe-spn-kjpaw_psl.1.0.0.UPF
     MD5 check sum: 34cc42130a09071ebe376fd42eb21491
     Pseudo is Projector augmented-wave + core cor, Zval =  9.0
     Generated using &quot;atomic&quot; code by A. Dal Corso  v.6.2.2
     Shape of augmentation charge: PSQ
     Using radial grid of 1165 points,  6 beta functions with: 
                l(1) =   0
                l(2) =   0
                l(3) =   1
                l(4) =   1
                l(5) =   2
                l(6) =   2
     Q(r) pseudized with 0 coefficients 


     PseudoPot. # 5 for Mg read from file:
     ./../../../pseudos/Mg.pbe-spnl-kjpaw_psl.1.0.0.UPF
     MD5 check sum: fda14e0d92a6a9a5ebed782e5a4b3067
     Pseudo is Projector augmented-wave + core cor, Zval = 10.0
     Generated using &quot;atomic&quot; code by A. Dal Corso  v.6.3
     Shape of augmentation charge: PSQ
     Using radial grid of 1129 points,  4 beta functions with: 
                l(1) =   0
                l(2) =   0
                l(3) =   1
                l(4) =   1
     Q(r) pseudized with 0 coefficients 


     PseudoPot. # 6 for O  read from file:
     ./../../../pseudos/O.pbe-n-kjpaw_psl.1.0.0.UPF
     MD5 check sum: e99d9cef9b487d1ca56f5b95ecd0fd7a
     Pseudo is Projector augmented-wave + core cor, Zval =  6.0
     Generated using &quot;atomic&quot; code by A. Dal Corso  v.6.3
     Shape of augmentation charge: PSQ
     Using radial grid of 1095 points,  4 beta functions with: 
                l(1) =   0
                l(2) =   0
                l(3) =   1
                l(4) =   1
     Q(r) pseudized with 0 coefficients 


     PseudoPot. # 7 for Si read from file:
     ./../../../pseudos/Si.pbe-n-kjpaw_psl.1.0.0.UPF
     MD5 check sum: c39c59da582df4a0d9f10159256ea34e
     Pseudo is Projector augmented-wave + core cor, Zval =  4.0
     Generated using &quot;atomic&quot; code by A. Dal Corso  v.6.3
     Shape of augmentation charge: PSQ
     Using radial grid of 1141 points,  6 beta functions with: 
                l(1) =   0
                l(2) =   0
                l(3) =   1
                l(4) =   1
                l(5) =   2
                l(6) =   2
     Q(r) pseudized with 0 coefficients 


     atomic species   valence    mass     pseudopotential
     Al                3.00    26.98154     Al( 1.00)
     Fe               16.00    55.84500     Fe( 1.00)
     H                 1.00     1.00794     H ( 1.00)
     K                 9.00    39.09830     K ( 1.00)
     Mg               10.00    24.30500     Mg( 1.00)
     O                 6.00    15.99940     O ( 1.00)
     Si                4.00    28.08550     Si( 1.00)

     Starting magnetic structure 
     atomic species   magnetization
     Al              0.000
     Fe              0.300
     H               0.000
     K               0.000
     Mg              0.000
     O               0.000
     Si              0.000

      2 Sym. Ops. (no inversion) found


                                    s                        frac. trans.

      isym =  1     identity                                     

 cryst.   s( 1) = (     1          0          0      )
                  (     0          1          0      )
                  (     0          0          1      )

 cart.    s( 1) = (  1.0000000  0.0000000  0.0000000 )
                  (  0.0000000  1.0000000  0.0000000 )
                  (  0.0000000  0.0000000  1.0000000 )


      isym =  2     180 deg rotation - cart. axis [0,1,0]        

 cryst.   s( 2) = (    -1          0          0      )
                  (     0          1          0      )
                  (     0          0         -1      )

 cart.    s( 2) = ( -1.0000000  0.0000000  0.0000000 )
                  (  0.0000000  1.0000000  0.0000000 )
                  (  0.0000000  0.0000000 -1.0000000 )


     point group C_2  (2)   
     there are  2 classes
     the character table:

       E     C2   
A      1.00  1.00
B      1.00 -1.00

     the symmetry operations in each class and the name of the first element:

     E        1
          identity                                               
     C2       2
          180 deg rotation - cart. axis [0,1,0]                  

   Cartesian axes

     site n.     atom                  positions (alat units)
         1        K      tau(   1) = (   0.0000000   0.8491907   0.0000000  )
         2        K      tau(   2) = (   0.5000000   0.0112264   0.0000000  )
         3        Mg     tau(   3) = (  -0.1774526   0.0108850   0.9680302  )
         4        Mg     tau(   4) = (  -0.1774526   1.1581727   0.9680302  )
         5        Mg     tau(   5) = (   0.3225474   0.8606593   0.9680302  )
         6        Mg     tau(   6) = (   0.3225474   1.4502904   0.9680302  )
         7        Mg     tau(   7) = (   0.3225474   0.2959455   0.9680302  )
         8        Si     tau(   8) = (   0.0093032   0.2834707   0.4389049  )
         9        Si     tau(   9) = (   0.6357916   0.2834707   1.4971555  )
        10        Si     tau(  10) = (   0.6626119   1.4480519   1.4825222  )
        11        Si     tau(  11) = (  -0.0175181   1.4480519   0.4535381  )
        12        Si     tau(  12) = (   0.4824227   1.1573228   0.4507353  )
        13        Si     tau(  13) = (   0.1626722   1.1573228   1.4853251  )
        14        Al     tau(  14) = (   0.1354448   0.5740311   1.4912780  )
        15        Al     tau(  15) = (   0.5096491   0.5740311   0.4447824  )
        16        O      tau(  16) = (  -0.0004045   0.2739446   0.7445135  )
        17        O      tau(  17) = (   0.6454984   0.2739446   1.1915469  )
        18        O      tau(  18) = (   0.6587345   1.4487315   1.1784980  )
        19        O      tau(  19) = (  -0.0136406   1.4487315   0.7575624  )
        20        O      tau(  20) = (   0.4880060   1.1627478   0.7562369  )
        21        O      tau(  21) = (   0.1570889   1.1627478   1.1798234  )
        22        O      tau(  22) = (   0.1468058   0.5783323   1.1634891  )
        23        O      tau(  23) = (   0.4982880   0.5783323   0.7725712  )
        24        O      tau(  24) = (   0.2861775   0.3559822   0.3302622  )
        25        O      tau(  25) = (   0.3589174   0.3559822   1.6057981  )
        26        O      tau(  26) = (  -0.0557502   1.7296245   0.3321091  )
        27        O      tau(  27) = (   0.7008442   1.7296245   1.6039512  )
        28        O      tau(  28) = (   0.3950377   1.3367586   1.5950035  )
        29        O      tau(  29) = (   0.2500571   1.3367586   0.3410569  )
        30        O      tau(  30) = (   0.7486447   1.2787523   0.3389272  )
        31        O      tau(  31) = (  -0.1035498   1.2787523   1.5971332  )
        32        O      tau(  32) = (   0.4471539   0.8808503   0.3288894  )
        33        O      tau(  33) = (   0.1979400   0.8808503   1.6071709  )
        34        O      tau(  34) = (  -0.1571519   0.4761129   1.6134124  )
        35        O      tau(  35) = (   0.8022468   0.4761129   0.3226480  )
        36        O      tau(  36) = (  -0.0035169   0.8879147   0.7635125  )
        37        O      tau(  37) = (   0.6486117   0.8879147   1.1725480  )
        38        O      tau(  38) = (   0.4923582   1.7351986   0.7747400  )
        39        O      tau(  39) = (   0.1527363   1.7351986   1.1613223  )
        40        H      tau(  40) = (  -0.0020351   0.8554979   0.5852320  )
        41        H      tau(  41) = (   0.6471290   0.8554979   1.3508284  )
        42        H      tau(  42) = (   0.4866752   0.0223673   0.5950375  )
        43        H      tau(  43) = (   0.1584187   0.0223673   1.3410229  )
        44        Fe     tau(  44) = (  -0.1774526   0.5822214   0.9680302  )

     --------------------------------------------
     DFT-D3 Dispersion Correction (3-body terms):
     --------------------------------------------
       Reference C6 values for interpolation: 

         atom   Coordination number   C6
         H          0.912             6.05
         H          0.000            15.18
         O          0.000            31.01
         O          0.993            25.63
         O          1.989            20.74
         Mg         0.000          1366.75
         Mg         0.963           902.54
         Mg         1.950           351.12
         Al         0.000          1081.08
         Al         0.965           875.51
         Al         1.931           513.50
         Al         2.915           307.19
         Si         0.000           635.71
         Si         0.951           540.53
         Si         1.944           466.25
         Si         2.941           443.01
         Si         3.868           299.55
         K          0.000          9967.00
         K          0.977           676.04
         Fe         0.000           982.67
         Fe         1.648           409.99
         Fe         9.138           219.01

       Values used:

         atom   Coordination number  R0_AB[au]  C6      C8
         K         11.406            4.007    676.04 129074.98
         K         11.806            4.007    676.04 129074.98
         Mg        11.306            3.292    351.12  31436.69
         Mg        11.287            3.292    351.12  31436.69
         Mg        11.194            3.292    351.12  31436.69
         Mg        11.563            3.292    351.12  31436.69
         Mg        11.362            3.292    351.12  31436.69
         Si         6.506            3.583    299.55  21425.58
         Si         6.506            3.583    299.55  21425.58
         Si         6.196            3.583    299.55  21425.58
         Si         6.196            3.583    299.55  21425.58
         Si         6.227            3.583    299.55  21425.58
         Si         6.227            3.583    299.55  21425.58
         Al         7.188            3.789    307.19  29441.29
         Al         7.188            3.789    307.19  29441.29
         O          3.465            2.345     20.74    418.58
         O          3.465            2.345     20.74    418.58
         O          3.905            2.345     20.74    418.58
         O          3.905            2.345     20.74    418.58
         O          3.894            2.345     20.74    418.58
         O          3.894            2.345     20.74    418.58
         O          3.828            2.345     20.74    418.58
         O          3.828            2.345     20.74    418.58
         O          3.131            2.345     20.74    418.58
         O          3.131            2.345     20.74    418.58
         O          3.041            2.345     20.74    418.58
         O          3.041            2.345     20.74    418.58
         O          2.834            2.345     20.74    418.58
         O          2.834            2.345     20.74    418.58
         O          2.821            2.345     20.74    418.58
         O          2.821            2.345     20.74    418.58
         O          3.044            2.345     20.74    418.58
         O          3.044            2.345     20.74    418.58
         O          3.162            2.345     20.74    418.58
         O          3.162            2.345     20.74    418.58
         O          3.633            2.345     20.74    418.58
         O          3.633            2.345     20.74    418.58
         O          3.979            2.345     20.74    418.58
         O          3.979            2.345     20.74    418.58
         H          1.208            2.062      6.08     73.52
         H          1.208            2.062      6.08     73.52
         H          1.217            2.062      6.08     73.49
         H          1.217            2.062      6.08     73.49
         Fe         7.259            3.252    219.01  20487.87

         Molecular C6 ( Ry / a.u.^6 ) =    165310.76


   Crystallographic axes

     site n.     atom                  positions (cryst. coord.)
         1        K      tau(   1) = (  0.0000000  0.4891908  0.0000000  )
         2        K      tau(   2) = (  0.5000000  0.0064671  0.0000000  )
         3        Mg     tau(   3) = ( -0.0000000  0.0062705  0.5000000  )
         4        Mg     tau(   4) = ( -0.0000000  0.6671851  0.5000000  )
         5        Mg     tau(   5) = (  0.5000000  0.4957975  0.5000000  )
         6        Mg     tau(   6) = (  0.5000000  0.8354645  0.5000000  )
         7        Mg     tau(   7) = (  0.5000000  0.1704844  0.5000000  )
         8        Si     tau(   8) = (  0.0897602  0.1632981  0.2267000  )
         9        Si     tau(   9) = (  0.9102398  0.1632981  0.7733000  )
        10        Si     tau(  10) = (  0.9343776  0.8341750  0.7657417  )
        11        Si     tau(  11) = (  0.0656213  0.8341750  0.2342583  )
        12        Si     tau(  12) = (  0.5650483  0.6666955  0.2328105  )
        13        Si     tau(  13) = (  0.4349517  0.6666955  0.7671894  )
        14        Al     tau(  14) = (  0.4088155  0.3306804  0.7702642  )
        15        Al     tau(  15) = (  0.5911835  0.3306804  0.2297358  )
        16        O      tau(  16) = (  0.1360745  0.1578105  0.3845507  )
        17        O      tau(  17) = (  0.8639245  0.1578105  0.6154492  )
        18        O      tau(  18) = (  0.8747686  0.8345665  0.6087093  )
        19        O      tau(  19) = (  0.1252304  0.8345665  0.3912907  )
        20        O      tau(  20) = (  0.6266341  0.6698207  0.3906060  )
        21        O      tau(  21) = (  0.3733659  0.6698207  0.6093939  )
        22        O      tau(  22) = (  0.3600886  0.3331582  0.6009570  )
        23        O      tau(  23) = (  0.6399104  0.3331582  0.3990429  )
        24        O      tau(  24) = (  0.3467188  0.2050696  0.1705847  )
        25        O      tau(  25) = (  0.6532812  0.2050696  0.8294153  )
        26        O      tau(  26) = (  0.0051297  0.9963797  0.1715386  )
        27        O      tau(  27) = (  0.9948694  0.9963797  0.8284613  )
        28        O      tau(  28) = (  0.6874227  0.7700626  0.8238397  )
        29        O      tau(  29) = (  0.3125773  0.7700626  0.1761603  )
        30        O      tau(  30) = (  0.8107745  0.7366471  0.1750602  )
        31        O      tau(  31) = (  0.1892255  0.7366471  0.8249398  )
        32        O      tau(  32) = (  0.5074436  0.5074288  0.1698756  )
        33        O      tau(  33) = (  0.4925554  0.5074288  0.8301244  )
        34        O      tau(  34) = (  0.1386076  0.2742729  0.8333482  )
        35        O      tau(  35) = (  0.8613924  0.2742729  0.1666518  )
        36        O      tau(  36) = (  0.1364449  0.5114984  0.3943640  )
        37        O      tau(  37) = (  0.8635551  0.5114984  0.6056361  )
        38        O      tau(  38) = (  0.6343782  0.9995907  0.4001631  )
        39        O      tau(  39) = (  0.3656218  0.9995907  0.5998378  )
        40        H      tau(  40) = (  0.1052455  0.4928242  0.3022798  )
        41        H      tau(  41) = (  0.8947535  0.4928242  0.6977202  )
        42        H      tau(  42) = (  0.5957534  0.0128851  0.3073445  )
        43        H      tau(  43) = (  0.4042456  0.0128851  0.6926555  )
        44        Fe     tau(  44) = ( -0.0000000  0.3353986  0.5000000  )

     number of k points=    20  Gaussian smearing, width (Ry)=  0.0005
                       cart. coord. in units 2pi/alat
        k(    1) = (   0.0000000   0.0000000   0.0000000), wk =   0.0185185
        k(    2) = (   0.0000000   0.0000000   0.1721709), wk =   0.0370370
        k(    3) = (   0.0000000   0.1920223   0.0000000), wk =   0.0370370
        k(    4) = (   0.0000000   0.1920223   0.1721709), wk =   0.0740741
        k(    5) = (   0.1666667   0.0000000   0.0305522), wk =   0.0370370
        k(    6) = (   0.1666667   0.0000000   0.2027231), wk =   0.0370370
        k(    7) = (   0.1666667   0.0000000  -0.1416188), wk =   0.0370370
        k(    8) = (   0.1666667   0.1920223   0.0305522), wk =   0.0740741
        k(    9) = (   0.1666667   0.1920223   0.2027231), wk =   0.0740741
        k(   10) = (   0.1666667   0.1920223  -0.1416188), wk =   0.0740741
        k(   11) = (   0.3333333   0.0000000   0.0611044), wk =   0.0370370
        k(   12) = (   0.3333333   0.0000000   0.2332753), wk =   0.0370370
        k(   13) = (   0.3333333   0.0000000  -0.1110666), wk =   0.0370370
        k(   14) = (   0.3333333   0.1920223   0.0611044), wk =   0.0740741
        k(   15) = (   0.3333333   0.1920223   0.2332753), wk =   0.0740741
        k(   16) = (   0.3333333   0.1920223  -0.1110666), wk =   0.0740741
        k(   17) = (  -0.5000000   0.0000000  -0.0916565), wk =   0.0185185
        k(   18) = (  -0.5000000   0.0000000   0.0805144), wk =   0.0370370
        k(   19) = (  -0.5000000   0.1920223  -0.0916565), wk =   0.0370370
        k(   20) = (  -0.5000000   0.1920223   0.0805144), wk =   0.0740741

                       cryst. coord.
        k(    1) = (   0.0000000   0.0000000   0.0000000), wk =   0.0185185
        k(    2) = (   0.0000000   0.0000000   0.3333333), wk =   0.0370370
        k(    3) = (   0.0000000   0.3333333   0.0000000), wk =   0.0370370
        k(    4) = (   0.0000000   0.3333333   0.3333333), wk =   0.0740741
        k(    5) = (   0.1666667   0.0000000  -0.0000000), wk =   0.0370370
        k(    6) = (   0.1666667   0.0000000   0.3333333), wk =   0.0370370
        k(    7) = (   0.1666667   0.0000000  -0.3333333), wk =   0.0370370
        k(    8) = (   0.1666667   0.3333333  -0.0000000), wk =   0.0740741
        k(    9) = (   0.1666667   0.3333333   0.3333333), wk =   0.0740741
        k(   10) = (   0.1666667   0.3333333  -0.3333333), wk =   0.0740741
        k(   11) = (   0.3333333   0.0000000  -0.0000000), wk =   0.0370370
        k(   12) = (   0.3333333   0.0000000   0.3333333), wk =   0.0370370
        k(   13) = (   0.3333333   0.0000000  -0.3333333), wk =   0.0370370
        k(   14) = (   0.3333333   0.3333333  -0.0000000), wk =   0.0740741
        k(   15) = (   0.3333333   0.3333333   0.3333333), wk =   0.0740741
        k(   16) = (   0.3333333   0.3333333  -0.3333333), wk =   0.0740741
        k(   17) = (  -0.5000000   0.0000000   0.0000000), wk =   0.0185185
        k(   18) = (  -0.5000000   0.0000000   0.3333333), wk =   0.0370370
        k(   19) = (  -0.5000000   0.3333333   0.0000000), wk =   0.0370370
        k(   20) = (  -0.5000000   0.3333333   0.3333333), wk =   0.0740741

     Dense  grid:  1121731 G-vectors     FFT dimensions: (  90, 150, 180)

     Smooth grid:   396609 G-vectors     FFT dimensions: (  64, 108, 120)

     Dynamical RAM for                 wfc:      16.97 MB

     Dynamical RAM for     wfc (w. buffer):     356.28 MB

     Dynamical RAM for           str. fact:      17.12 MB

     Dynamical RAM for           local pot:       0.00 MB

     Dynamical RAM for          nlocal pot:      47.33 MB

     Dynamical RAM for                qrad:      30.14 MB

     Dynamical RAM for          rho,v,vnew:      30.74 MB

     Dynamical RAM for               rhoin:      10.25 MB

     Dynamical RAM for            rho*nmix:      78.25 MB

     Dynamical RAM for           G-vectors:       9.60 MB

     Dynamical RAM for          h,s,v(r/c):       1.13 MB

     Dynamical RAM for          <psi|beta>:       1.05 MB

     Dynamical RAM for                 psi:      33.93 MB

     Dynamical RAM for                hpsi:      33.93 MB

     Dynamical RAM for                spsi:      33.93 MB

     Dynamical RAM for      wfcinit/wfcrot:      34.50 MB

     Dynamical RAM for           addusdens:     260.41 MB

     Dynamical RAM for          addusforce:     315.62 MB

     Dynamical RAM for         addusstress:     248.80 MB

     Estimated static dynamical RAM per process >     537.08 MB

     Estimated max dynamical RAM per process >     930.95 MB

     Estimated total dynamical RAM >      12.19 GB

     Atomic positions and unit cell read from directory:
     ./temp/phl-fe1-fe2.save/
     Atomic positions from file used, from input discarded


     Check: negative core charge=   -0.000001
     Generating pointlists ...
     new r_m :   0.1353 (alat units)  1.3637 (a.u.) for type    1
     new r_m :   0.1561 (alat units)  1.5734 (a.u.) for type    2
     new r_m :   0.0747 (alat units)  0.7531 (a.u.) for type    3
     new r_m :   0.2161 (alat units)  2.1775 (a.u.) for type    4
     new r_m :   0.1572 (alat units)  1.5845 (a.u.) for type    5
     new r_m :   0.0747 (alat units)  0.7531 (a.u.) for type    6
     new r_m :   0.1254 (alat units)  1.2638 (a.u.) for type    7

     The initial density is read from file :
     ./temp/phl-fe1-fe2.save/charge-density


     starting charge     261.9540, renormalised to     262.0000

     negative rho (up, down):  0.000E+00 2.928E-04
     Cannot read wfcs: file not found
     Starting wfcs are  183 randomized atomic wfcs
     Checking if some PAW data can be deallocated... 
       PAW data deallocated on   12 nodes for type:  1
       PAW data deallocated on   13 nodes for type:  2
       PAW data deallocated on   12 nodes for type:  3
       PAW data deallocated on   13 nodes for type:  4
       PAW data deallocated on   12 nodes for type:  5
       PAW data deallocated on    5 nodes for type:  6
       PAW data deallocated on   11 nodes for type:  7

     total cpu time spent up to now is      223.5 secs

     Self-consistent Calculation

     iteration #  1     ecut=    90.00 Ry     beta= 0.70
     Davidson diagonalization with overlap

---- Real-time Memory Report at c_bands before calling an iterative solver
           600 MiB given to the printing process from OS
             0 MiB allocation reported by mallinfo(arena+hblkhd)
         12989 MiB available memory on the node where the printing process lives
------------------
     c_bands:  2 eigenvalues not converged
     c_bands:  2 eigenvalues not converged
     c_bands:  3 eigenvalues not converged
     c_bands:  1 eigenvalues not converged
     c_bands:  1 eigenvalues not converged
     c_bands:  2 eigenvalues not converged
     c_bands:  3 eigenvalues not converged
     c_bands:  1 eigenvalues not converged
     c_bands:  1 eigenvalues not converged
     c_bands:  1 eigenvalues not converged
     c_bands:  1 eigenvalues not converged
     c_bands:  1 eigenvalues not converged
     c_bands:  1 eigenvalues not converged
     c_bands:  1 eigenvalues not converged
     c_bands:  1 eigenvalues not converged
     c_bands:  1 eigenvalues not converged
     c_bands:  2 eigenvalues not converged
     ethr =  1.00E-05,  avg # of iterations = 40.0

     Threshold (ethr) on eigenvalues was too large:
     Diagonalizing with lowered threshold

     Davidson diagonalization with overlap

---- Real-time Memory Report at c_bands before calling an iterative solver
           846 MiB given to the printing process from OS
             0 MiB allocation reported by mallinfo(arena+hblkhd)
         10720 MiB available memory on the node where the printing process lives
------------------
     c_bands:  1 eigenvalues not converged
     c_bands:  1 eigenvalues not converged
     c_bands:  1 eigenvalues not converged
     c_bands:  1 eigenvalues not converged
     c_bands:  1 eigenvalues not converged
     c_bands:  1 eigenvalues not converged
     ethr =  2.33E-07,  avg # of iterations = 10.1

     negative rho (up, down):  0.000E+00 2.936E-04

     total cpu time spent up to now is     6643.2 secs

     total energy              =   -2631.31816465 Ry
     estimated scf accuracy    <       0.00060830 Ry

     total magnetization       =     4.00 Bohr mag/cell
     absolute magnetization    =     4.04 Bohr mag/cell

     iteration #  2     ecut=    90.00 Ry     beta= 0.70
     Davidson diagonalization with overlap

---- Real-time Memory Report at c_bands before calling an iterative solver
           884 MiB given to the printing process from OS
             0 MiB allocation reported by mallinfo(arena+hblkhd)
         10197 MiB available memory on the node where the printing process lives
------------------
     c_bands:  1 eigenvalues not converged
     c_bands:  1 eigenvalues not converged
     c_bands:  2 eigenvalues not converged
     ethr =  2.32E-07,  avg # of iterations =  5.4

     negative rho (up, down):  0.000E+00 2.931E-04

     total cpu time spent up to now is     7342.7 secs

     total energy              =   -2631.31827238 Ry
     estimated scf accuracy    <       0.00005294 Ry

     total magnetization       =     4.00 Bohr mag/cell
     absolute magnetization    =     4.04 Bohr mag/cell

     iteration #  3     ecut=    90.00 Ry     beta= 0.70
     Davidson diagonalization with overlap

---- Real-time Memory Report at c_bands before calling an iterative solver
           888 MiB given to the printing process from OS
             0 MiB allocation reported by mallinfo(arena+hblkhd)
         10482 MiB available memory on the node where the printing process lives
------------------
     ethr =  2.02E-08,  avg # of iterations =  7.9

     negative rho (up, down):  0.000E+00 2.935E-04

     total cpu time spent up to now is     8670.2 secs

     total energy              =   -2631.31832747 Ry
     estimated scf accuracy    <       0.00003181 Ry

     total magnetization       =     4.00 Bohr mag/cell
     absolute magnetization    =     4.04 Bohr mag/cell

     iteration #  4     ecut=    90.00 Ry     beta= 0.70
     Davidson diagonalization with overlap

---- Real-time Memory Report at c_bands before calling an iterative solver
           891 MiB given to the printing process from OS
             0 MiB allocation reported by mallinfo(arena+hblkhd)
          9823 MiB available memory on the node where the printing process lives
------------------
     ethr =  1.21E-08,  avg # of iterations =  4.5

     negative rho (up, down):  0.000E+00 2.933E-04

     total cpu time spent up to now is     9356.5 secs

     total energy              =   -2631.31833552 Ry
     estimated scf accuracy    <       0.00000221 Ry

     total magnetization       =     4.00 Bohr mag/cell
     absolute magnetization    =     4.04 Bohr mag/cell

     iteration #  5     ecut=    90.00 Ry     beta= 0.70
     Davidson diagonalization with overlap

---- Real-time Memory Report at c_bands before calling an iterative solver
           895 MiB given to the printing process from OS
             0 MiB allocation reported by mallinfo(arena+hblkhd)
         10064 MiB available memory on the node where the printing process lives
------------------
     ethr =  8.44E-10,  avg # of iterations = 10.1

     negative rho (up, down):  0.000E+00 2.934E-04

     total cpu time spent up to now is    11302.0 secs

     total energy              =   -2631.31833927 Ry
     estimated scf accuracy    <       0.00000227 Ry

     total magnetization       =     4.00 Bohr mag/cell
     absolute magnetization    =     4.04 Bohr mag/cell

     iteration #  6     ecut=    90.00 Ry     beta= 0.70
     Davidson diagonalization with overlap

---- Real-time Memory Report at c_bands before calling an iterative solver
           899 MiB given to the printing process from OS
             0 MiB allocation reported by mallinfo(arena+hblkhd)
         10128 MiB available memory on the node where the printing process lives
------------------
     ethr =  8.44E-10,  avg # of iterations =  2.2

     negative rho (up, down):  0.000E+00 2.934E-04

     total cpu time spent up to now is    11884.0 secs

     total energy              =   -2631.31833918 Ry
     estimated scf accuracy    <       0.00000058 Ry

     total magnetization       =     4.00 Bohr mag/cell
     absolute magnetization    =     4.04 Bohr mag/cell

     iteration #  7     ecut=    90.00 Ry     beta= 0.70
     Davidson diagonalization with overlap

---- Real-time Memory Report at c_bands before calling an iterative solver
           903 MiB given to the printing process from OS
             0 MiB allocation reported by mallinfo(arena+hblkhd)
         10059 MiB available memory on the node where the printing process lives
------------------
     ethr =  2.20E-10,  avg # of iterations =  5.7

     negative rho (up, down):  0.000E+00 2.934E-04

     total cpu time spent up to now is    12916.2 secs

     total energy              =   -2631.31833958 Ry
     estimated scf accuracy    <       0.00000022 Ry

     total magnetization       =     4.00 Bohr mag/cell
     absolute magnetization    =     4.04 Bohr mag/cell

     iteration #  8     ecut=    90.00 Ry     beta= 0.70
     Davidson diagonalization with overlap

---- Real-time Memory Report at c_bands before calling an iterative solver
           906 MiB given to the printing process from OS
             0 MiB allocation reported by mallinfo(arena+hblkhd)
          9803 MiB available memory on the node where the printing process lives
------------------
     ethr =  8.26E-11,  avg # of iterations =  2.9

     negative rho (up, down):  0.000E+00 2.934E-04

     total cpu time spent up to now is    13580.3 secs

     total energy              =   -2631.31833956 Ry
     estimated scf accuracy    <       0.00000011 Ry

     total magnetization       =     4.00 Bohr mag/cell
     absolute magnetization    =     4.04 Bohr mag/cell

     iteration #  9     ecut=    90.00 Ry     beta= 0.70
     Davidson diagonalization with overlap

---- Real-time Memory Report at c_bands before calling an iterative solver
           910 MiB given to the printing process from OS
             0 MiB allocation reported by mallinfo(arena+hblkhd)
         10391 MiB available memory on the node where the printing process lives
------------------
     ethr =  4.09E-11,  avg # of iterations =  5.7

     negative rho (up, down):  0.000E+00 2.934E-04

     Magnetic moment per site  (integrated on atomic sphere of radius R)
     atom   1 (R=0.216)  charge=  7.5552  magn=  0.0000
     atom   2 (R=0.216)  charge=  7.5589  magn=  0.0001
     atom   3 (R=0.157)  charge=  8.1112  magn= -0.0002
     atom   4 (R=0.157)  charge=  8.1079  magn= -0.0000
     atom   5 (R=0.157)  charge=  8.1105  magn=  0.0007
     atom   6 (R=0.157)  charge=  8.1066  magn= -0.0000
     atom   7 (R=0.157)  charge=  8.1137  magn=  0.0006
     atom   8 (R=0.125)  charge=  0.5515  magn=  0.0008
     atom   9 (R=0.125)  charge=  0.5515  magn=  0.0008
     atom  10 (R=0.125)  charge=  0.5434  magn= -0.0000
     atom  11 (R=0.125)  charge=  0.5434  magn= -0.0000
     atom  12 (R=0.125)  charge=  0.5433  magn=  0.0000
     atom  13 (R=0.125)  charge=  0.5433  magn=  0.0000
     atom  14 (R=0.135)  charge=  0.3427  magn=  0.0014
     atom  15 (R=0.135)  charge=  0.3427  magn=  0.0014
     atom  16 (R=0.075)  charge=  1.9387  magn=  0.0155
     atom  17 (R=0.075)  charge=  1.9387  magn=  0.0155
     atom  18 (R=0.075)  charge=  1.9430  magn=  0.0004
     atom  19 (R=0.075)  charge=  1.9430  magn=  0.0004
     atom  20 (R=0.075)  charge=  1.9408  magn=  0.0004
     atom  21 (R=0.075)  charge=  1.9408  magn=  0.0004
     atom  22 (R=0.075)  charge=  1.9351  magn=  0.0275
     atom  23 (R=0.075)  charge=  1.9351  magn=  0.0275
     atom  24 (R=0.075)  charge=  1.9428  magn=  0.0009
     atom  25 (R=0.075)  charge=  1.9428  magn=  0.0009
     atom  26 (R=0.075)  charge=  1.9481  magn=  0.0008
     atom  27 (R=0.075)  charge=  1.9481  magn=  0.0008
     atom  28 (R=0.075)  charge=  1.9464  magn=  0.0001
     atom  29 (R=0.075)  charge=  1.9464  magn=  0.0001
     atom  30 (R=0.075)  charge=  1.9468  magn=  0.0001
     atom  31 (R=0.075)  charge=  1.9468  magn=  0.0001
     atom  32 (R=0.075)  charge=  1.9426  magn=  0.0005
     atom  33 (R=0.075)  charge=  1.9426  magn=  0.0005
     atom  34 (R=0.075)  charge=  1.9434  magn= -0.0000
     atom  35 (R=0.075)  charge=  1.9434  magn= -0.0000
     atom  36 (R=0.075)  charge=  1.9388  magn=  0.0210
     atom  37 (R=0.075)  charge=  1.9388  magn=  0.0210
     atom  38 (R=0.075)  charge=  1.9420  magn=  0.0003
     atom  39 (R=0.075)  charge=  1.9420  magn=  0.0003
     atom  40 (R=0.075)  charge=  0.4010  magn=  0.0001
     atom  41 (R=0.075)  charge=  0.4010  magn=  0.0001
     atom  42 (R=0.075)  charge=  0.4004  magn=  0.0000
     atom  43 (R=0.075)  charge=  0.4004  magn=  0.0000
     atom  44 (R=0.156)  charge= 13.2679  magn=  3.2804

     total cpu time spent up to now is    14453.4 secs

     End of self-consistent calculation

 ------ SPIN UP ------------


          k = 0.0000 0.0000 0.0000 ( 49603 PWs)   bands (ev):

   -81.6188 -67.9987 -67.9694 -67.7895 -67.6499 -67.4865 -48.6250 -47.3092
   -47.1096 -34.7797 -34.7592 -34.7548 -34.7400 -34.7385 -34.7173 -34.5674
   -34.5575 -34.5371 -34.4223 -34.4141 -34.4059 -34.2623 -34.2488 -34.2417
   -23.6208 -23.6010 -15.3020 -15.2606 -14.3960 -14.3611 -13.8612 -13.8487
   -13.7011 -13.5933 -13.5229 -13.3991 -13.2032 -13.1585 -13.1298 -13.1226
   -13.0140 -12.9087 -12.7837 -12.7243 -12.6187 -12.6015 -12.5335 -12.4361
   -11.8811 -11.5951  -7.1585  -7.1316  -7.0910  -7.0860  -7.0775  -7.0730
    -4.5689  -4.5330  -2.7114  -2.6342  -2.0929  -1.6298  -1.4791  -1.4461
    -1.3523  -1.3006  -0.9375  -0.9216  -0.8583  -0.6760  -0.6350  -0.4567
    -0.2724  -0.1927  -0.0945   0.1193   0.2418   0.2555   0.4125   0.6170
     0.6186   0.7724   0.8037   0.9129   1.1197   1.1594   1.1674   1.3341
     1.3844   1.5302   1.5512   1.7530   1.8028   1.8108   1.8322   1.9330
     1.9338   2.1671   2.1903   2.2956   2.3065   2.3307   2.3911   2.4808
     2.5279   2.5405   2.6972   2.7520   2.7926   2.8434   2.8715   2.9659
     3.0218   3.0698   3.0991   3.1240   3.2069   3.2212   3.2462   3.3431
     3.4257   3.5038   3.5131   3.5767   3.6114   3.7486   3.9451   3.9874
     4.7862   5.0798   5.9245   6.3735   6.6248   8.6019  10.0831  10.7555
    11.0271  11.4257  11.5142  11.6943  11.9813  12.0947  12.4832  12.4925
    12.6109  12.8564  12.8942  13.0371  13.1151  13.1253  13.2804  13.2985
    13.4298  13.4377  13.4874  13.5846  13.8329

     occupation numbers 
     1.0000   1.0000   1.0000   1.0000   1.0000   1.0000   1.0000   1.0000
     1.0000   1.0000   1.0000   1.0000   1.0000   1.0000   1.0000   1.0000
     1.0000   1.0000   1.0000   1.0000   1.0000   1.0000   1.0000   1.0000
     1.0000   1.0000   1.0000   1.0000   1.0000   1.0000   1.0000   1.0000
     1.0000   1.0000   1.0000   1.0000   1.0000   1.0000   1.0000   1.0000
     1.0000   1.0000   1.0000   1.0000   1.0000   1.0000   1.0000   1.0000
     1.0000   1.0000   1.0000   1.0000   1.0000   1.0000   1.0000   1.0000
     1.0000   1.0000   1.0000   1.0000   1.0000   1.0000   1.0000   1.0000
     1.0000   1.0000   1.0000   1.0000   1.0000   1.0000   1.0000   1.0000
     1.0000   1.0000   1.0000   1.0000   1.0000   1.0000   1.0000   1.0000
     1.0000   1.0000   1.0000   1.0000   1.0000   1.0000   1.0000   1.0000
     1.0000   1.0000   1.0000   1.0000   1.0000   1.0000   1.0000   1.0000
     1.0000   1.0000   1.0000   1.0000   1.0000   1.0000   1.0000   1.0000
     1.0000   1.0000   1.0000   1.0000   1.0000   1.0000   1.0000   1.0000
     1.0000   1.0000   1.0000   1.0000   1.0000   1.0000   1.0000   1.0000
     1.0000   1.0000   1.0000   1.0000   1.0000   1.0000   1.0000   1.0000
     1.0000   1.0000   1.0000   1.0000   1.0000   0.0000   0.0000   0.0000
     0.0000   0.0000   0.0000   0.0000   0.0000   0.0000   0.0000   0.0000
     0.0000   0.0000   0.0000   0.0000   0.0000   0.0000   0.0000   0.0000
     0.0000   0.0000   0.0000   0.0000   0.0000

          k = 0.0000 0.0000 0.1723 ( 49593 PWs)   bands (ev):

   -81.6188 -67.9987 -67.9694 -67.7895 -67.6499 -67.4865 -48.6250 -47.3092
   -47.1096 -34.7797 -34.7592 -34.7548 -34.7400 -34.7385 -34.7173 -34.5674
   -34.5575 -34.5371 -34.4223 -34.4141 -34.4059 -34.2623 -34.2488 -34.2417
   -23.6208 -23.6010 -15.2935 -15.2696 -14.3876 -14.3699 -13.8616 -13.8483
   -13.6943 -13.6050 -13.5187 -13.3964 -13.2037 -13.1597 -13.1327 -13.1204
   -13.0105 -12.9110 -12.7800 -12.7280 -12.6206 -12.5994 -12.5297 -12.4402
   -11.8809 -11.5956  -7.1585  -7.1316  -7.0909  -7.0860  -7.0775  -7.0729
    -4.5657  -4.5365  -2.6937  -2.6545  -2.0715  -1.6216  -1.4739  -1.4512
    -1.3498  -1.3111  -0.9442  -0.9028  -0.8722  -0.6849  -0.6140  -0.5367
    -0.2426  -0.1809  -0.1338   0.0780   0.2389   0.2468   0.4343   0.6266
     0.6523   0.7750   0.8371   0.8756   1.1008   1.1838   1.2070   1.2792
     1.4663   1.5439   1.6290   1.7931   1.8045   1.8209   1.8407   1.9000
     1.9766   2.0952   2.1890   2.2205   2.2944   2.3265   2.3695   2.4538
     2.4933   2.5607   2.7121   2.7539   2.7953   2.8352   2.8674   2.9806
     3.0194   3.0611   3.0823   3.1248   3.1878   3.2350   3.2943   3.3462
     3.4276   3.4648   3.4968   3.5802   3.6014   3.7855   3.9461   3.9839
     4.7872   5.0761   5.9243   6.3721   6.6266   8.8988   9.6019  10.8538
    11.0758  11.2579  11.5699  11.6007  12.1561  12.3105  12.5042  12.5500
    12.7291  12.7888  12.8681  12.9091  12.9979  13.1727  13.2683  13.3490
    13.3910  13.4194  13.6142  13.6228  13.6604

     occupation numbers 
     1.0000   1.0000   1.0000   1.0000   1.0000   1.0000   1.0000   1.0000
     1.0000   1.0000   1.0000   1.0000   1.0000   1.0000   1.0000   1.0000
     1.0000   1.0000   1.0000   1.0000   1.0000   1.0000   1.0000   1.0000
     1.0000   1.0000   1.0000   1.0000   1.0000   1.0000   1.0000   1.0000
     1.0000   1.0000   1.0000   1.0000   1.0000   1.0000   1.0000   1.0000
     1.0000   1.0000   1.0000   1.0000   1.0000   1.0000   1.0000   1.0000
     1.0000   1.0000   1.0000   1.0000   1.0000   1.0000   1.0000   1.0000
     1.0000   1.0000   1.0000   1.0000   1.0000   1.0000   1.0000   1.0000
     1.0000   1.0000   1.0000   1.0000   1.0000   1.0000   1.0000   1.0000
     1.0000   1.0000   1.0000   1.0000   1.0000   1.0000   1.0000   1.0000
     1.0000   1.0000   1.0000   1.0000   1.0000   1.0000   1.0000   1.0000
     1.0000   1.0000   1.0000   1.0000   1.0000   1.0000   1.0000   1.0000
     1.0000   1.0000   1.0000   1.0000   1.0000   1.0000   1.0000   1.0000
     1.0000   1.0000   1.0000   1.0000   1.0000   1.0000   1.0000   1.0000
     1.0000   1.0000   1.0000   1.0000   1.0000   1.0000   1.0000   1.0000
     1.0000   1.0000   1.0000   1.0000   1.0000   1.0000   1.0000   1.0000
     1.0000   1.0000   1.0000   1.0000   1.0000   0.0000   0.0000   0.0000
     0.0000   0.0000   0.0000   0.0000   0.0000   0.0000   0.0000   0.0000
     0.0000   0.0000   0.0000   0.0000   0.0000   0.0000   0.0000   0.0000
     0.0000   0.0000   0.0000   0.0000   0.0000

          k = 0.0000 0.1916 0.0000 ( 49535 PWs)   bands (ev):

   -81.6188 -67.9987 -67.9694 -67.7895 -67.6499 -67.4865 -48.6250 -47.3092
   -47.1096 -34.7797 -34.7592 -34.7548 -34.7400 -34.7385 -34.7173 -34.5674
   -34.5575 -34.5371 -34.4223 -34.4141 -34.4059 -34.2623 -34.2488 -34.2418
   -23.6208 -23.6010 -15.2966 -15.2555 -14.4320 -14.3925 -13.8613 -13.8488
   -13.6107 -13.5135 -13.4886 -13.4114 -13.2472 -13.1969 -13.1800 -13.1493
   -13.0232 -12.9050 -12.7728 -12.7198 -12.6184 -12.6013 -12.5279 -12.4321
   -11.8792 -11.5944  -7.1571  -7.1332  -7.0902  -7.0851  -7.0786  -7.0735
    -4.5279  -4.4904  -2.8655  -2.7864  -2.0355  -1.7005  -1.3465  -1.3431
    -1.2778  -1.2394  -0.9915  -0.9528  -0.9086  -0.6260  -0.5903  -0.4353
    -0.3702  -0.1356  -0.0903   0.1173   0.1956   0.1993   0.4260   0.5671
     0.6524   0.7050   0.7899   0.8821   1.0411   1.2294   1.2504   1.3669
     1.4053   1.5527   1.6473   1.7569   1.7618   1.8357   1.9050   2.0127
     2.0193   2.1315   2.1397   2.2207   2.3085   2.3249   2.4388   2.4707
     2.5200   2.5965   2.6777   2.7035   2.7456   2.8067   2.9024   2.9441
     3.0260   3.0697   3.1168   3.1551   3.2021   3.2389   3.2816   3.3349
     3.4108   3.4782   3.5000   3.5632   3.5844   3.7719   3.7774   3.9257
     4.7876   5.0710   5.9328   6.3440   6.6379   8.9970   9.9173  10.3320
    10.9174  11.3240  11.6855  12.0174  12.0962  12.1740  12.3986  12.5556
    12.5791  12.7822  12.9307  12.9446  13.0452  13.1889  13.2438  13.2887
    13.3762  13.4151  13.6026  13.7717  13.7945

     occupation numbers 
     1.0000   1.0000   1.0000   1.0000   1.0000   1.0000   1.0000   1.0000
     1.0000   1.0000   1.0000   1.0000   1.0000   1.0000   1.0000   1.0000
     1.0000   1.0000   1.0000   1.0000   1.0000   1.0000   1.0000   1.0000
     1.0000   1.0000   1.0000   1.0000   1.0000   1.0000   1.0000   1.0000
     1.0000   1.0000   1.0000   1.0000   1.0000   1.0000   1.0000   1.0000
     1.0000   1.0000   1.0000   1.0000   1.0000   1.0000   1.0000   1.0000
     1.0000   1.0000   1.0000   1.0000   1.0000   1.0000   1.0000   1.0000
     1.0000   1.0000   1.0000   1.0000   1.0000   1.0000   1.0000   1.0000
     1.0000   1.0000   1.0000   1.0000   1.0000   1.0000   1.0000   1.0000
     1.0000   1.0000   1.0000   1.0000   1.0000   1.0000   1.0000   1.0000
     1.0000   1.0000   1.0000   1.0000   1.0000   1.0000   1.0000   1.0000
     1.0000   1.0000   1.0000   1.0000   1.0000   1.0000   1.0000   1.0000
     1.0000   1.0000   1.0000   1.0000   1.0000   1.0000   1.0000   1.0000
     1.0000   1.0000   1.0000   1.0000   1.0000   1.0000   1.0000   1.0000
     1.0000   1.0000   1.0000   1.0000   1.0000   1.0000   1.0000   1.0000
     1.0000   1.0000   1.0000   1.0000   1.0000   1.0000   1.0000   1.0000
     1.0000   1.0000   1.0000   1.0000   1.0000   0.0000   0.0000   0.0000
     0.0000   0.0000   0.0000   0.0000   0.0000   0.0000   0.0000   0.0000
     0.0000   0.0000   0.0000   0.0000   0.0000   0.0000   0.0000   0.0000
     0.0000   0.0000   0.0000   0.0000   0.0000

          k = 0.0000 0.1916 0.1723 ( 49591 PWs)   bands (ev):

   -81.6188 -67.9987 -67.9694 -67.7895 -67.6499 -67.4865 -48.6250 -47.3092
   -47.1096 -34.7797 -34.7592 -34.7548 -34.7400 -34.7385 -34.7173 -34.5674
   -34.5575 -34.5371 -34.4223 -34.4141 -34.4059 -34.2623 -34.2488 -34.2418
   -23.6208 -23.6010 -15.2879 -15.2647 -14.4234 -14.4016 -13.8617 -13.8484
   -13.6062 -13.5105 -13.4995 -13.4049 -13.2537 -13.1893 -13.1818 -13.1503
   -13.0216 -12.9073 -12.7691 -12.7235 -12.6204 -12.5992 -12.5238 -12.4361
   -11.8790 -11.5949  -7.1571  -7.1332  -7.0901  -7.0850  -7.0786  -7.0734
    -4.5223  -4.4964  -2.8466  -2.8070  -2.0169  -1.6934  -1.3459  -1.3415
    -1.2714  -1.2494  -0.9863  -0.9583  -0.9139  -0.6534  -0.5627  -0.5036
    -0.3334  -0.1475  -0.1305   0.0927   0.1876   0.2016   0.4545   0.5625
     0.6838   0.7142   0.7482   0.9229   1.0893   1.2086   1.2884   1.3553
     1.4949   1.5342   1.6857   1.7329   1.7953   1.8156   1.9207   1.9941
     2.0413   2.0984   2.1510   2.2058   2.2650   2.3133   2.4169   2.4568
     2.5194   2.5877   2.6563   2.7155   2.7327   2.8142   2.8569   2.9537
     3.0023   3.0895   3.1231   3.1664   3.2184   3.2325   3.2772   3.3487
     3.3944   3.4647   3.4985   3.5678   3.5751   3.7831   3.8080   3.9276
     4.7887   5.0666   5.9326   6.3404   6.6392   9.2571   9.8965  10.0994
    10.6037  11.3272  11.6933  12.0529  12.2062  12.4313  12.5103  12.5901
    12.7297  12.8135  12.8870  12.9674  13.0428  13.0905  13.1874  13.3101
    13.3365  13.4574  13.5828  13.6661  13.7854

     occupation numbers 
     1.0000   1.0000   1.0000   1.0000   1.0000   1.0000   1.0000   1.0000
     1.0000   1.0000   1.0000   1.0000   1.0000   1.0000   1.0000   1.0000
     1.0000   1.0000   1.0000   1.0000   1.0000   1.0000   1.0000   1.0000
     1.0000   1.0000   1.0000   1.0000   1.0000   1.0000   1.0000   1.0000
     1.0000   1.0000   1.0000   1.0000   1.0000   1.0000   1.0000   1.0000
     1.0000   1.0000   1.0000   1.0000   1.0000   1.0000   1.0000   1.0000
     1.0000   1.0000   1.0000   1.0000   1.0000   1.0000   1.0000   1.0000
     1.0000   1.0000   1.0000   1.0000   1.0000   1.0000   1.0000   1.0000
     1.0000   1.0000   1.0000   1.0000   1.0000   1.0000   1.0000   1.0000
     1.0000   1.0000   1.0000   1.0000   1.0000   1.0000   1.0000   1.0000
     1.0000   1.0000   1.0000   1.0000   1.0000   1.0000   1.0000   1.0000
     1.0000   1.0000   1.0000   1.0000   1.0000   1.0000   1.0000   1.0000
     1.0000   1.0000   1.0000   1.0000   1.0000   1.0000   1.0000   1.0000
     1.0000   1.0000   1.0000   1.0000   1.0000   1.0000   1.0000   1.0000
     1.0000   1.0000   1.0000   1.0000   1.0000   1.0000   1.0000   1.0000
     1.0000   1.0000   1.0000   1.0000   1.0000   1.0000   1.0000   1.0000
     1.0000   1.0000   1.0000   1.0000   1.0000   0.0000   0.0000   0.0000
     0.0000   0.0000   0.0000   0.0000   0.0000   0.0000   0.0000   0.0000
     0.0000   0.0000   0.0000   0.0000   0.0000   0.0000   0.0000   0.0000
     0.0000   0.0000   0.0000   0.0000   0.0000

          k = 0.1666 0.0000 0.0307 ( 49577 PWs)   bands (ev):

   -81.6188 -67.9987 -67.9694 -67.7895 -67.6499 -67.4865 -48.6250 -47.3092
   -47.1096 -34.7794 -34.7601 -34.7541 -34.7407 -34.7378 -34.7173 -34.5674
   -34.5575 -34.5371 -34.4223 -34.4140 -34.4059 -34.2624 -34.2488 -34.2417
   -23.6207 -23.6009 -15.2445 -15.2042 -14.4109 -14.3797 -13.9832 -13.9625
   -13.6290 -13.5173 -13.4775 -13.3823 -13.2173 -13.1687 -13.1275 -13.1231
   -13.0074 -12.9154 -12.8009 -12.7440 -12.6773 -12.6397 -12.5150 -12.4241
   -11.8647 -11.6103  -7.1598  -7.1333  -7.0905  -7.0842  -7.0776  -7.0723
    -4.4118  -4.3704  -2.6720  -2.5924  -2.1003  -1.7461  -1.6866  -1.6019
    -1.1724  -1.1153  -1.0062  -0.9491  -0.8189  -0.6336  -0.6088  -0.4482
    -0.2383  -0.1918  -0.1017   0.0879   0.2059   0.2870   0.3713   0.4931
     0.6643   0.7930   0.8045   0.9017   1.0348   1.1327   1.2287   1.2781
     1.3428   1.5565   1.6378   1.6592   1.7395   1.8156   1.9113   1.9547
     2.0559   2.1170   2.1990   2.2681   2.2947   2.3429   2.3976   2.4925
     2.5372   2.5921   2.6576   2.7302   2.7975   2.8448   2.9067   2.9380
     2.9864   3.0362   3.0787   3.1059   3.1331   3.2286   3.2962   3.3658
     3.4066   3.4678   3.4824   3.5237   3.5569   3.6928   3.7682   3.9602
     4.8473   5.0479   5.9277   6.3735   6.6141   8.9248  10.2597  10.8424
    11.1775  11.4630  11.5596  11.8662  12.0432  12.1458  12.4540  12.5301
    12.6349  12.7185  12.8534  13.0300  13.0581  13.1572  13.1734  13.2262
    13.3542  13.5494  13.5726  13.6990  13.7516

     occupation numbers 
     1.0000   1.0000   1.0000   1.0000   1.0000   1.0000   1.0000   1.0000
     1.0000   1.0000   1.0000   1.0000   1.0000   1.0000   1.0000   1.0000
     1.0000   1.0000   1.0000   1.0000   1.0000   1.0000   1.0000   1.0000
     1.0000   1.0000   1.0000   1.0000   1.0000   1.0000   1.0000   1.0000
     1.0000   1.0000   1.0000   1.0000   1.0000   1.0000   1.0000   1.0000
     1.0000   1.0000   1.0000   1.0000   1.0000   1.0000   1.0000   1.0000
     1.0000   1.0000   1.0000   1.0000   1.0000   1.0000   1.0000   1.0000
     1.0000   1.0000   1.0000   1.0000   1.0000   1.0000   1.0000   1.0000
     1.0000   1.0000   1.0000   1.0000   1.0000   1.0000   1.0000   1.0000
     1.0000   1.0000   1.0000   1.0000   1.0000   1.0000   1.0000   1.0000
     1.0000   1.0000   1.0000   1.0000   1.0000   1.0000   1.0000   1.0000
     1.0000   1.0000   1.0000   1.0000   1.0000   1.0000   1.0000   1.0000
     1.0000   1.0000   1.0000   1.0000   1.0000   1.0000   1.0000   1.0000
     1.0000   1.0000   1.0000   1.0000   1.0000   1.0000   1.0000   1.0000
     1.0000   1.0000   1.0000   1.0000   1.0000   1.0000   1.0000   1.0000
     1.0000   1.0000   1.0000   1.0000   1.0000   1.0000   1.0000   1.0000
     1.0000   1.0000   1.0000   1.0000   1.0000   0.0000   0.0000   0.0000
     0.0000   0.0000   0.0000   0.0000   0.0000   0.0000   0.0000   0.0000
     0.0000   0.0000   0.0000   0.0000   0.0000   0.0000   0.0000   0.0000
     0.0000   0.0000   0.0000   0.0000   0.0000

          k = 0.1666 0.0000 0.2030 ( 49607 PWs)   bands (ev):

   -81.6188 -67.9987 -67.9694 -67.7895 -67.6499 -67.4865 -48.6250 -47.3092
   -47.1096 -34.7794 -34.7601 -34.7541 -34.7407 -34.7378 -34.7173 -34.5674
   -34.5575 -34.5371 -34.4223 -34.4140 -34.4059 -34.2624 -34.2488 -34.2417
   -23.6207 -23.6009 -15.2338 -15.2154 -14.4025 -14.3884 -13.9792 -13.9666
   -13.6227 -13.5294 -13.4731 -13.3786 -13.2170 -13.1690 -13.1378 -13.1151
   -13.0040 -12.9180 -12.7972 -12.7491 -12.6715 -12.6444 -12.5093 -12.4295
   -11.8642 -11.6110  -7.1598  -7.1332  -7.0905  -7.0842  -7.0776  -7.0722
    -4.4132  -4.3691  -2.6564  -2.6110  -2.0772  -1.7725  -1.6659  -1.5926
    -1.1680  -1.1219  -1.0066  -0.9609  -0.8004  -0.6376  -0.5917  -0.5394
    -0.2103  -0.1626  -0.1416   0.0399   0.2000   0.2895   0.3526   0.5388
     0.6813   0.7799   0.8295   0.8991   1.0249   1.1736   1.1957   1.3215
     1.3635   1.6011   1.6539   1.6916   1.7464   1.8791   1.9154   1.9644
     1.9982   2.1121   2.1575   2.2160   2.2600   2.3554   2.3882   2.4526
     2.5085   2.6253   2.6627   2.7008   2.8007   2.8707   2.8850   2.9534
     2.9634   3.0243   3.0634   3.1043   3.1690   3.2551   3.3215   3.3380
     3.4043   3.4402   3.4780   3.5270   3.5391   3.7132   3.7998   3.9579
     4.8477   5.0443   5.9271   6.3726   6.6141   9.2845   9.7067  10.9297
    11.2090  11.3221  11.6168  11.7636  12.0085  12.3830  12.5456  12.5746
    12.7291  12.8596  12.8999  12.9670  13.0339  13.0830  13.2164  13.2696
    13.3113  13.4062  13.5118  13.5504  13.8421

     occupation numbers 
     1.0000   1.0000   1.0000   1.0000   1.0000   1.0000   1.0000   1.0000
     1.0000   1.0000   1.0000   1.0000   1.0000   1.0000   1.0000   1.0000
     1.0000   1.0000   1.0000   1.0000   1.0000   1.0000   1.0000   1.0000
     1.0000   1.0000   1.0000   1.0000   1.0000   1.0000   1.0000   1.0000
     1.0000   1.0000   1.0000   1.0000   1.0000   1.0000   1.0000   1.0000
     1.0000   1.0000   1.0000   1.0000   1.0000   1.0000   1.0000   1.0000
     1.0000   1.0000   1.0000   1.0000   1.0000   1.0000   1.0000   1.0000
     1.0000   1.0000   1.0000   1.0000   1.0000   1.0000   1.0000   1.0000
     1.0000   1.0000   1.0000   1.0000   1.0000   1.0000   1.0000   1.0000
     1.0000   1.0000   1.0000   1.0000   1.0000   1.0000   1.0000   1.0000
     1.0000   1.0000   1.0000   1.0000   1.0000   1.0000   1.0000   1.0000
     1.0000   1.0000   1.0000   1.0000   1.0000   1.0000   1.0000   1.0000
     1.0000   1.0000   1.0000   1.0000   1.0000   1.0000   1.0000   1.0000
     1.0000   1.0000   1.0000   1.0000   1.0000   1.0000   1.0000   1.0000
     1.0000   1.0000   1.0000   1.0000   1.0000   1.0000   1.0000   1.0000
     1.0000   1.0000   1.0000   1.0000   1.0000   1.0000   1.0000   1.0000
     1.0000   1.0000   1.0000   1.0000   1.0000   0.0000   0.0000   0.0000
     0.0000   0.0000   0.0000   0.0000   0.0000   0.0000   0.0000   0.0000
     0.0000   0.0000   0.0000   0.0000   0.0000   0.0000   0.0000   0.0000
     0.0000   0.0000   0.0000   0.0000   0.0000

          k = 0.1666 0.0000-0.1416 ( 49612 PWs)   bands (ev):

   -81.6188 -67.9987 -67.9694 -67.7895 -67.6499 -67.4865 -48.6250 -47.3092
   -47.1096 -34.7794 -34.7601 -34.7541 -34.7407 -34.7378 -34.7173 -34.5674
   -34.5575 -34.5371 -34.4223 -34.4140 -34.4059 -34.2624 -34.2488 -34.2417
   -23.6207 -23.6009 -15.2382 -15.2108 -14.4042 -14.3867 -13.9785 -13.9673
   -13.6251 -13.5228 -13.4778 -13.3791 -13.2174 -13.1684 -13.1348 -13.1172
   -13.0054 -12.9176 -12.7952 -12.7510 -12.6639 -12.6519 -12.5100 -12.4284
   -11.8642 -11.6108  -7.1598  -7.1333  -7.0905  -7.0842  -7.0776  -7.0722
    -4.3968  -4.3857  -2.6553  -2.6109  -2.0864  -1.7681  -1.6673  -1.5962
    -1.1636  -1.1278  -0.9998  -0.9413  -0.8206  -0.6314  -0.6078  -0.5145
    -0.2299  -0.1713  -0.1295   0.0484   0.2150   0.2807   0.4017   0.5178
     0.6564   0.7921   0.8144   0.9026   1.0430   1.1547   1.2231   1.2617
     1.4007   1.6104   1.6191   1.6815   1.7329   1.8048   1.9110   1.9596
     1.9995   2.1363   2.1821   2.2413   2.2657   2.3498   2.4032   2.4571
     2.5315   2.6038   2.6892   2.7302   2.8342   2.8735   2.8965   2.9241
     2.9709   3.0264   3.0580   3.1345   3.1479   3.1959   3.2969   3.3668
     3.3847   3.4340   3.4653   3.5444   3.5562   3.7042   3.7935   3.9635
     4.8450   5.0479   5.9275   6.3725   6.6161   9.0902   9.9619  10.9583
    11.2538  11.3160  11.6421  11.7581  12.0014  12.3603  12.4999  12.5373
    12.6963  12.7325  12.8500  12.9370  13.0654  13.0859  13.1626  13.2460
    13.3738  13.4755  13.5181  13.6600  13.7915

     occupation numbers 
     1.0000   1.0000   1.0000   1.0000   1.0000   1.0000   1.0000   1.0000
     1.0000   1.0000   1.0000   1.0000   1.0000   1.0000   1.0000   1.0000
     1.0000   1.0000   1.0000   1.0000   1.0000   1.0000   1.0000   1.0000
     1.0000   1.0000   1.0000   1.0000   1.0000   1.0000   1.0000   1.0000
     1.0000   1.0000   1.0000   1.0000   1.0000   1.0000   1.0000   1.0000
     1.0000   1.0000   1.0000   1.0000   1.0000   1.0000   1.0000   1.0000
     1.0000   1.0000   1.0000   1.0000   1.0000   1.0000   1.0000   1.0000
     1.0000   1.0000   1.0000   1.0000   1.0000   1.0000   1.0000   1.0000
     1.0000   1.0000   1.0000   1.0000   1.0000   1.0000   1.0000   1.0000
     1.0000   1.0000   1.0000   1.0000   1.0000   1.0000   1.0000   1.0000
     1.0000   1.0000   1.0000   1.0000   1.0000   1.0000   1.0000   1.0000
     1.0000   1.0000   1.0000   1.0000   1.0000   1.0000   1.0000   1.0000
     1.0000   1.0000   1.0000   1.0000   1.0000   1.0000   1.0000   1.0000
     1.0000   1.0000   1.0000   1.0000   1.0000   1.0000   1.0000   1.0000
     1.0000   1.0000   1.0000   1.0000   1.0000   1.0000   1.0000   1.0000
     1.0000   1.0000   1.0000   1.0000   1.0000   1.0000   1.0000   1.0000
     1.0000   1.0000   1.0000   1.0000   1.0000   0.0000   0.0000   0.0000
     0.0000   0.0000   0.0000   0.0000   0.0000   0.0000   0.0000   0.0000
     0.0000   0.0000   0.0000   0.0000   0.0000   0.0000   0.0000   0.0000
     0.0000   0.0000   0.0000   0.0000   0.0000

          k = 0.1666 0.1916 0.0307 ( 49547 PWs)   bands (ev):

   -81.6188 -67.9987 -67.9694 -67.7895 -67.6499 -67.4865 -48.6250 -47.3092
   -47.1096 -34.7794 -34.7601 -34.7541 -34.7407 -34.7378 -34.7173 -34.5674
   -34.5575 -34.5371 -34.4223 -34.4140 -34.4059 -34.2624 -34.2488 -34.2417
   -23.6207 -23.6009 -15.2393 -15.1993 -14.4425 -14.4071 -13.9680 -13.9508
   -13.5708 -13.4911 -13.4338 -13.3734 -13.2335 -13.2076 -13.1756 -13.1536
   -13.0218 -12.9114 -12.7944 -12.7306 -12.6723 -12.6434 -12.5120 -12.4220
   -11.8633 -11.6099  -7.1590  -7.1343  -7.0898  -7.0835  -7.0784  -7.0727
    -4.3736  -4.3311  -2.8395  -2.7605  -2.0190  -1.6762  -1.5854  -1.5385
    -1.1641  -1.1253  -1.0440  -0.9532  -0.8065  -0.5992  -0.5592  -0.4156
    -0.3080  -0.1639  -0.1139   0.0812   0.1574   0.2492   0.3941   0.4552
     0.6465   0.7224   0.8132   0.8964   1.0019   1.1609   1.2587   1.3208
     1.3692   1.5540   1.6197   1.6759   1.7659   1.8238   1.9506   2.0123
     2.0886   2.1530   2.1790   2.2198   2.2819   2.3851   2.4398   2.4861
     2.5443   2.6012   2.6650   2.7184   2.7871   2.8362   2.8843   2.9159
     3.0128   3.0429   3.0939   3.1149   3.1656   3.1957   3.2589   3.3461
     3.3773   3.4297   3.4960   3.5062   3.5469   3.6418   3.7826   3.8807
     4.8490   5.0380   5.9354   6.3453   6.6294   9.2724  10.1088  10.4857
    11.0252  11.3872  11.6915  12.0856  12.1314  12.2593  12.3838  12.5708
    12.6156  12.7745  12.8265  12.9597  13.0064  13.1560  13.2074  13.3035
    13.3955  13.4312  13.6354  13.7862  13.9104

     occupation numbers 
     1.0000   1.0000   1.0000   1.0000   1.0000   1.0000   1.0000   1.0000
     1.0000   1.0000   1.0000   1.0000   1.0000   1.0000   1.0000   1.0000
     1.0000   1.0000   1.0000   1.0000   1.0000   1.0000   1.0000   1.0000
     1.0000   1.0000   1.0000   1.0000   1.0000   1.0000   1.0000   1.0000
     1.0000   1.0000   1.0000   1.0000   1.0000   1.0000   1.0000   1.0000
     1.0000   1.0000   1.0000   1.0000   1.0000   1.0000   1.0000   1.0000
     1.0000   1.0000   1.0000   1.0000   1.0000   1.0000   1.0000   1.0000
     1.0000   1.0000   1.0000   1.0000   1.0000   1.0000   1.0000   1.0000
     1.0000   1.0000   1.0000   1.0000   1.0000   1.0000   1.0000   1.0000
     1.0000   1.0000   1.0000   1.0000   1.0000   1.0000   1.0000   1.0000
     1.0000   1.0000   1.0000   1.0000   1.0000   1.0000   1.0000   1.0000
     1.0000   1.0000   1.0000   1.0000   1.0000   1.0000   1.0000   1.0000
     1.0000   1.0000   1.0000   1.0000   1.0000   1.0000   1.0000   1.0000
     1.0000   1.0000   1.0000   1.0000   1.0000   1.0000   1.0000   1.0000
     1.0000   1.0000   1.0000   1.0000   1.0000   1.0000   1.0000   1.0000
     1.0000   1.0000   1.0000   1.0000   1.0000   1.0000   1.0000   1.0000
     1.0000   1.0000   1.0000   1.0000   1.0000   0.0000   0.0000   0.0000
     0.0000   0.0000   0.0000   0.0000   0.0000   0.0000   0.0000   0.0000
     0.0000   0.0000   0.0000   0.0000   0.0000   0.0000   0.0000   0.0000
     0.0000   0.0000   0.0000   0.0000   0.0000

          k = 0.1666 0.1916 0.2030 ( 49568 PWs)   bands (ev):

   -81.6188 -67.9987 -67.9694 -67.7895 -67.6499 -67.4865 -48.6250 -47.3092
   -47.1096 -34.7794 -34.7601 -34.7541 -34.7407 -34.7378 -34.7173 -34.5674
   -34.5575 -34.5371 -34.4223 -34.4140 -34.4059 -34.2624 -34.2488 -34.2417
   -23.6207 -23.6009 -15.2284 -15.2108 -14.4326 -14.4175 -13.9663 -13.9525
   -13.5665 -13.4885 -13.4459 -13.3646 -13.2375 -13.2101 -13.1731 -13.1510
   -13.0203 -12.9140 -12.7914 -12.7352 -12.6685 -12.6460 -12.5063 -12.4273
   -11.8629 -11.6105  -7.1590  -7.1343  -7.0898  -7.0835  -7.0784  -7.0726
    -4.3726  -4.3323  -2.8200  -2.7819  -2.0010  -1.6686  -1.6025  -1.5224
    -1.1685  -1.1202  -1.0459  -0.9603  -0.7901  -0.6395  -0.5360  -0.4703
    -0.2773  -0.1822  -0.1287   0.0459   0.1556   0.2494   0.3803   0.4817
     0.6438   0.7186   0.8450   0.9093   1.0149   1.1949   1.2553   1.3387
     1.4383   1.5307   1.5983   1.7033   1.7997   1.8467   1.9672   2.0225
     2.0621   2.1346   2.1628   2.2000   2.2496   2.3611   2.4163   2.4940
     2.5213   2.5903   2.6431   2.7420   2.7754   2.8137   2.8501   2.9615
     3.0052   3.0226   3.1008   3.1180   3.1827   3.2176   3.2648   3.3424
     3.3682   3.4165   3.4846   3.4942   3.5437   3.6825   3.8012   3.8853
     4.8492   5.0338   5.9349   6.3430   6.6294   9.5807   9.9960  10.3089
    10.6945  11.3766  11.6889  12.1133  12.2067  12.3364  12.5778  12.6960
    12.7652  12.8567  12.9086  12.9473  13.0260  13.0857  13.1764  13.2400
    13.2697  13.4548  13.5313  13.7312  13.7836

     occupation numbers 
     1.0000   1.0000   1.0000   1.0000   1.0000   1.0000   1.0000   1.0000
     1.0000   1.0000   1.0000   1.0000   1.0000   1.0000   1.0000   1.0000
     1.0000   1.0000   1.0000   1.0000   1.0000   1.0000   1.0000   1.0000
     1.0000   1.0000   1.0000   1.0000   1.0000   1.0000   1.0000   1.0000
     1.0000   1.0000   1.0000   1.0000   1.0000   1.0000   1.0000   1.0000
     1.0000   1.0000   1.0000   1.0000   1.0000   1.0000   1.0000   1.0000
     1.0000   1.0000   1.0000   1.0000   1.0000   1.0000   1.0000   1.0000
     1.0000   1.0000   1.0000   1.0000   1.0000   1.0000   1.0000   1.0000
     1.0000   1.0000   1.0000   1.0000   1.0000   1.0000   1.0000   1.0000
     1.0000   1.0000   1.0000   1.0000   1.0000   1.0000   1.0000   1.0000
     1.0000   1.0000   1.0000   1.0000   1.0000   1.0000   1.0000   1.0000
     1.0000   1.0000   1.0000   1.0000   1.0000   1.0000   1.0000   1.0000
     1.0000   1.0000   1.0000   1.0000   1.0000   1.0000   1.0000   1.0000
     1.0000   1.0000   1.0000   1.0000   1.0000   1.0000   1.0000   1.0000
     1.0000   1.0000   1.0000   1.0000   1.0000   1.0000   1.0000   1.0000
     1.0000   1.0000   1.0000   1.0000   1.0000   1.0000   1.0000   1.0000
     1.0000   1.0000   1.0000   1.0000   1.0000   0.0000   0.0000   0.0000
     0.0000   0.0000   0.0000   0.0000   0.0000   0.0000   0.0000   0.0000
     0.0000   0.0000   0.0000   0.0000   0.0000   0.0000   0.0000   0.0000
     0.0000   0.0000   0.0000   0.0000   0.0000

          k = 0.1666 0.1916-0.1416 ( 49571 PWs)   bands (ev):

   -81.6188 -67.9987 -67.9694 -67.7895 -67.6499 -67.4865 -48.6250 -47.3092
   -47.1096 -34.7794 -34.7601 -34.7541 -34.7407 -34.7378 -34.7173 -34.5674
   -34.5575 -34.5371 -34.4223 -34.4140 -34.4059 -34.2624 -34.2488 -34.2417
   -23.6207 -23.6009 -15.2330 -15.2060 -14.4354 -14.4147 -13.9640 -13.9549
   -13.5682 -13.4886 -13.4414 -13.3686 -13.2384 -13.2041 -13.1774 -13.1519
   -13.0203 -12.9135 -12.7888 -12.7369 -12.6608 -12.6542 -12.5070 -12.4263
   -11.8628 -11.6104  -7.1591  -7.1344  -7.0898  -7.0835  -7.0784  -7.0726
    -4.3569  -4.3483  -2.8213  -2.7802  -2.0080  -1.6712  -1.6021  -1.5221
    -1.1540  -1.1376  -1.0240  -0.9561  -0.8189  -0.6163  -0.5483  -0.4534
    -0.2987  -0.1787  -0.1319   0.0637   0.1647   0.2404   0.4230   0.4784
     0.6192   0.7204   0.8236   0.9213   1.0181   1.1530   1.2837   1.3423
     1.4138   1.5456   1.5893   1.7212   1.7640   1.8294   1.9269   2.0038
     2.0445   2.1360   2.1853   2.2270   2.2755   2.3690   2.4340   2.4924
     2.5611   2.5912   2.6650   2.7033   2.7966   2.8256   2.8334   2.9625
     3.0199   3.0520   3.0887   3.1365   3.1686   3.1953   3.2685   3.3248
     3.3792   3.4088   3.4580   3.5106   3.5378   3.6751   3.7967   3.8853
     4.8467   5.0382   5.9353   6.3421   6.6300   9.4303  10.2037  10.2451
    10.8085  11.4342  11.7217  12.0785  12.1335  12.3656  12.5064  12.5656
    12.7292  12.7883  12.8610  12.9389  13.0577  13.1241  13.1890  13.2811
    13.3403  13.4028  13.4955  13.7503  13.8482

     occupation numbers 
     1.0000   1.0000   1.0000   1.0000   1.0000   1.0000   1.0000   1.0000
     1.0000   1.0000   1.0000   1.0000   1.0000   1.0000   1.0000   1.0000
     1.0000   1.0000   1.0000   1.0000   1.0000   1.0000   1.0000   1.0000
     1.0000   1.0000   1.0000   1.0000   1.0000   1.0000   1.0000   1.0000
     1.0000   1.0000   1.0000   1.0000   1.0000   1.0000   1.0000   1.0000
     1.0000   1.0000   1.0000   1.0000   1.0000   1.0000   1.0000   1.0000
     1.0000   1.0000   1.0000   1.0000   1.0000   1.0000   1.0000   1.0000
     1.0000   1.0000   1.0000   1.0000   1.0000   1.0000   1.0000   1.0000
     1.0000   1.0000   1.0000   1.0000   1.0000   1.0000   1.0000   1.0000
     1.0000   1.0000   1.0000   1.0000   1.0000   1.0000   1.0000   1.0000
     1.0000   1.0000   1.0000   1.0000   1.0000   1.0000   1.0000   1.0000
     1.0000   1.0000   1.0000   1.0000   1.0000   1.0000   1.0000   1.0000
     1.0000   1.0000   1.0000   1.0000   1.0000   1.0000   1.0000   1.0000
     1.0000   1.0000   1.0000   1.0000   1.0000   1.0000   1.0000   1.0000
     1.0000   1.0000   1.0000   1.0000   1.0000   1.0000   1.0000   1.0000
     1.0000   1.0000   1.0000   1.0000   1.0000   1.0000   1.0000   1.0000
     1.0000   1.0000   1.0000   1.0000   1.0000   0.0000   0.0000   0.0000
     0.0000   0.0000   0.0000   0.0000   0.0000   0.0000   0.0000   0.0000
     0.0000   0.0000   0.0000   0.0000   0.0000   0.0000   0.0000   0.0000
     0.0000   0.0000   0.0000   0.0000   0.0000

          k = 0.3333 0.0000 0.0614 ( 49555 PWs)   bands (ev):

   -81.6188 -67.9987 -67.9694 -67.7895 -67.6499 -67.4865 -48.6250 -47.3092
   -47.1096 -34.7788 -34.7616 -34.7529 -34.7414 -34.7371 -34.7174 -34.5674
   -34.5574 -34.5371 -34.4224 -34.4140 -34.4060 -34.2625 -34.2489 -34.2416
   -23.6205 -23.6007 -15.0861 -15.0496 -14.5232 -14.4981 -14.1072 -14.0838
   -13.5278 -13.4187 -13.3665 -13.3425 -13.2578 -13.2053 -13.1414 -13.1385
   -13.0105 -12.9320 -12.8552 -12.8156 -12.7438 -12.6733 -12.4955 -12.4164
   -11.8277 -11.6479  -7.1628  -7.1364  -7.0894  -7.0806  -7.0774  -7.0711
    -3.9987  -3.9429  -2.8031  -2.7054  -2.1058  -1.9739  -1.6906  -1.5379
    -1.1478  -1.1119  -1.0470  -0.9957  -0.6834  -0.5688  -0.5218  -0.4070
    -0.3245  -0.1743  -0.0678   0.0705   0.1817   0.2817   0.3753   0.4550
     0.5249   0.6966   0.8004   0.8576   1.0434   1.1281   1.2001   1.2514
     1.3031   1.3923   1.5114   1.6296   1.7224   1.8959   1.9907   2.0487
     2.1029   2.1427   2.2355   2.2947   2.3638   2.3843   2.4117   2.5227
     2.5748   2.6146   2.6291   2.7291   2.7821   2.8180   2.8364   2.8780
     2.9335   2.9713   3.0282   3.1091   3.1771   3.2114   3.2546   3.3063
     3.3409   3.3652   3.4157   3.4509   3.5055   3.5553   3.6604   3.8848
     4.9397   4.9816   5.9340   6.3744   6.6023   9.7022  10.6850  10.9988
    11.4347  11.5184  11.6528  11.7572  12.2179  12.2509  12.2706  12.4618
    12.6303  12.7322  12.7775  13.0345  13.0725  13.1262  13.1475  13.2017
    13.4464  13.5519  13.6410  13.8666  13.8957

     occupation numbers 
     1.0000   1.0000   1.0000   1.0000   1.0000   1.0000   1.0000   1.0000
     1.0000   1.0000   1.0000   1.0000   1.0000   1.0000   1.0000   1.0000
     1.0000   1.0000   1.0000   1.0000   1.0000   1.0000   1.0000   1.0000
     1.0000   1.0000   1.0000   1.0000   1.0000   1.0000   1.0000   1.0000
     1.0000   1.0000   1.0000   1.0000   1.0000   1.0000   1.0000   1.0000
     1.0000   1.0000   1.0000   1.0000   1.0000   1.0000   1.0000   1.0000
     1.0000   1.0000   1.0000   1.0000   1.0000   1.0000   1.0000   1.0000
     1.0000   1.0000   1.0000   1.0000   1.0000   1.0000   1.0000   1.0000
     1.0000   1.0000   1.0000   1.0000   1.0000   1.0000   1.0000   1.0000
     1.0000   1.0000   1.0000   1.0000   1.0000   1.0000   1.0000   1.0000
     1.0000   1.0000   1.0000   1.0000   1.0000   1.0000   1.0000   1.0000
     1.0000   1.0000   1.0000   1.0000   1.0000   1.0000   1.0000   1.0000
     1.0000   1.0000   1.0000   1.0000   1.0000   1.0000   1.0000   1.0000
     1.0000   1.0000   1.0000   1.0000   1.0000   1.0000   1.0000   1.0000
     1.0000   1.0000   1.0000   1.0000   1.0000   1.0000   1.0000   1.0000
     1.0000   1.0000   1.0000   1.0000   1.0000   1.0000   1.0000   1.0000
     1.0000   1.0000   1.0000   1.0000   1.0000   0.0000   0.0000   0.0000
     0.0000   0.0000   0.0000   0.0000   0.0000   0.0000   0.0000   0.0000
     0.0000   0.0000   0.0000   0.0000   0.0000   0.0000   0.0000   0.0000
     0.0000   0.0000   0.0000   0.0000   0.0000

          k = 0.3333 0.0000 0.2337 ( 49570 PWs)   bands (ev):

   -81.6188 -67.9987 -67.9694 -67.7895 -67.6499 -67.4865 -48.6250 -47.3092
   -47.1096 -34.7788 -34.7616 -34.7529 -34.7414 -34.7371 -34.7174 -34.5674
   -34.5574 -34.5371 -34.4224 -34.4140 -34.4060 -34.2625 -34.2489 -34.2416
   -23.6205 -23.6007 -15.0732 -15.0629 -14.5213 -14.5000 -14.1014 -14.0899
   -13.5232 -13.4226 -13.3740 -13.3352 -13.2566 -13.2033 -13.1529 -13.1301
   -13.0095 -12.9336 -12.8506 -12.8217 -12.7357 -12.6795 -12.4894 -12.4222
   -11.8268 -11.6488  -7.1629  -7.1363  -7.0894  -7.0805  -7.0774  -7.0711
    -3.9999  -3.9417  -2.7861  -2.7246  -2.0862  -1.9990  -1.6728  -1.5316
    -1.1523  -1.1165  -1.0286  -1.0040  -0.6558  -0.5673  -0.5277  -0.4887
    -0.2899  -0.2018  -0.0603   0.0383   0.1909   0.2784   0.3539   0.4865
     0.5296   0.7277   0.8128   0.8589   0.9977   1.1459   1.1975   1.2598
     1.3444   1.4276   1.4701   1.6878   1.7628   1.9107   1.9307   2.0551
     2.0923   2.1097   2.1898   2.2861   2.3559   2.4044   2.4498   2.4641
     2.5501   2.5903   2.6866   2.7198   2.7260   2.8275   2.8396   2.8946
     2.9497   3.0086   3.0514   3.1210   3.1869   3.1976   3.2354   3.3043
     3.3317   3.3414   3.3856   3.4304   3.5148   3.6020   3.6742   3.8903
     4.9374   4.9812   5.9332   6.3743   6.6026  10.0117  10.2269  11.0528
    11.4458  11.4889  11.6346  11.7899  12.1428  12.1945  12.3087  12.4149
    12.8353  12.8765  12.9230  12.9866  13.0443  13.1135  13.1384  13.2446
    13.3337  13.3956  13.5202  13.8877  13.9260

     occupation numbers 
     1.0000   1.0000   1.0000   1.0000   1.0000   1.0000   1.0000   1.0000
     1.0000   1.0000   1.0000   1.0000   1.0000   1.0000   1.0000   1.0000
     1.0000   1.0000   1.0000   1.0000   1.0000   1.0000   1.0000   1.0000
     1.0000   1.0000   1.0000   1.0000   1.0000   1.0000   1.0000   1.0000
     1.0000   1.0000   1.0000   1.0000   1.0000   1.0000   1.0000   1.0000
     1.0000   1.0000   1.0000   1.0000   1.0000   1.0000   1.0000   1.0000
     1.0000   1.0000   1.0000   1.0000   1.0000   1.0000   1.0000   1.0000
     1.0000   1.0000   1.0000   1.0000   1.0000   1.0000   1.0000   1.0000
     1.0000   1.0000   1.0000   1.0000   1.0000   1.0000   1.0000   1.0000
     1.0000   1.0000   1.0000   1.0000   1.0000   1.0000   1.0000   1.0000
     1.0000   1.0000   1.0000   1.0000   1.0000   1.0000   1.0000   1.0000
     1.0000   1.0000   1.0000   1.0000   1.0000   1.0000   1.0000   1.0000
     1.0000   1.0000   1.0000   1.0000   1.0000   1.0000   1.0000   1.0000
     1.0000   1.0000   1.0000   1.0000   1.0000   1.0000   1.0000   1.0000
     1.0000   1.0000   1.0000   1.0000   1.0000   1.0000   1.0000   1.0000
     1.0000   1.0000   1.0000   1.0000   1.0000   1.0000   1.0000   1.0000
     1.0000   1.0000   1.0000   1.0000   1.0000   0.0000   0.0000   0.0000
     0.0000   0.0000   0.0000   0.0000   0.0000   0.0000   0.0000   0.0000
     0.0000   0.0000   0.0000   0.0000   0.0000   0.0000   0.0000   0.0000
     0.0000   0.0000   0.0000   0.0000   0.0000

          k = 0.3333 0.0000-0.1109 ( 49584 PWs)   bands (ev):

   -81.6188 -67.9987 -67.9694 -67.7895 -67.6499 -67.4865 -48.6250 -47.3092
   -47.1096 -34.7788 -34.7616 -34.7529 -34.7414 -34.7371 -34.7174 -34.5674
   -34.5575 -34.5371 -34.4224 -34.4140 -34.4060 -34.2625 -34.2489 -34.2416
   -23.6205 -23.6007 -15.0823 -15.0535 -14.5158 -14.5057 -14.1035 -14.0877
   -13.5266 -13.4155 -13.3758 -13.3379 -13.2569 -13.2038 -13.1533 -13.1283
   -13.0097 -12.9326 -12.8498 -12.8249 -12.7320 -12.6819 -12.4906 -12.4206
   -11.8271 -11.6484  -7.1629  -7.1364  -7.0894  -7.0805  -7.0773  -7.0711
    -3.9768  -3.9654  -2.7955  -2.7143  -2.0963  -1.9855  -1.6857  -1.5358
    -1.1441  -1.1116  -1.0261  -1.0007  -0.6832  -0.5564  -0.5341  -0.4488
    -0.3190  -0.1985  -0.0461   0.0342   0.2013   0.2716   0.4020   0.4613
     0.5025   0.7279   0.8004   0.9031   1.0236   1.1289   1.1739   1.2693
     1.3342   1.3593   1.5236   1.6421   1.7196   1.8973   1.9626   2.0322
     2.0648   2.1376   2.2352   2.2748   2.3677   2.4027   2.4578   2.4992
     2.5626   2.6234   2.6541   2.7243   2.7806   2.8194   2.8314   2.9108
     2.9657   3.0088   3.0158   3.1147   3.1759   3.2001   3.2423   3.2590
     3.3394   3.3407   3.3685   3.4065   3.5346   3.6196   3.6653   3.8916
     4.9349   4.9848   5.9336   6.3743   6.6053   9.7340  10.5936  11.1120
    11.3650  11.5512  11.6881  11.8279  12.1309  12.2004  12.2990  12.4363
    12.6515  12.6609  12.9014  12.9282  13.0460  13.1211  13.1374  13.1743
    13.4652  13.5112  13.6570  13.7294  13.9021

     occupation numbers 
     1.0000   1.0000   1.0000   1.0000   1.0000   1.0000   1.0000   1.0000
     1.0000   1.0000   1.0000   1.0000   1.0000   1.0000   1.0000   1.0000
     1.0000   1.0000   1.0000   1.0000   1.0000   1.0000   1.0000   1.0000
     1.0000   1.0000   1.0000   1.0000   1.0000   1.0000   1.0000   1.0000
     1.0000   1.0000   1.0000   1.0000   1.0000   1.0000   1.0000   1.0000
     1.0000   1.0000   1.0000   1.0000   1.0000   1.0000   1.0000   1.0000
     1.0000   1.0000   1.0000   1.0000   1.0000   1.0000   1.0000   1.0000
     1.0000   1.0000   1.0000   1.0000   1.0000   1.0000   1.0000   1.0000
     1.0000   1.0000   1.0000   1.0000   1.0000   1.0000   1.0000   1.0000
     1.0000   1.0000   1.0000   1.0000   1.0000   1.0000   1.0000   1.0000
     1.0000   1.0000   1.0000   1.0000   1.0000   1.0000   1.0000   1.0000
     1.0000   1.0000   1.0000   1.0000   1.0000   1.0000   1.0000   1.0000
     1.0000   1.0000   1.0000   1.0000   1.0000   1.0000   1.0000   1.0000
     1.0000   1.0000   1.0000   1.0000   1.0000   1.0000   1.0000   1.0000
     1.0000   1.0000   1.0000   1.0000   1.0000   1.0000   1.0000   1.0000
     1.0000   1.0000   1.0000   1.0000   1.0000   1.0000   1.0000   1.0000
     1.0000   1.0000   1.0000   1.0000   1.0000   0.0000   0.0000   0.0000
     0.0000   0.0000   0.0000   0.0000   0.0000   0.0000   0.0000   0.0000
     0.0000   0.0000   0.0000   0.0000   0.0000   0.0000   0.0000   0.0000
     0.0000   0.0000   0.0000   0.0000   0.0000

          k = 0.3333 0.1916 0.0614 ( 49594 PWs)   bands (ev):

   -81.6188 -67.9987 -67.9694 -67.7895 -67.6499 -67.4865 -48.6250 -47.3092
   -47.1096 -34.7788 -34.7617 -34.7529 -34.7414 -34.7371 -34.7174 -34.5674
   -34.5574 -34.5371 -34.4224 -34.4139 -34.4060 -34.2625 -34.2489 -34.2416
   -23.6205 -23.6007 -15.0821 -15.0458 -14.5357 -14.5091 -14.1031 -14.0812
   -13.4935 -13.4368 -13.3471 -13.3034 -13.2611 -13.2144 -13.1869 -13.1606
   -13.0168 -12.9250 -12.8523 -12.8022 -12.7429 -12.6790 -12.4940 -12.4160
   -11.8272 -11.6479  -7.1631  -7.1368  -7.0889  -7.0802  -7.0777  -7.0713
    -3.9740  -3.9191  -2.9107  -2.8290  -2.0207  -1.8540  -1.6455  -1.5544
    -1.1650  -1.1257  -1.0369  -0.9682  -0.6767  -0.5456  -0.4956  -0.3874
    -0.3107  -0.2130  -0.0858   0.0600   0.1860   0.2599   0.3293   0.3817
     0.5314   0.6461   0.8299   0.9443   1.0247   1.1414   1.2171   1.2446
     1.2897   1.3770   1.4820   1.5554   1.7743   1.9072   2.0429   2.0527
     2.1076   2.1607   2.2223   2.2517   2.3074   2.4128   2.4733   2.5098
     2.5771   2.6170   2.6724   2.7178   2.7956   2.8209   2.8652   2.9380
     2.9643   2.9992   3.0309   3.0965   3.1244   3.1736   3.2143   3.2670
     3.2941   3.3378   3.4356   3.4467   3.5072   3.6099   3.6876   3.8285
     4.9395   4.9721   5.9407   6.3496   6.6171   9.9534  10.5779  10.8634
    11.2971  11.4005  11.5744  11.9629  12.0471  12.1739  12.3487  12.6134
    12.6878  12.8037  12.8289  12.8959  13.0220  13.1535  13.1839  13.3288
    13.4735  13.6212  13.7198  13.8044  13.9286

     occupation numbers 
     1.0000   1.0000   1.0000   1.0000   1.0000   1.0000   1.0000   1.0000
     1.0000   1.0000   1.0000   1.0000   1.0000   1.0000   1.0000   1.0000
     1.0000   1.0000   1.0000   1.0000   1.0000   1.0000   1.0000   1.0000
     1.0000   1.0000   1.0000   1.0000   1.0000   1.0000   1.0000   1.0000
     1.0000   1.0000   1.0000   1.0000   1.0000   1.0000   1.0000   1.0000
     1.0000   1.0000   1.0000   1.0000   1.0000   1.0000   1.0000   1.0000
     1.0000   1.0000   1.0000   1.0000   1.0000   1.0000   1.0000   1.0000
     1.0000   1.0000   1.0000   1.0000   1.0000   1.0000   1.0000   1.0000
     1.0000   1.0000   1.0000   1.0000   1.0000   1.0000   1.0000   1.0000
     1.0000   1.0000   1.0000   1.0000   1.0000   1.0000   1.0000   1.0000
     1.0000   1.0000   1.0000   1.0000   1.0000   1.0000   1.0000   1.0000
     1.0000   1.0000   1.0000   1.0000   1.0000   1.0000   1.0000   1.0000
     1.0000   1.0000   1.0000   1.0000   1.0000   1.0000   1.0000   1.0000
     1.0000   1.0000   1.0000   1.0000   1.0000   1.0000   1.0000   1.0000
     1.0000   1.0000   1.0000   1.0000   1.0000   1.0000   1.0000   1.0000
[...]
     atom   39 type  6   force =     0.00000000    0.00000000    0.00000000
     atom   40 type  3   force =     0.00000000    0.00000000    0.00000000
     atom   41 type  3   force =     0.00000000    0.00000000    0.00000000
     atom   42 type  3   force =     0.00000000    0.00000000    0.00000000
     atom   43 type  3   force =     0.00000000    0.00000000    0.00000000
     atom   44 type  2   force =     0.00000000    0.00000000    0.00000000
     The SCF correction term to forces
     atom    1 type  4   force =    -0.00000000    0.00000009   -0.00000000
     atom    2 type  4   force =    -0.00000000    0.00000010   -0.00000000
     atom    3 type  5   force =    -0.00000000   -0.00000048   -0.00000000
     atom    4 type  5   force =     0.00000000   -0.00000267    0.00000000
     atom    5 type  5   force =     0.00000000    0.00000180   -0.00000000
     atom    6 type  5   force =    -0.00000000    0.00000074    0.00000000
     atom    7 type  5   force =     0.00000000   -0.00000411    0.00000000
     atom    8 type  7   force =     0.00000020    0.00000042    0.00000042
     atom    9 type  7   force =    -0.00000020    0.00000042   -0.00000042
     atom   10 type  7   force =    -0.00000010   -0.00000037    0.00000027
     atom   11 type  7   force =     0.00000010   -0.00000037   -0.00000027
     atom   12 type  7   force =    -0.00000002   -0.00000045   -0.00000038
     atom   13 type  7   force =     0.00000002   -0.00000045    0.00000038
     atom   14 type  1   force =    -0.00000003    0.00000012   -0.00000013
     atom   15 type  1   force =     0.00000003    0.00000012    0.00000013
     atom   16 type  6   force =     0.00000102   -0.00000071   -0.00000121
     atom   17 type  6   force =    -0.00000102   -0.00000071    0.00000121
     atom   18 type  6   force =    -0.00000125    0.00000057    0.00000234
     atom   19 type  6   force =     0.00000125    0.00000057   -0.00000234
     atom   20 type  6   force =    -0.00000044   -0.00000119   -0.00000166
     atom   21 type  6   force =     0.00000044   -0.00000119    0.00000166
     atom   22 type  6   force =     0.00000003    0.00000062    0.00000096
     atom   23 type  6   force =    -0.00000003    0.00000062   -0.00000096
     atom   24 type  6   force =     0.00000165    0.00000082    0.00000149
     atom   25 type  6   force =    -0.00000165    0.00000082   -0.00000149
     atom   26 type  6   force =     0.00000181   -0.00000090    0.00000092
     atom   27 type  6   force =    -0.00000181   -0.00000090   -0.00000092
     atom   28 type  6   force =    -0.00000104   -0.00000144   -0.00000067
     atom   29 type  6   force =     0.00000104   -0.00000144    0.00000067
     atom   30 type  6   force =     0.00000211   -0.00000054    0.00000030
     atom   31 type  6   force =    -0.00000211   -0.00000054   -0.00000030
     atom   32 type  6   force =     0.00000229    0.00000035    0.00000052
     atom   33 type  6   force =    -0.00000229    0.00000035   -0.00000052
     atom   34 type  6   force =    -0.00000084    0.00000111   -0.00000139
     atom   35 type  6   force =     0.00000084    0.00000111    0.00000139
     atom   36 type  6   force =     0.00000259   -0.00000017    0.00000006
     atom   37 type  6   force =    -0.00000259   -0.00000017   -0.00000006
     atom   38 type  6   force =     0.00000012    0.00000103    0.00000018
     atom   39 type  6   force =    -0.00000012    0.00000103   -0.00000018
     atom   40 type  3   force =     0.00000015    0.00000007    0.00000025
     atom   41 type  3   force =    -0.00000015    0.00000007   -0.00000025
     atom   42 type  3   force =    -0.00000005    0.00000008    0.00000017
     atom   43 type  3   force =     0.00000005    0.00000008   -0.00000017
     atom   44 type  2   force =     0.00000000    0.00000119    0.00000000

     DFT-D3 dispersion contribution to forces:
     atom    1 type  4   force =    -0.00000002    0.00137736   -0.00000000
     atom    2 type  4   force =    -0.00000000   -0.00104932   -0.00000000
     atom    3 type  5   force =    -0.00000000    0.00045874   -0.00000001
     atom    4 type  5   force =     0.00000000   -0.00128923    0.00000001
     atom    5 type  5   force =    -0.00000000   -0.00050339   -0.00000001
     atom    6 type  5   force =     0.00000000    0.00112524    0.00000000
     atom    7 type  5   force =     0.00000000   -0.00032987    0.00000000
     atom    8 type  7   force =    -0.00003665   -0.00004752   -0.00008728
     atom    9 type  7   force =     0.00003665   -0.00004752    0.00008728
     atom   10 type  7   force =     0.00003636    0.00001398    0.00022568
     atom   11 type  7   force =    -0.00003637    0.00001398   -0.00022568
     atom   12 type  7   force =     0.00002531    0.00025998   -0.00022261
     atom   13 type  7   force =    -0.00002531    0.00025998    0.00022261
     atom   14 type  1   force =    -0.00019060    0.00005442   -0.00100124
     atom   15 type  1   force =     0.00019060    0.00005442    0.00100124
     atom   16 type  6   force =    -0.00005322    0.00012168    0.00050369
     atom   17 type  6   force =     0.00005323    0.00012168   -0.00050368
     atom   18 type  6   force =     0.00000410    0.00000439   -0.00041118
     atom   19 type  6   force =    -0.00000410    0.00000439    0.00041119
     atom   20 type  6   force =    -0.00002129   -0.00000077    0.00041619
     atom   21 type  6   force =     0.00002128   -0.00000077   -0.00041619
     atom   22 type  6   force =    -0.00007630   -0.00001794    0.00001897
     atom   23 type  6   force =     0.00007630   -0.00001794   -0.00001897
     atom   24 type  6   force =    -0.00019611    0.00101752    0.00031559
     atom   25 type  6   force =     0.00019611    0.00101752   -0.00031559
     atom   26 type  6   force =     0.00086828    0.00006856    0.00021382
     atom   27 type  6   force =    -0.00086827    0.00006856   -0.00021382
     atom   28 type  6   force =     0.00027947   -0.00039736    0.00010159
     atom   29 type  6   force =    -0.00027947   -0.00039735   -0.00010159
     atom   30 type  6   force =    -0.00010042    0.00016045   -0.00015773
     atom   31 type  6   force =     0.00010042    0.00016045    0.00015773
     atom   32 type  6   force =     0.00095016   -0.00043122    0.00038780
     atom   33 type  6   force =    -0.00095015   -0.00043122   -0.00038780
     atom   34 type  6   force =     0.00069430   -0.00058036   -0.00046730
     atom   35 type  6   force =    -0.00069430   -0.00058036    0.00046730
     atom   36 type  6   force =    -0.00010282   -0.00016351   -0.00036413
     atom   37 type  6   force =     0.00010282   -0.00016351    0.00036413
     atom   38 type  6   force =     0.00002409   -0.00000323   -0.00052215
     atom   39 type  6   force =    -0.00002410   -0.00000323    0.00052213
     atom   40 type  3   force =    -0.00010341    0.00011018   -0.00009778
     atom   41 type  3   force =     0.00010342    0.00011018    0.00009778
     atom   42 type  3   force =     0.00008502   -0.00040364   -0.00031872
     atom   43 type  3   force =    -0.00008501   -0.00040364    0.00031872
     atom   44 type  2   force =     0.00000000    0.00067928    0.00000000

     Total force =     0.000584     Total SCF correction =     0.000012

     DFT-D3 dispersion Force =     0.004611


     Computing stress (Cartesian axis) and pressure


     negative rho (up, down):  0.000E+00 2.944E-04
          total   stress  (Ry/bohr**3)                   (kbar)     P=        0.04
   0.00000033   0.00000000  -0.00000020            0.05        0.00       -0.03
   0.00000000   0.00000010   0.00000000            0.00        0.01        0.00
  -0.00000020   0.00000000   0.00000030           -0.03        0.00        0.04

     kinetic stress (kbar)  19887.65      0.00    -53.02
                                0.00  19977.19      0.00
                              -53.02      0.00  19669.34

     local   stress (kbar) -41464.29     -0.01   -349.69
                               -0.01 -40633.47      0.00
                             -349.69      0.00  20021.45

     nonloc. stress (kbar)   3777.81      0.00      7.01
                                0.00   3767.24      0.00
                                7.01      0.00   3755.62

     hartree stress (kbar)  23230.39      0.00    130.11
                                0.00  22896.35     -0.00
                              130.11     -0.00  -6803.29

     exc-cor stress (kbar)  -2794.87      0.00     -0.01
                                0.00  -2794.88      0.00
                               -0.01      0.00  -2791.78

     corecor stress (kbar)  -1840.56     -0.00      0.46
                               -0.00  -1841.21     -0.00
                                0.46     -0.00  -1842.50

     ewald   stress (kbar)   -781.63      0.01    265.07
                                0.01  -1356.63      0.00
                              265.07      0.00 -31998.08

     hubbard stress (kbar)      0.00      0.00      0.00
                                0.00      0.00      0.00
                                0.00      0.00      0.00

     DFT-D   stress (kbar)    -14.45     -0.00      0.05
                               -0.00    -14.57     -0.00
                                0.05     -0.00    -10.72

     XDM     stress (kbar)      0.00      0.00      0.00
                                0.00      0.00      0.00
                                0.00      0.00      0.00

     dft-nl  stress (kbar)      0.00      0.00      0.00
                                0.00      0.00      0.00
                                0.00      0.00      0.00

     TS-vdW  stress (kbar)      0.00      0.00      0.00
                                0.00      0.00      0.00
                                0.00      0.00      0.00

     MDB     stress (kbar)      0.00      0.00      0.00
                                0.00      0.00      0.00
                                0.00      0.00      0.00

     3D-RISM stress (kbar)      0.00      0.00      0.00
                                0.00      0.00      0.00
                                0.00      0.00      0.00

     Energy error            =      6.9E-07 Ry
     Gradient error          =      1.2E-04 Ry/Bohr
     Cell gradient error     =      4.9E-02 kbar

     number of scf cycles    =  24
     number of bfgs steps    =  23

     enthalpy           old  =   -2631.3183863051 Ry
     enthalpy           new  =   -2631.3183869936 Ry

     CASE: enthalpy          _new < enthalpy          _old

     new trust radius        =       0.0011042701 bohr
ibrav =    -12
 celldm(1) =     10.08369812
 celldm(2) =      1.73925227
 celldm(3) =      1.96653046
 celldm(5) =     -0.18258034
Input lattice vectors:
     1.00069784     0.00000000    -0.00000486
     0.00000000     1.74046599     0.00000000
    -0.35929097     0.00000000     1.93482592
New lattice vectors in INITIAL alat:
     1.00069784     0.00000000     0.00000000
     0.00000000     1.74046599     0.00000000
    -0.35930037     0.00000000     1.93482417
New lattice vectors in NEW alat (for information only):
     1.00000000     0.00000000     0.00000000
     0.00000000     1.73925227     0.00000000
    -0.35904981     0.00000000     1.93347493
Discrepancy in bohr =     0.000005    0.000000    0.000010
     new conv_thr            =            1.0E-10 Ry

     new unit-cell volume =   3447.94739 a.u.^3 (   510.93309 Ang^3 )
     density =      2.81471 g/cm^3

CELL_PARAMETERS (alat= 10.07666626)
   1.000697836   0.000000000   0.000000000
   0.000000000   1.740465986   0.000000000
  -0.359300367   0.000000000   1.934824173

ATOMIC_POSITIONS (crystal)
K                0.0000000000        0.4877623729        0.0000000000
K                0.5000000000        0.0079703907        0.0000000000
Mg              -0.0000000000        0.0061369595        0.5000000000
Mg              -0.0000000000        0.6673124956        0.5000000000
Mg               0.5000000000        0.4958144694        0.5000000000
Mg               0.5000000000        0.8354115178        0.5000000000
Mg               0.5000000000        0.1705076982        0.5000000000
Si               0.0888318864        0.1631296691        0.2267168754
Si               0.9111680766        0.1631296691        0.7732831396
Si               0.9351232268        0.8341448176        0.7658335861
Si               0.0648757302        0.8341448176        0.2341663839
Si               0.5643275308        0.6667072340        0.2327384971
Si               0.4356724692        0.6667072340        0.7672614879
Al               0.4096582717        0.3308004641        0.7702632458
Al               0.5903406853        0.3308004641        0.2297367692
O                0.1356063695        0.1577129797        0.3846775878
O                0.8643926315        0.1577129797        0.6153224122
O                0.8751321579        0.8345405725        0.6086667202
O                0.1248668741        0.8345405725        0.3913332798
O                0.6262752475        0.6698735293        0.3906634312
O                0.3737247225        0.6698735293        0.6093365098
O                0.3603737764        0.3331971046        0.6008295310
O                0.6396251806        0.3331971046        0.3991704390
O                0.3445987001        0.2061955067        0.1704538844
O                0.6554012999        0.2061955067        0.8295461006
O                0.0063909738        0.9962419968        0.1715735991
O                0.9936080722        0.9962419968        0.8284263709
O                0.6894362559        0.7689479862        0.8239210712
O                0.3105637441        0.7689479862        0.1760789288
O                0.8087414271        0.7377354254        0.1750311417
O                0.1912586179        0.7377354254        0.8249688733
O                0.5086297875        0.5075233898        0.1699717588
O                0.4913692295        0.5075233898        0.8300282262
O                0.1409330962        0.2730073766        0.8334937603
O                0.8590668888        0.2730073766        0.1665062097
O                0.1358644955        0.5116121142        0.3944178513
O                0.8641354745        0.5116121142        0.6055821787
O                0.6338058611        0.9995712718        0.4001798463
O                0.3661941389        0.9995712718        0.5998211377
H                0.1043648653        0.4933058626        0.3022255637
H                0.8956341737        0.4933058626        0.6977744363
H                0.5951749578        0.0125437776        0.3072663297
H                0.4048240592        0.0125437776        0.6927336703
Fe              -0.0000000000        0.3354880682        0.5000000000



     Writing config-only to output data dir ./temp/phl-fe1-fe2.save/ :
     XML data file
     NEW-OLD atomic charge density approx. for the potential

     Check: negative core charge=   -0.000001

     negative rho (up, down):  0.000E+00 2.943E-04
     Generating pointlists ...

     total cpu time spent up to now is   188376.0 secs

     Self-consistent Calculation

     iteration #  1     ecut=    90.00 Ry     beta= 0.70
     Davidson diagonalization with overlap

---- Real-time Memory Report at c_bands before calling an iterative solver
           920 MiB given to the printing process from OS
             0 MiB allocation reported by mallinfo(arena+hblkhd)
         10892 MiB available memory on the node where the printing process lives
------------------
     ethr =  1.00E-06,  avg # of iterations =  2.0

     Threshold (ethr) on eigenvalues was too large:
     Diagonalizing with lowered threshold

     Davidson diagonalization with overlap

---- Real-time Memory Report at c_bands before calling an iterative solver
           920 MiB given to the printing process from OS
             0 MiB allocation reported by mallinfo(arena+hblkhd)
         10492 MiB available memory on the node where the printing process lives
------------------
     ethr =  8.74E-10,  avg # of iterations =  9.6

     negative rho (up, down):  0.000E+00 2.943E-04

     total cpu time spent up to now is   191092.1 secs

     total energy              =   -2631.31838739 Ry
     estimated scf accuracy    <       0.00000090 Ry

     total magnetization       =     4.00 Bohr mag/cell
     absolute magnetization    =     4.04 Bohr mag/cell

     iteration #  2     ecut=    90.00 Ry     beta= 0.70
     Davidson diagonalization with overlap

---- Real-time Memory Report at c_bands before calling an iterative solver
           920 MiB given to the printing process from OS
             0 MiB allocation reported by mallinfo(arena+hblkhd)
         10052 MiB available memory on the node where the printing process lives
------------------
     ethr =  3.44E-10,  avg # of iterations =  2.0

     negative rho (up, down):  0.000E+00 2.943E-04

     total cpu time spent up to now is   191783.2 secs

     total energy              =   -2631.31838754 Ry
     estimated scf accuracy    <       0.00000006 Ry

     total magnetization       =     4.00 Bohr mag/cell
     absolute magnetization    =     4.04 Bohr mag/cell

     iteration #  3     ecut=    90.00 Ry     beta= 0.70
     Davidson diagonalization with overlap

---- Real-time Memory Report at c_bands before calling an iterative solver
           920 MiB given to the printing process from OS
             0 MiB allocation reported by mallinfo(arena+hblkhd)
          9921 MiB available memory on the node where the printing process lives
------------------
     ethr =  2.30E-11,  avg # of iterations = 11.8

     negative rho (up, down):  0.000E+00 2.943E-04

     total cpu time spent up to now is   193140.9 secs

     total energy              =   -2631.31838761 Ry
     estimated scf accuracy    <       0.00000005 Ry

     total magnetization       =     4.00 Bohr mag/cell
     absolute magnetization    =     4.04 Bohr mag/cell

     iteration #  4     ecut=    90.00 Ry     beta= 0.70
     Davidson diagonalization with overlap

---- Real-time Memory Report at c_bands before calling an iterative solver
           920 MiB given to the printing process from OS
             0 MiB allocation reported by mallinfo(arena+hblkhd)
         10175 MiB available memory on the node where the printing process lives
------------------
     ethr =  1.88E-11,  avg # of iterations =  5.7

     negative rho (up, down):  0.000E+00 2.943E-04

     total cpu time spent up to now is   193782.9 secs

     total energy              =   -2631.31838762 Ry
     estimated scf accuracy    <       0.00000001 Ry

     total magnetization       =     4.00 Bohr mag/cell
     absolute magnetization    =     4.04 Bohr mag/cell

     iteration #  5     ecut=    90.00 Ry     beta= 0.70
     Davidson diagonalization with overlap

---- Real-time Memory Report at c_bands before calling an iterative solver
           920 MiB given to the printing process from OS
             0 MiB allocation reported by mallinfo(arena+hblkhd)
         10133 MiB available memory on the node where the printing process lives
------------------
     ethr =  4.30E-12,  avg # of iterations =  6.5

     negative rho (up, down):  0.000E+00 2.943E-04

     total cpu time spent up to now is   194502.2 secs

     total energy              =   -2631.31838762 Ry
     estimated scf accuracy    <          2.5E-09 Ry

     total magnetization       =     4.00 Bohr mag/cell
     absolute magnetization    =     4.04 Bohr mag/cell

     iteration #  6     ecut=    90.00 Ry     beta= 0.70
     Davidson diagonalization with overlap

---- Real-time Memory Report at c_bands before calling an iterative solver
           920 MiB given to the printing process from OS
             0 MiB allocation reported by mallinfo(arena+hblkhd)
         10001 MiB available memory on the node where the printing process lives
------------------
