
     Program PWSCF v.7.3.1 starts on  1Jan2026 at 11:43: 2 

     This program is part of the open-source Quantum ESPRESSO suite
     for quantum simulation of materials; please cite
         "P. Giannozzi et al., J. Phys.:Condens. Matter 21 395502 (2009);
         "P. Giannozzi et al., J. Phys.:Condens. Matter 29 465901 (2017);
         "P. Giannozzi et al., J. Chem. Phys. 152 154105 (2020);
          URL http://www.quantum-espresso.org", 
     in publications or presentations arising from this work. More details at
     http://www.quantum-espresso.org/quote

     Parallel version (MPI), running on    14 processors

     MPI processes distributed on     1 nodes
     29219 MiB available memory on the printing compute node when the environment starts

     Reading input from vc_relax.in

     Current dimensions of program PWSCF are:
     Max number of different atomic species (ntypx) = 10
     Max number of k-points (npk) = 120000
     Max angular momentum in pseudopotentials (lmaxx) =  4
     file Al.pbe-n-kjpaw_psl.1.0.0.UPF: wavefunction(s)  3S 3P renormalized
     file Fe.pbe-spn-kjpaw_psl.1.0.0.UPF: wavefunction(s)  3P 3D renormalized
     file H.pbe-kjpaw_psl.1.0.0.UPF: wavefunction(s)  1S renormalized
     file K.pbe-spn-kjpaw_psl.1.0.0.UPF: wavefunction(s)  3S renormalized
     file Mg.pbe-spnl-kjpaw_psl.1.0.0.UPF: wavefunction(s)  2P renormalized
     file O.pbe-n-kjpaw_psl.1.0.0.UPF: wavefunction(s)  2S 2P renormalized
     file Si.pbe-n-kjpaw_psl.1.0.0.UPF: wavefunction(s)  3S 3P renormalized

     K-points division:     npool     =       2
     R & G space division:  proc/nbgrp/npool/nimage =       7
     Subspace diagonalization in iterative solution of the eigenvalue problem:
     one sub-group per band group will be used
     custom distributed-memory algorithm (size of sub-group:  2*  2 procs)


     Parallelization info
     --------------------
     sticks:   dense  smooth     PW     G-vecs:    dense   smooth      PW
     Min        1442     720    193               160246    56657    7865
     Max        1443     721    194               160249    56663    7871
     Sum       10099    5041   1353              1121731   396609   55075

     Using Slab Decomposition



     bravais-lattice index     =          -12
     lattice parameter (alat)  =      10.0767  a.u.
     unit-cell volume          =    3438.7175 (a.u.)^3
     number of atoms/cell      =           44
     number of atomic types    =            7
     number of electrons       =       262.00
     number of Kohn-Sham states=          157
     kinetic-energy cutoff     =      90.0000  Ry
     charge density cutoff     =     720.0000  Ry
     scf convergence threshold =      1.0E-08
     mixing beta               =       0.7000
     number of iterations used =            8  plain     mixing
     energy convergence thresh.=      1.0E-05
     force convergence thresh. =      1.0E-04
     press convergence thresh. =      5.0E-02
     Exchange-correlation= SLA  PW   PBX  PBC
                           (   1   4   3   4   0   0   0)
     nstep                     =          100


     celldm(1)=  10.076666  celldm(2)=   1.735909  celldm(3)=   1.968321
     celldm(4)=   0.000000  celldm(5)=  -0.180309  celldm(6)=   0.000000

     crystal axes: (cart. coord. in units of alat)
               a(1) = (   1.000000   0.000000   0.000000 )  
               a(2) = (   0.000000   1.735909   0.000000 )  
               a(3) = (  -0.354905   0.000000   1.936060 )  

     reciprocal axes: (cart. coord. in units 2 pi/alat)
               b(1) = (  1.000000 -0.000000  0.183313 )  
               b(2) = (  0.000000  0.576067 -0.000000 )  
               b(3) = (  0.000000  0.000000  0.516513 )  


     PseudoPot. # 1 for Al read from file:
     ./../../../pseudos/Al.pbe-n-kjpaw_psl.1.0.0.UPF
     MD5 check sum: 502b6b27b9c6270cab5dd1084b96fa6d
     Pseudo is Projector augmented-wave + core cor, Zval =  3.0
     Generated using &quot;atomic&quot; code by A. Dal Corso  v.6.3
     Shape of augmentation charge: PSQ
     Using radial grid of 1135 points,  6 beta functions with: 
                l(1) =   0
                l(2) =   0
                l(3) =   1
                l(4) =   1
                l(5) =   2
                l(6) =   2
     Q(r) pseudized with 0 coefficients 


     PseudoPot. # 2 for Fe read from file:
     ./../../../pseudos/Fe.pbe-spn-kjpaw_psl.1.0.0.UPF
     MD5 check sum: fc81f059e5c5069939230b1155715ae8
     Pseudo is Projector augmented-wave + core cor, Zval = 16.0
     Generated using &quot;atomic&quot; code by A. Dal Corso  v.6.3
     Shape of augmentation charge: PSQ
     Using radial grid of 1191 points,  6 beta functions with: 
                l(1) =   0
                l(2) =   0
                l(3) =   1
                l(4) =   1
                l(5) =   2
                l(6) =   2
     Q(r) pseudized with 0 coefficients 


     PseudoPot. # 3 for H  read from file:
     ./../../../pseudos/H.pbe-kjpaw_psl.1.0.0.UPF
     MD5 check sum: d81a744832360e4a8af0b0b5b123bc2a
     Pseudo is Projector augmented-wave, Zval =  1.0
     Generated using &quot;atomic&quot; code by A. Dal Corso  v.6.3MaX
     Shape of augmentation charge: PSQ
     Using radial grid of  929 points,  2 beta functions with: 
                l(1) =   0
                l(2) =   0
     Q(r) pseudized with 0 coefficients 


     PseudoPot. # 4 for K  read from file:
     ./../../../pseudos/K.pbe-spn-kjpaw_psl.1.0.0.UPF
     MD5 check sum: 34cc42130a09071ebe376fd42eb21491
     Pseudo is Projector augmented-wave + core cor, Zval =  9.0
     Generated using &quot;atomic&quot; code by A. Dal Corso  v.6.2.2
     Shape of augmentation charge: PSQ
     Using radial grid of 1165 points,  6 beta functions with: 
                l(1) =   0
                l(2) =   0
                l(3) =   1
                l(4) =   1
                l(5) =   2
                l(6) =   2
     Q(r) pseudized with 0 coefficients 


     PseudoPot. # 5 for Mg read from file:
     ./../../../pseudos/Mg.pbe-spnl-kjpaw_psl.1.0.0.UPF
     MD5 check sum: fda14e0d92a6a9a5ebed782e5a4b3067
     Pseudo is Projector augmented-wave + core cor, Zval = 10.0
     Generated using &quot;atomic&quot; code by A. Dal Corso  v.6.3
     Shape of augmentation charge: PSQ
     Using radial grid of 1129 points,  4 beta functions with: 
                l(1) =   0
                l(2) =   0
                l(3) =   1
                l(4) =   1
     Q(r) pseudized with 0 coefficients 


     PseudoPot. # 6 for O  read from file:
     ./../../../pseudos/O.pbe-n-kjpaw_psl.1.0.0.UPF
     MD5 check sum: e99d9cef9b487d1ca56f5b95ecd0fd7a
     Pseudo is Projector augmented-wave + core cor, Zval =  6.0
     Generated using &quot;atomic&quot; code by A. Dal Corso  v.6.3
     Shape of augmentation charge: PSQ
     Using radial grid of 1095 points,  4 beta functions with: 
                l(1) =   0
                l(2) =   0
                l(3) =   1
                l(4) =   1
     Q(r) pseudized with 0 coefficients 


     PseudoPot. # 7 for Si read from file:
     ./../../../pseudos/Si.pbe-n-kjpaw_psl.1.0.0.UPF
     MD5 check sum: c39c59da582df4a0d9f10159256ea34e
     Pseudo is Projector augmented-wave + core cor, Zval =  4.0
     Generated using &quot;atomic&quot; code by A. Dal Corso  v.6.3
     Shape of augmentation charge: PSQ
     Using radial grid of 1141 points,  6 beta functions with: 
                l(1) =   0
                l(2) =   0
                l(3) =   1
                l(4) =   1
                l(5) =   2
                l(6) =   2
     Q(r) pseudized with 0 coefficients 


     atomic species   valence    mass     pseudopotential
     Al                3.00    26.98154     Al( 1.00)
     Fe               16.00    55.84500     Fe( 1.00)
     H                 1.00     1.00794     H ( 1.00)
     K                 9.00    39.09830     K ( 1.00)
     Mg               10.00    24.30500     Mg( 1.00)
     O                 6.00    15.99940     O ( 1.00)
     Si                4.00    28.08550     Si( 1.00)

     Starting magnetic structure 
     atomic species   magnetization
     Al              0.000
     Fe              0.300
     H               0.000
     K               0.000
     Mg              0.000
     O               0.000
     Si              0.000

      2 Sym. Ops. (no inversion) found


                                    s                        frac. trans.

      isym =  1     identity                                     

 cryst.   s( 1) = (     1          0          0      )
                  (     0          1          0      )
                  (     0          0          1      )

 cart.    s( 1) = (  1.0000000  0.0000000  0.0000000 )
                  (  0.0000000  1.0000000  0.0000000 )
                  (  0.0000000  0.0000000  1.0000000 )


      isym =  2     180 deg rotation - cart. axis [0,1,0]        

 cryst.   s( 2) = (    -1          0          0      )
                  (     0          1          0      )
                  (     0          0         -1      )

 cart.    s( 2) = ( -1.0000000  0.0000000  0.0000000 )
                  (  0.0000000  1.0000000  0.0000000 )
                  (  0.0000000  0.0000000 -1.0000000 )


     point group C_2  (2)   
     there are  2 classes
     the character table:

       E     C2   
A      1.00  1.00
B      1.00 -1.00

     the symmetry operations in each class and the name of the first element:

     E        1
          identity                                               
     C2       2
          180 deg rotation - cart. axis [0,1,0]                  

   Cartesian axes

     site n.     atom                  positions (alat units)
         1        K      tau(   1) = (   0.0000000   0.8491907   0.0000000  )
         2        K      tau(   2) = (   0.5000000   0.0112264   0.0000000  )
         3        Mg     tau(   3) = (  -0.1774526   0.0108850   0.9680302  )
         4        Mg     tau(   4) = (  -0.1774526   1.1581727   0.9680302  )
         5        Mg     tau(   5) = (   0.3225474   0.8606593   0.9680302  )
         6        Mg     tau(   6) = (   0.3225474   1.4502904   0.9680302  )
         7        Mg     tau(   7) = (   0.3225474   0.2959455   0.9680302  )
         8        Si     tau(   8) = (   0.0093032   0.2834707   0.4389049  )
         9        Si     tau(   9) = (   0.6357916   0.2834707   1.4971555  )
        10        Si     tau(  10) = (   0.6626119   1.4480519   1.4825222  )
        11        Si     tau(  11) = (  -0.0175181   1.4480519   0.4535381  )
        12        Si     tau(  12) = (   0.4824227   1.1573228   0.4507353  )
        13        Si     tau(  13) = (   0.1626722   1.1573228   1.4853251  )
        14        Al     tau(  14) = (   0.1354448   0.5740311   1.4912780  )
        15        Al     tau(  15) = (   0.5096491   0.5740311   0.4447824  )
        16        O      tau(  16) = (  -0.0004045   0.2739446   0.7445135  )
        17        O      tau(  17) = (   0.6454984   0.2739446   1.1915469  )
        18        O      tau(  18) = (   0.6587345   1.4487315   1.1784980  )
        19        O      tau(  19) = (  -0.0136406   1.4487315   0.7575624  )
        20        O      tau(  20) = (   0.4880060   1.1627478   0.7562369  )
        21        O      tau(  21) = (   0.1570889   1.1627478   1.1798234  )
        22        O      tau(  22) = (   0.1468058   0.5783323   1.1634891  )
        23        O      tau(  23) = (   0.4982880   0.5783323   0.7725712  )
        24        O      tau(  24) = (   0.2861775   0.3559822   0.3302622  )
        25        O      tau(  25) = (   0.3589174   0.3559822   1.6057981  )
        26        O      tau(  26) = (  -0.0557502   1.7296245   0.3321091  )
        27        O      tau(  27) = (   0.7008442   1.7296245   1.6039512  )
        28        O      tau(  28) = (   0.3950377   1.3367586   1.5950035  )
        29        O      tau(  29) = (   0.2500571   1.3367586   0.3410569  )
        30        O      tau(  30) = (   0.7486447   1.2787523   0.3389272  )
        31        O      tau(  31) = (  -0.1035498   1.2787523   1.5971332  )
        32        O      tau(  32) = (   0.4471539   0.8808503   0.3288894  )
        33        O      tau(  33) = (   0.1979400   0.8808503   1.6071709  )
        34        O      tau(  34) = (  -0.1571519   0.4761129   1.6134124  )
        35        O      tau(  35) = (   0.8022468   0.4761129   0.3226480  )
        36        O      tau(  36) = (  -0.0035169   0.8879147   0.7635125  )
        37        O      tau(  37) = (   0.6486117   0.8879147   1.1725480  )
        38        O      tau(  38) = (   0.4923582   1.7351986   0.7747400  )
        39        O      tau(  39) = (   0.1527363   1.7351986   1.1613223  )
        40        H      tau(  40) = (  -0.0020351   0.8554979   0.5852320  )
        41        H      tau(  41) = (   0.6471290   0.8554979   1.3508284  )
        42        H      tau(  42) = (   0.4866752   0.0223673   0.5950375  )
        43        H      tau(  43) = (   0.1584187   0.0223673   1.3410229  )
        44        Fe     tau(  44) = (  -0.1774526   0.5822214   0.9680302  )

     --------------------------------------------
     DFT-D3 Dispersion Correction (3-body terms):
     --------------------------------------------
       Reference C6 values for interpolation: 

         atom   Coordination number   C6
         H          0.912             6.05
         H          0.000            15.18
         O          0.000            31.01
         O          0.993            25.63
         O          1.989            20.74
         Mg         0.000          1366.75
         Mg         0.963           902.54
         Mg         1.950           351.12
         Al         0.000          1081.08
         Al         0.965           875.51
         Al         1.931           513.50
         Al         2.915           307.19
         Si         0.000           635.71
         Si         0.951           540.53
         Si         1.944           466.25
         Si         2.941           443.01
         Si         3.868           299.55
         K          0.000          9967.00
         K          0.977           676.04
         Fe         0.000           982.67
         Fe         1.648           409.99
         Fe         9.138           219.01

       Values used:

         atom   Coordination number  R0_AB[au]  C6      C8
         K         11.406            4.007    676.04 129074.98
         K         11.806            4.007    676.04 129074.98
         Mg        11.306            3.292    351.12  31436.69
         Mg        11.287            3.292    351.12  31436.69
         Mg        11.194            3.292    351.12  31436.69
         Mg        11.563            3.292    351.12  31436.69
         Mg        11.362            3.292    351.12  31436.69
         Si         6.506            3.583    299.55  21425.58
         Si         6.506            3.583    299.55  21425.58
         Si         6.196            3.583    299.55  21425.58
         Si         6.196            3.583    299.55  21425.58
         Si         6.227            3.583    299.55  21425.58
         Si         6.227            3.583    299.55  21425.58
         Al         7.188            3.789    307.19  29441.29
         Al         7.188            3.789    307.19  29441.29
         O          3.465            2.345     20.74    418.58
         O          3.465            2.345     20.74    418.58
         O          3.905            2.345     20.74    418.58
         O          3.905            2.345     20.74    418.58
         O          3.894            2.345     20.74    418.58
         O          3.894            2.345     20.74    418.58
         O          3.828            2.345     20.74    418.58
         O          3.828            2.345     20.74    418.58
         O          3.131            2.345     20.74    418.58
         O          3.131            2.345     20.74    418.58
         O          3.041            2.345     20.74    418.58
         O          3.041            2.345     20.74    418.58
         O          2.834            2.345     20.74    418.58
         O          2.834            2.345     20.74    418.58
         O          2.821            2.345     20.74    418.58
         O          2.821            2.345     20.74    418.58
         O          3.044            2.345     20.74    418.58
         O          3.044            2.345     20.74    418.58
         O          3.162            2.345     20.74    418.58
         O          3.162            2.345     20.74    418.58
         O          3.633            2.345     20.74    418.58
         O          3.633            2.345     20.74    418.58
         O          3.979            2.345     20.74    418.58
         O          3.979            2.345     20.74    418.58
         H          1.208            2.062      6.08     73.52
         H          1.208            2.062      6.08     73.52
         H          1.217            2.062      6.08     73.49
         H          1.217            2.062      6.08     73.49
         Fe         7.259            3.252    219.01  20487.87

         Molecular C6 ( Ry / a.u.^6 ) =    165310.76


   Crystallographic axes

     site n.     atom                  positions (cryst. coord.)
         1        K      tau(   1) = (  0.0000000  0.4891908  0.0000000  )
         2        K      tau(   2) = (  0.5000000  0.0064671  0.0000000  )
         3        Mg     tau(   3) = ( -0.0000000  0.0062705  0.5000000  )
         4        Mg     tau(   4) = ( -0.0000000  0.6671851  0.5000000  )
         5        Mg     tau(   5) = (  0.5000000  0.4957975  0.5000000  )
         6        Mg     tau(   6) = (  0.5000000  0.8354645  0.5000000  )
         7        Mg     tau(   7) = (  0.5000000  0.1704844  0.5000000  )
         8        Si     tau(   8) = (  0.0897602  0.1632981  0.2267000  )
         9        Si     tau(   9) = (  0.9102398  0.1632981  0.7733000  )
        10        Si     tau(  10) = (  0.9343776  0.8341750  0.7657417  )
        11        Si     tau(  11) = (  0.0656213  0.8341750  0.2342583  )
        12        Si     tau(  12) = (  0.5650483  0.6666955  0.2328105  )
        13        Si     tau(  13) = (  0.4349517  0.6666955  0.7671894  )
        14        Al     tau(  14) = (  0.4088155  0.3306804  0.7702642  )
        15        Al     tau(  15) = (  0.5911835  0.3306804  0.2297358  )
        16        O      tau(  16) = (  0.1360745  0.1578105  0.3845507  )
        17        O      tau(  17) = (  0.8639245  0.1578105  0.6154492  )
        18        O      tau(  18) = (  0.8747686  0.8345665  0.6087093  )
        19        O      tau(  19) = (  0.1252304  0.8345665  0.3912907  )
        20        O      tau(  20) = (  0.6266341  0.6698207  0.3906060  )
        21        O      tau(  21) = (  0.3733659  0.6698207  0.6093939  )
        22        O      tau(  22) = (  0.3600886  0.3331582  0.6009570  )
        23        O      tau(  23) = (  0.6399104  0.3331582  0.3990429  )
        24        O      tau(  24) = (  0.3467188  0.2050696  0.1705847  )
        25        O      tau(  25) = (  0.6532812  0.2050696  0.8294153  )
        26        O      tau(  26) = (  0.0051297  0.9963797  0.1715386  )
        27        O      tau(  27) = (  0.9948694  0.9963797  0.8284613  )
        28        O      tau(  28) = (  0.6874227  0.7700626  0.8238397  )
        29        O      tau(  29) = (  0.3125773  0.7700626  0.1761603  )
        30        O      tau(  30) = (  0.8107745  0.7366471  0.1750602  )
        31        O      tau(  31) = (  0.1892255  0.7366471  0.8249398  )
        32        O      tau(  32) = (  0.5074436  0.5074288  0.1698756  )
        33        O      tau(  33) = (  0.4925554  0.5074288  0.8301244  )
        34        O      tau(  34) = (  0.1386076  0.2742729  0.8333482  )
        35        O      tau(  35) = (  0.8613924  0.2742729  0.1666518  )
        36        O      tau(  36) = (  0.1364449  0.5114984  0.3943640  )
        37        O      tau(  37) = (  0.8635551  0.5114984  0.6056361  )
        38        O      tau(  38) = (  0.6343782  0.9995907  0.4001631  )
        39        O      tau(  39) = (  0.3656218  0.9995907  0.5998378  )
        40        H      tau(  40) = (  0.1052455  0.4928242  0.3022798  )
        41        H      tau(  41) = (  0.8947535  0.4928242  0.6977202  )
        42        H      tau(  42) = (  0.5957534  0.0128851  0.3073445  )
        43        H      tau(  43) = (  0.4042456  0.0128851  0.6926555  )
        44        Fe     tau(  44) = ( -0.0000000  0.3353986  0.5000000  )

     number of k points=    20  Gaussian smearing, width (Ry)=  0.0005
                       cart. coord. in units 2pi/alat
        k(    1) = (   0.0000000   0.0000000   0.0000000), wk =   0.0185185
        k(    2) = (   0.0000000   0.0000000   0.1721709), wk =   0.0370370
        k(    3) = (   0.0000000   0.1920223   0.0000000), wk =   0.0370370
        k(    4) = (   0.0000000   0.1920223   0.1721709), wk =   0.0740741
        k(    5) = (   0.1666667   0.0000000   0.0305522), wk =   0.0370370
        k(    6) = (   0.1666667   0.0000000   0.2027231), wk =   0.0370370
        k(    7) = (   0.1666667   0.0000000  -0.1416188), wk =   0.0370370
        k(    8) = (   0.1666667   0.1920223   0.0305522), wk =   0.0740741
        k(    9) = (   0.1666667   0.1920223   0.2027231), wk =   0.0740741
        k(   10) = (   0.1666667   0.1920223  -0.1416188), wk =   0.0740741
        k(   11) = (   0.3333333   0.0000000   0.0611044), wk =   0.0370370
        k(   12) = (   0.3333333   0.0000000   0.2332753), wk =   0.0370370
        k(   13) = (   0.3333333   0.0000000  -0.1110666), wk =   0.0370370
        k(   14) = (   0.3333333   0.1920223   0.0611044), wk =   0.0740741
        k(   15) = (   0.3333333   0.1920223   0.2332753), wk =   0.0740741
        k(   16) = (   0.3333333   0.1920223  -0.1110666), wk =   0.0740741
        k(   17) = (  -0.5000000   0.0000000  -0.0916565), wk =   0.0185185
        k(   18) = (  -0.5000000   0.0000000   0.0805144), wk =   0.0370370
        k(   19) = (  -0.5000000   0.1920223  -0.0916565), wk =   0.0370370
        k(   20) = (  -0.5000000   0.1920223   0.0805144), wk =   0.0740741

                       cryst. coord.
        k(    1) = (   0.0000000   0.0000000   0.0000000), wk =   0.0185185
        k(    2) = (   0.0000000   0.0000000   0.3333333), wk =   0.0370370
        k(    3) = (   0.0000000   0.3333333   0.0000000), wk =   0.0370370
        k(    4) = (   0.0000000   0.3333333   0.3333333), wk =   0.0740741
        k(    5) = (   0.1666667   0.0000000  -0.0000000), wk =   0.0370370
        k(    6) = (   0.1666667   0.0000000   0.3333333), wk =   0.0370370
        k(    7) = (   0.1666667   0.0000000  -0.3333333), wk =   0.0370370
        k(    8) = (   0.1666667   0.3333333  -0.0000000), wk =   0.0740741
        k(    9) = (   0.1666667   0.3333333   0.3333333), wk =   0.0740741
        k(   10) = (   0.1666667   0.3333333  -0.3333333), wk =   0.0740741
        k(   11) = (   0.3333333   0.0000000  -0.0000000), wk =   0.0370370
        k(   12) = (   0.3333333   0.0000000   0.3333333), wk =   0.0370370
        k(   13) = (   0.3333333   0.0000000  -0.3333333), wk =   0.0370370
        k(   14) = (   0.3333333   0.3333333  -0.0000000), wk =   0.0740741
        k(   15) = (   0.3333333   0.3333333   0.3333333), wk =   0.0740741
        k(   16) = (   0.3333333   0.3333333  -0.3333333), wk =   0.0740741
        k(   17) = (  -0.5000000   0.0000000   0.0000000), wk =   0.0185185
        k(   18) = (  -0.5000000   0.0000000   0.3333333), wk =   0.0370370
        k(   19) = (  -0.5000000   0.3333333   0.0000000), wk =   0.0370370
        k(   20) = (  -0.5000000   0.3333333   0.3333333), wk =   0.0740741

     Dense  grid:  1121731 G-vectors     FFT dimensions: (  90, 150, 180)

     Smooth grid:   396609 G-vectors     FFT dimensions: (  64, 108, 120)

     Dynamical RAM for                 wfc:      16.97 MB

     Dynamical RAM for     wfc (w. buffer):     356.28 MB

     Dynamical RAM for           str. fact:      17.12 MB

     Dynamical RAM for           local pot:       0.00 MB

     Dynamical RAM for          nlocal pot:      47.33 MB

     Dynamical RAM for                qrad:      30.14 MB

     Dynamical RAM for          rho,v,vnew:      30.74 MB

     Dynamical RAM for               rhoin:      10.25 MB

     Dynamical RAM for            rho*nmix:      78.25 MB

     Dynamical RAM for           G-vectors:       9.60 MB

     Dynamical RAM for          h,s,v(r/c):       1.13 MB

     Dynamical RAM for          <psi|beta>:       1.05 MB

     Dynamical RAM for                 psi:      33.93 MB

     Dynamical RAM for                hpsi:      33.93 MB

     Dynamical RAM for                spsi:      33.93 MB

     Dynamical RAM for      wfcinit/wfcrot:      34.50 MB

     Dynamical RAM for           addusdens:     260.41 MB

     Dynamical RAM for          addusforce:     315.62 MB

     Dynamical RAM for         addusstress:     248.80 MB

     Estimated static dynamical RAM per process >     537.08 MB

     Estimated max dynamical RAM per process >     930.95 MB

     Estimated total dynamical RAM >      12.19 GB

     Atomic positions and unit cell read from directory:
     ./temp/phl-fe1-fe2.save/
     Atomic positions from file used, from input discarded


     Check: negative core charge=   -0.000001
     Generating pointlists ...
     new r_m :   0.1353 (alat units)  1.3636 (a.u.) for type    1
     new r_m :   0.1562 (alat units)  1.5735 (a.u.) for type    2
     new r_m :   0.0747 (alat units)  0.7532 (a.u.) for type    3
     new r_m :   0.2162 (alat units)  2.1789 (a.u.) for type    4
     new r_m :   0.1573 (alat units)  1.5850 (a.u.) for type    5
     new r_m :   0.0747 (alat units)  0.7532 (a.u.) for type    6
     new r_m :   0.1254 (alat units)  1.2641 (a.u.) for type    7

     The initial density is read from file :
     ./temp/phl-fe1-fe2.save/charge-density


     starting charge     261.9956, renormalised to     262.0000

     negative rho (up, down):  0.000E+00 2.944E-04
     Cannot read wfcs: file not found
     Starting wfcs are  183 randomized atomic wfcs
     Checking if some PAW data can be deallocated... 
       PAW data deallocated on   12 nodes for type:  1
       PAW data deallocated on   13 nodes for type:  2
       PAW data deallocated on   12 nodes for type:  3
       PAW data deallocated on   13 nodes for type:  4
       PAW data deallocated on   12 nodes for type:  5
       PAW data deallocated on    5 nodes for type:  6
       PAW data deallocated on   11 nodes for type:  7

     total cpu time spent up to now is      222.4 secs

     Self-consistent Calculation

     iteration #  1     ecut=    90.00 Ry     beta= 0.70
     Davidson diagonalization with overlap

---- Real-time Memory Report at c_bands before calling an iterative solver
           601 MiB given to the printing process from OS
             0 MiB allocation reported by mallinfo(arena+hblkhd)
         18849 MiB available memory on the node where the printing process lives
------------------
     c_bands:  1 eigenvalues not converged
     c_bands:  2 eigenvalues not converged
     c_bands:  3 eigenvalues not converged
     c_bands:  1 eigenvalues not converged
     c_bands:  1 eigenvalues not converged
     c_bands:  2 eigenvalues not converged
     c_bands:  1 eigenvalues not converged
     c_bands:  4 eigenvalues not converged
     c_bands:  1 eigenvalues not converged
     c_bands:  3 eigenvalues not converged
     c_bands:  1 eigenvalues not converged
     c_bands:  1 eigenvalues not converged
     c_bands:  2 eigenvalues not converged
     c_bands:  2 eigenvalues not converged
     c_bands:  1 eigenvalues not converged
     c_bands:  2 eigenvalues not converged
     ethr =  1.00E-05,  avg # of iterations = 39.9

     Threshold (ethr) on eigenvalues was too large:
     Diagonalizing with lowered threshold

     Davidson diagonalization with overlap

---- Real-time Memory Report at c_bands before calling an iterative solver
           848 MiB given to the printing process from OS
             0 MiB allocation reported by mallinfo(arena+hblkhd)
         17134 MiB available memory on the node where the printing process lives
------------------
     c_bands:  2 eigenvalues not converged
     c_bands:  1 eigenvalues not converged
     ethr =  9.74E-08,  avg # of iterations = 11.1

     negative rho (up, down):  0.000E+00 2.943E-04

     total cpu time spent up to now is     7044.5 secs

     total energy              =   -2631.31830648 Ry
     estimated scf accuracy    <       0.00025528 Ry

     total magnetization       =     4.00 Bohr mag/cell
     absolute magnetization    =     4.04 Bohr mag/cell

     iteration #  2     ecut=    90.00 Ry     beta= 0.70
     Davidson diagonalization with overlap

---- Real-time Memory Report at c_bands before calling an iterative solver
           884 MiB given to the printing process from OS
             0 MiB allocation reported by mallinfo(arena+hblkhd)
         16919 MiB available memory on the node where the printing process lives
------------------
     c_bands:  1 eigenvalues not converged
     c_bands:  2 eigenvalues not converged
     c_bands:  1 eigenvalues not converged
     ethr =  9.74E-08,  avg # of iterations =  6.1

     negative rho (up, down):  0.000E+00 2.945E-04

     total cpu time spent up to now is     7755.3 secs

     total energy              =   -2631.31836549 Ry
     estimated scf accuracy    <       0.00002532 Ry

     total magnetization       =     4.00 Bohr mag/cell
     absolute magnetization    =     4.05 Bohr mag/cell

     iteration #  3     ecut=    90.00 Ry     beta= 0.70
     Davidson diagonalization with overlap

---- Real-time Memory Report at c_bands before calling an iterative solver
           888 MiB given to the printing process from OS
             0 MiB allocation reported by mallinfo(arena+hblkhd)
         17024 MiB available memory on the node where the printing process lives
------------------
     ethr =  9.66E-09,  avg # of iterations =  7.2

     negative rho (up, down):  0.000E+00 2.942E-04

     total cpu time spent up to now is     8841.0 secs

     total energy              =   -2631.31838419 Ry
     estimated scf accuracy    <       0.00000377 Ry

     total magnetization       =     4.00 Bohr mag/cell
     absolute magnetization    =     4.04 Bohr mag/cell

     iteration #  4     ecut=    90.00 Ry     beta= 0.70
     Davidson diagonalization with overlap

---- Real-time Memory Report at c_bands before calling an iterative solver
           891 MiB given to the printing process from OS
             0 MiB allocation reported by mallinfo(arena+hblkhd)
         16792 MiB available memory on the node where the printing process lives
------------------
     ethr =  1.44E-09,  avg # of iterations =  7.0

     negative rho (up, down):  0.000E+00 2.943E-04

     total cpu time spent up to now is     9991.2 secs

     total energy              =   -2631.31838701 Ry
     estimated scf accuracy    <       0.00000104 Ry

     total magnetization       =     4.00 Bohr mag/cell
     absolute magnetization    =     4.04 Bohr mag/cell

     iteration #  5     ecut=    90.00 Ry     beta= 0.70
     Davidson diagonalization with overlap

---- Real-time Memory Report at c_bands before calling an iterative solver
           895 MiB given to the printing process from OS
             0 MiB allocation reported by mallinfo(arena+hblkhd)
         16494 MiB available memory on the node where the printing process lives
------------------
     ethr =  3.96E-10,  avg # of iterations =  6.8

     negative rho (up, down):  0.000E+00 2.943E-04

     total cpu time spent up to now is    10858.3 secs

     total energy              =   -2631.31838747 Ry
     estimated scf accuracy    <       0.00000015 Ry

     total magnetization       =     4.00 Bohr mag/cell
     absolute magnetization    =     4.04 Bohr mag/cell

     iteration #  6     ecut=    90.00 Ry     beta= 0.70
     Davidson diagonalization with overlap

---- Real-time Memory Report at c_bands before calling an iterative solver
           899 MiB given to the printing process from OS
             0 MiB allocation reported by mallinfo(arena+hblkhd)
         16945 MiB available memory on the node where the printing process lives
------------------
     ethr =  5.88E-11,  avg # of iterations =  7.8

     negative rho (up, down):  0.000E+00 2.943E-04

     total cpu time spent up to now is    12090.3 secs

     total energy              =   -2631.31838760 Ry
     estimated scf accuracy    <       0.00000002 Ry

     total magnetization       =     4.00 Bohr mag/cell
     absolute magnetization    =     4.04 Bohr mag/cell

     iteration #  7     ecut=    90.00 Ry     beta= 0.70
     Davidson diagonalization with overlap

---- Real-time Memory Report at c_bands before calling an iterative solver
           902 MiB given to the printing process from OS
             0 MiB allocation reported by mallinfo(arena+hblkhd)
         16496 MiB available memory on the node where the printing process lives
------------------
     ethr =  7.50E-12,  avg # of iterations =  8.1

     negative rho (up, down):  0.000E+00 2.943E-04

     Magnetic moment per site  (integrated on atomic sphere of radius R)
     atom   1 (R=0.216)  charge=  7.5564  magn=  0.0000
     atom   2 (R=0.216)  charge=  7.5602  magn=  0.0001
     atom   3 (R=0.157)  charge=  8.1113  magn= -0.0002
     atom   4 (R=0.157)  charge=  8.1083  magn= -0.0000
     atom   5 (R=0.157)  charge=  8.1105  magn=  0.0007
     atom   6 (R=0.157)  charge=  8.1069  magn= -0.0000
     atom   7 (R=0.157)  charge=  8.1138  magn=  0.0006
     atom   8 (R=0.125)  charge=  0.5521  magn=  0.0008
     atom   9 (R=0.125)  charge=  0.5521  magn=  0.0008
     atom  10 (R=0.125)  charge=  0.5439  magn= -0.0000
     atom  11 (R=0.125)  charge=  0.5439  magn= -0.0000
     atom  12 (R=0.125)  charge=  0.5438  magn=  0.0000
     atom  13 (R=0.125)  charge=  0.5438  magn=  0.0000
     atom  14 (R=0.135)  charge=  0.3429  magn=  0.0014
     atom  15 (R=0.135)  charge=  0.3429  magn=  0.0014
     atom  16 (R=0.075)  charge=  1.9389  magn=  0.0155
     atom  17 (R=0.075)  charge=  1.9389  magn=  0.0155
     atom  18 (R=0.075)  charge=  1.9433  magn=  0.0004
     atom  19 (R=0.075)  charge=  1.9433  magn=  0.0004
     atom  20 (R=0.075)  charge=  1.9412  magn=  0.0004
     atom  21 (R=0.075)  charge=  1.9412  magn=  0.0004
     atom  22 (R=0.075)  charge=  1.9358  magn=  0.0275
     atom  23 (R=0.075)  charge=  1.9358  magn=  0.0275
     atom  24 (R=0.075)  charge=  1.9432  magn=  0.0009
     atom  25 (R=0.075)  charge=  1.9432  magn=  0.0009
     atom  26 (R=0.075)  charge=  1.9489  magn=  0.0008
     atom  27 (R=0.075)  charge=  1.9489  magn=  0.0008
     atom  28 (R=0.075)  charge=  1.9474  magn=  0.0001
     atom  29 (R=0.075)  charge=  1.9474  magn=  0.0001
     atom  30 (R=0.075)  charge=  1.9487  magn=  0.0001
     atom  31 (R=0.075)  charge=  1.9487  magn=  0.0001
     atom  32 (R=0.075)  charge=  1.9432  magn=  0.0005
     atom  33 (R=0.075)  charge=  1.9432  magn=  0.0005
     atom  34 (R=0.075)  charge=  1.9440  magn= -0.0000
     atom  35 (R=0.075)  charge=  1.9440  magn= -0.0000
     atom  36 (R=0.075)  charge=  1.9390  magn=  0.0209
     atom  37 (R=0.075)  charge=  1.9390  magn=  0.0209
     atom  38 (R=0.075)  charge=  1.9422  magn=  0.0003
     atom  39 (R=0.075)  charge=  1.9422  magn=  0.0003
     atom  40 (R=0.075)  charge=  0.4010  magn=  0.0001
     atom  41 (R=0.075)  charge=  0.4010  magn=  0.0001
     atom  42 (R=0.075)  charge=  0.4004  magn=  0.0000
     atom  43 (R=0.075)  charge=  0.4004  magn=  0.0000
     atom  44 (R=0.156)  charge= 13.2681  magn=  3.2809

     total cpu time spent up to now is    13373.9 secs

     End of self-consistent calculation

 ------ SPIN UP ------------


          k = 0.0000 0.0000 0.0000 ( 49603 PWs)   bands (ev):

   -81.6367 -68.0134 -67.9822 -67.8088 -67.6696 -67.5051 -48.6424 -47.3289
   -47.1258 -34.7942 -34.7737 -34.7692 -34.7531 -34.7512 -34.7302 -34.5863
   -34.5765 -34.5566 -34.4419 -34.4334 -34.4258 -34.2809 -34.2674 -34.2601
   -23.6389 -23.6162 -15.3058 -15.2640 -14.4021 -14.3670 -13.8633 -13.8508
   -13.7090 -13.6000 -13.5347 -13.4114 -13.2167 -13.1726 -13.1360 -13.1285
   -13.0255 -12.9183 -12.7918 -12.7321 -12.6256 -12.6076 -12.5465 -12.4487
   -11.8956 -11.6089  -7.1773  -7.1476  -7.1080  -7.1019  -7.0916  -7.0873
    -4.5797  -4.5439  -2.7226  -2.6452  -2.1019  -1.6419  -1.4886  -1.4516
    -1.3559  -1.3060  -0.9482  -0.9297  -0.8696  -0.6805  -0.6439  -0.4650
    -0.2809  -0.2038  -0.1024   0.1092   0.2367   0.2501   0.4073   0.6081
     0.6137   0.7598   0.7965   0.9028   1.1135   1.1506   1.1618   1.3304
     1.3781   1.5216   1.5391   1.7458   1.7912   1.8054   1.8227   1.9254
     1.9269   2.1629   2.1827   2.2858   2.2960   2.3235   2.3832   2.4685
     2.5194   2.5325   2.6893   2.7433   2.7804   2.8350   2.8586   2.9534
     3.0086   3.0631   3.0888   3.1159   3.1945   3.2109   3.2355   3.3295
     3.4177   3.4992   3.4994   3.5875   3.6210   3.7343   3.9293   3.9706
     4.7689   5.0619   5.9072   6.3532   6.6064   8.5861  10.0660  10.7243
    11.0181  11.3932  11.5016  11.6828  11.9527  12.1012  12.4690  12.4751
    12.6012  12.8512  12.8891  13.0138  13.1087  13.1229  13.2790  13.2820
    13.4230  13.4354  13.4535  13.5697  13.8700

     occupation numbers 
     1.0000   1.0000   1.0000   1.0000   1.0000   1.0000   1.0000   1.0000
     1.0000   1.0000   1.0000   1.0000   1.0000   1.0000   1.0000   1.0000
     1.0000   1.0000   1.0000   1.0000   1.0000   1.0000   1.0000   1.0000
     1.0000   1.0000   1.0000   1.0000   1.0000   1.0000   1.0000   1.0000
     1.0000   1.0000   1.0000   1.0000   1.0000   1.0000   1.0000   1.0000
     1.0000   1.0000   1.0000   1.0000   1.0000   1.0000   1.0000   1.0000
     1.0000   1.0000   1.0000   1.0000   1.0000   1.0000   1.0000   1.0000
     1.0000   1.0000   1.0000   1.0000   1.0000   1.0000   1.0000   1.0000
     1.0000   1.0000   1.0000   1.0000   1.0000   1.0000   1.0000   1.0000
     1.0000   1.0000   1.0000   1.0000   1.0000   1.0000   1.0000   1.0000
     1.0000   1.0000   1.0000   1.0000   1.0000   1.0000   1.0000   1.0000
     1.0000   1.0000   1.0000   1.0000   1.0000   1.0000   1.0000   1.0000
     1.0000   1.0000   1.0000   1.0000   1.0000   1.0000   1.0000   1.0000
     1.0000   1.0000   1.0000   1.0000   1.0000   1.0000   1.0000   1.0000
     1.0000   1.0000   1.0000   1.0000   1.0000   1.0000   1.0000   1.0000
     1.0000   1.0000   1.0000   1.0000   1.0000   1.0000   1.0000   1.0000
     1.0000   1.0000   1.0000   1.0000   1.0000   0.0000   0.0000   0.0000
     0.0000   0.0000   0.0000   0.0000   0.0000   0.0000   0.0000   0.0000
     0.0000   0.0000   0.0000   0.0000   0.0000   0.0000   0.0000   0.0000
     0.0000   0.0000   0.0000   0.0000   0.0000

          k = 0.0000 0.0000 0.1723 ( 49593 PWs)   bands (ev):

   -81.6367 -68.0134 -67.9822 -67.8088 -67.6696 -67.5051 -48.6424 -47.3289
   -47.1258 -34.7942 -34.7737 -34.7692 -34.7531 -34.7512 -34.7302 -34.5863
   -34.5765 -34.5566 -34.4419 -34.4334 -34.4258 -34.2809 -34.2674 -34.2601
   -23.6389 -23.6162 -15.2972 -15.2732 -14.3936 -14.3758 -13.8637 -13.8504
   -13.7023 -13.6118 -13.5304 -13.4085 -13.2172 -13.1734 -13.1392 -13.1265
   -13.0219 -12.9207 -12.7879 -12.7359 -12.6274 -12.6055 -12.5427 -12.4529
   -11.8954 -11.6094  -7.1773  -7.1476  -7.1080  -7.1019  -7.0916  -7.0872
    -4.5765  -4.5474  -2.7048  -2.6656  -2.0807  -1.6338  -1.4812  -1.4590
    -1.3538  -1.3160  -0.9549  -0.9105  -0.8828  -0.6900  -0.6227  -0.5453
    -0.2510  -0.1920  -0.1417   0.0673   0.2335   0.2425   0.4284   0.6194
     0.6460   0.7626   0.8303   0.8656   1.0921   1.1791   1.1982   1.2737
     1.4626   1.5362   1.6169   1.7866   1.7983   1.8115   1.8311   1.8914
     1.9694   2.0896   2.1807   2.2092   2.2837   2.3196   2.3616   2.4461
     2.4856   2.5496   2.7019   2.7456   2.7865   2.8239   2.8559   2.9663
     3.0064   3.0496   3.0769   3.1161   3.1777   3.2266   3.2816   3.3350
     3.4178   3.4521   3.4875   3.5901   3.6134   3.7729   3.9304   3.9672
     4.7699   5.0582   5.9069   6.3518   6.6082   8.8831   9.5852  10.8236
    11.0657  11.2264  11.5527  11.5873  12.1564  12.2976  12.4841  12.5344
    12.7207  12.7853  12.8551  12.8953  12.9913  13.1647  13.2538  13.3420
    13.3826  13.4057  13.6048  13.6154  13.6433

     occupation numbers 
     1.0000   1.0000   1.0000   1.0000   1.0000   1.0000   1.0000   1.0000
     1.0000   1.0000   1.0000   1.0000   1.0000   1.0000   1.0000   1.0000
     1.0000   1.0000   1.0000   1.0000   1.0000   1.0000   1.0000   1.0000
     1.0000   1.0000   1.0000   1.0000   1.0000   1.0000   1.0000   1.0000
     1.0000   1.0000   1.0000   1.0000   1.0000   1.0000   1.0000   1.0000
     1.0000   1.0000   1.0000   1.0000   1.0000   1.0000   1.0000   1.0000
     1.0000   1.0000   1.0000   1.0000   1.0000   1.0000   1.0000   1.0000
     1.0000   1.0000   1.0000   1.0000   1.0000   1.0000   1.0000   1.0000
     1.0000   1.0000   1.0000   1.0000   1.0000   1.0000   1.0000   1.0000
     1.0000   1.0000   1.0000   1.0000   1.0000   1.0000   1.0000   1.0000
     1.0000   1.0000   1.0000   1.0000   1.0000   1.0000   1.0000   1.0000
     1.0000   1.0000   1.0000   1.0000   1.0000   1.0000   1.0000   1.0000
     1.0000   1.0000   1.0000   1.0000   1.0000   1.0000   1.0000   1.0000
     1.0000   1.0000   1.0000   1.0000   1.0000   1.0000   1.0000   1.0000
     1.0000   1.0000   1.0000   1.0000   1.0000   1.0000   1.0000   1.0000
     1.0000   1.0000   1.0000   1.0000   1.0000   1.0000   1.0000   1.0000
     1.0000   1.0000   1.0000   1.0000   1.0000   0.0000   0.0000   0.0000
     0.0000   0.0000   0.0000   0.0000   0.0000   0.0000   0.0000   0.0000
     0.0000   0.0000   0.0000   0.0000   0.0000   0.0000   0.0000   0.0000
     0.0000   0.0000   0.0000   0.0000   0.0000

          k = 0.0000 0.1915 0.0000 ( 49535 PWs)   bands (ev):

   -81.6367 -68.0134 -67.9822 -67.8088 -67.6696 -67.5051 -48.6424 -47.3289
   -47.1258 -34.7942 -34.7737 -34.7692 -34.7531 -34.7512 -34.7302 -34.5863
   -34.5765 -34.5566 -34.4419 -34.4334 -34.4258 -34.2809 -34.2674 -34.2602
   -23.6389 -23.6162 -15.3004 -15.2590 -14.4382 -14.3985 -13.8634 -13.8509
   -13.6200 -13.5243 -13.4954 -13.4226 -13.2548 -13.2037 -13.1916 -13.1639
   -13.0346 -12.9144 -12.7812 -12.7276 -12.6253 -12.6075 -12.5408 -12.4446
   -11.8937 -11.6083  -7.1760  -7.1490  -7.1073  -7.1012  -7.0924  -7.0878
    -4.5380  -4.5006  -2.8784  -2.7992  -2.0449  -1.7122  -1.3505  -1.3469
    -1.2852  -1.2459  -0.9998  -0.9611  -0.9197  -0.6337  -0.5991  -0.4423
    -0.3799  -0.1455  -0.0988   0.1086   0.1891   0.1939   0.4202   0.5579
     0.6474   0.6940   0.7801   0.8732   1.0321   1.2267   1.2454   1.3595
     1.3998   1.5441   1.6388   1.7494   1.7555   1.8259   1.8944   2.0048
     2.0111   2.1245   2.1339   2.2160   2.2974   2.3123   2.4254   2.4645
     2.5113   2.5869   2.6671   2.6941   2.7356   2.7969   2.8909   2.9312
     3.0138   3.0594   3.1161   3.1482   3.1984   3.2268   3.2671   3.3258
     3.3996   3.4762   3.4863   3.5658   3.5892   3.7573   3.7605   3.9100
     4.7704   5.0532   5.9154   6.3238   6.6195   8.9800   9.8974  10.3126
    10.8947  11.3097  11.6709  11.9993  12.0799  12.1642  12.3907  12.5447
    12.5619  12.7784  12.9212  12.9416  13.0423  13.1787  13.2406  13.2748
    13.3762  13.4080  13.5920  13.7648  13.7657

     occupation numbers 
     1.0000   1.0000   1.0000   1.0000   1.0000   1.0000   1.0000   1.0000
     1.0000   1.0000   1.0000   1.0000   1.0000   1.0000   1.0000   1.0000
     1.0000   1.0000   1.0000   1.0000   1.0000   1.0000   1.0000   1.0000
     1.0000   1.0000   1.0000   1.0000   1.0000   1.0000   1.0000   1.0000
     1.0000   1.0000   1.0000   1.0000   1.0000   1.0000   1.0000   1.0000
     1.0000   1.0000   1.0000   1.0000   1.0000   1.0000   1.0000   1.0000
     1.0000   1.0000   1.0000   1.0000   1.0000   1.0000   1.0000   1.0000
     1.0000   1.0000   1.0000   1.0000   1.0000   1.0000   1.0000   1.0000
     1.0000   1.0000   1.0000   1.0000   1.0000   1.0000   1.0000   1.0000
     1.0000   1.0000   1.0000   1.0000   1.0000   1.0000   1.0000   1.0000
     1.0000   1.0000   1.0000   1.0000   1.0000   1.0000   1.0000   1.0000
     1.0000   1.0000   1.0000   1.0000   1.0000   1.0000   1.0000   1.0000
     1.0000   1.0000   1.0000   1.0000   1.0000   1.0000   1.0000   1.0000
     1.0000   1.0000   1.0000   1.0000   1.0000   1.0000   1.0000   1.0000
     1.0000   1.0000   1.0000   1.0000   1.0000   1.0000   1.0000   1.0000
     1.0000   1.0000   1.0000   1.0000   1.0000   1.0000   1.0000   1.0000
     1.0000   1.0000   1.0000   1.0000   1.0000   0.0000   0.0000   0.0000
     0.0000   0.0000   0.0000   0.0000   0.0000   0.0000   0.0000   0.0000
     0.0000   0.0000   0.0000   0.0000   0.0000   0.0000   0.0000   0.0000
     0.0000   0.0000   0.0000   0.0000   0.0000

          k = 0.0000 0.1915 0.1723 ( 49591 PWs)   bands (ev):

   -81.6367 -68.0134 -67.9822 -67.8088 -67.6696 -67.5051 -48.6424 -47.3289
   -47.1258 -34.7942 -34.7737 -34.7692 -34.7531 -34.7512 -34.7302 -34.5863
   -34.5765 -34.5566 -34.4419 -34.4334 -34.4258 -34.2809 -34.2674 -34.2602
   -23.6389 -23.6162 -15.2916 -15.2682 -14.4296 -14.4076 -13.8638 -13.8505
   -13.6156 -13.5209 -13.5068 -13.4159 -13.2609 -13.1977 -13.1920 -13.1650
   -13.0328 -12.9168 -12.7774 -12.7314 -12.6272 -12.6053 -12.5366 -12.4487
   -11.8935 -11.6087  -7.1761  -7.1490  -7.1072  -7.1012  -7.0924  -7.0877
    -4.5323  -4.5065  -2.8595  -2.8198  -2.0265  -1.7052  -1.3499  -1.3451
    -1.2784  -1.2563  -0.9942  -0.9663  -0.9249  -0.6619  -0.5710  -0.5107
    -0.3432  -0.1564  -0.1399   0.0832   0.1822   0.1959   0.4484   0.5532
     0.6775   0.7049   0.7385   0.9143   1.0797   1.2044   1.2825   1.3510
     1.4878   1.5270   1.6782   1.7263   1.7878   1.8065   1.9120   1.9844
     2.0331   2.0915   2.1451   2.1983   2.2544   2.3011   2.4111   2.4449
     2.5102   2.5781   2.6449   2.7058   2.7230   2.8028   2.8454   2.9406
     2.9905   3.0793   3.1227   3.1623   3.2108   3.2214   3.2674   3.3368
     3.3819   3.4526   3.4952   3.5686   3.5800   3.7668   3.7945   3.9120
     4.7715   5.0487   5.9152   6.3202   6.6208   9.2402   9.8782  10.0801
    10.5820  11.3082  11.6750  12.0381  12.2024  12.4227  12.4904  12.5775
    12.7248  12.8061  12.8803  12.9594  13.0275  13.0765  13.1888  13.3079
    13.3295  13.4509  13.5661  13.6534  13.7706

     occupation numbers 
     1.0000   1.0000   1.0000   1.0000   1.0000   1.0000   1.0000   1.0000
     1.0000   1.0000   1.0000   1.0000   1.0000   1.0000   1.0000   1.0000
     1.0000   1.0000   1.0000   1.0000   1.0000   1.0000   1.0000   1.0000
     1.0000   1.0000   1.0000   1.0000   1.0000   1.0000   1.0000   1.0000
     1.0000   1.0000   1.0000   1.0000   1.0000   1.0000   1.0000   1.0000
     1.0000   1.0000   1.0000   1.0000   1.0000   1.0000   1.0000   1.0000
     1.0000   1.0000   1.0000   1.0000   1.0000   1.0000   1.0000   1.0000
     1.0000   1.0000   1.0000   1.0000   1.0000   1.0000   1.0000   1.0000
     1.0000   1.0000   1.0000   1.0000   1.0000   1.0000   1.0000   1.0000
     1.0000   1.0000   1.0000   1.0000   1.0000   1.0000   1.0000   1.0000
     1.0000   1.0000   1.0000   1.0000   1.0000   1.0000   1.0000   1.0000
     1.0000   1.0000   1.0000   1.0000   1.0000   1.0000   1.0000   1.0000
     1.0000   1.0000   1.0000   1.0000   1.0000   1.0000   1.0000   1.0000
     1.0000   1.0000   1.0000   1.0000   1.0000   1.0000   1.0000   1.0000
     1.0000   1.0000   1.0000   1.0000   1.0000   1.0000   1.0000   1.0000
     1.0000   1.0000   1.0000   1.0000   1.0000   1.0000   1.0000   1.0000
     1.0000   1.0000   1.0000   1.0000   1.0000   0.0000   0.0000   0.0000
     0.0000   0.0000   0.0000   0.0000   0.0000   0.0000   0.0000   0.0000
     0.0000   0.0000   0.0000   0.0000   0.0000   0.0000   0.0000   0.0000
     0.0000   0.0000   0.0000   0.0000   0.0000

          k = 0.1666 0.0000 0.0309 ( 49577 PWs)   bands (ev):

   -81.6367 -68.0134 -67.9822 -67.8088 -67.6696 -67.5051 -48.6424 -47.3289
   -47.1258 -34.7940 -34.7745 -34.7686 -34.7537 -34.7506 -34.7303 -34.5863
   -34.5765 -34.5566 -34.4420 -34.4334 -34.4259 -34.2809 -34.2675 -34.2601
   -23.6388 -23.6160 -15.2483 -15.2077 -14.4166 -14.3852 -13.9866 -13.9657
   -13.6372 -13.5238 -13.4881 -13.3942 -13.2301 -13.1830 -13.1339 -13.1289
   -13.0186 -12.9251 -12.8093 -12.7518 -12.6846 -12.6465 -12.5276 -12.4363
   -11.8791 -11.6241  -7.1786  -7.1492  -7.1076  -7.1001  -7.0916  -7.0865
    -4.4223  -4.3809  -2.6815  -2.6018  -2.1091  -1.7521  -1.6953  -1.6141
    -1.1785  -1.1214  -1.0163  -0.9597  -0.8282  -0.6396  -0.6159  -0.4568
    -0.2463  -0.2026  -0.1096   0.0778   0.2015   0.2803   0.3657   0.4869
     0.6537   0.7817   0.7962   0.8937   1.0278   1.1285   1.2222   1.2729
     1.3355   1.5463   1.6312   1.6537   1.7316   1.8048   1.9029   1.9480
     2.0526   2.1086   2.1887   2.2585   2.2869   2.3347   2.3899   2.4815
     2.5275   2.5833   2.6490   2.7178   2.7886   2.8356   2.8955   2.9302
     2.9768   3.0306   3.0664   3.0927   3.1205   3.2141   3.2832   3.3515
     3.4018   3.4567   3.4793   3.5261   3.5596   3.6780   3.7530   3.9435
     4.8303   5.0301   5.9104   6.3532   6.5956   8.9083  10.2408  10.8108
    11.1700  11.4311  11.5472  11.8576  12.0452  12.1239  12.4504  12.5234
    12.6260  12.7023  12.8451  13.0214  13.0550  13.1418  13.1705  13.2095
    13.3472  13.5316  13.5578  13.6921  13.7583

     occupation numbers 
     1.0000   1.0000   1.0000   1.0000   1.0000   1.0000   1.0000   1.0000
     1.0000   1.0000   1.0000   1.0000   1.0000   1.0000   1.0000   1.0000
     1.0000   1.0000   1.0000   1.0000   1.0000   1.0000   1.0000   1.0000
     1.0000   1.0000   1.0000   1.0000   1.0000   1.0000   1.0000   1.0000
     1.0000   1.0000   1.0000   1.0000   1.0000   1.0000   1.0000   1.0000
     1.0000   1.0000   1.0000   1.0000   1.0000   1.0000   1.0000   1.0000
     1.0000   1.0000   1.0000   1.0000   1.0000   1.0000   1.0000   1.0000
     1.0000   1.0000   1.0000   1.0000   1.0000   1.0000   1.0000   1.0000
     1.0000   1.0000   1.0000   1.0000   1.0000   1.0000   1.0000   1.0000
     1.0000   1.0000   1.0000   1.0000   1.0000   1.0000   1.0000   1.0000
     1.0000   1.0000   1.0000   1.0000   1.0000   1.0000   1.0000   1.0000
     1.0000   1.0000   1.0000   1.0000   1.0000   1.0000   1.0000   1.0000
     1.0000   1.0000   1.0000   1.0000   1.0000   1.0000   1.0000   1.0000
     1.0000   1.0000   1.0000   1.0000   1.0000   1.0000   1.0000   1.0000
     1.0000   1.0000   1.0000   1.0000   1.0000   1.0000   1.0000   1.0000
     1.0000   1.0000   1.0000   1.0000   1.0000   1.0000   1.0000   1.0000
     1.0000   1.0000   1.0000   1.0000   1.0000   0.0000   0.0000   0.0000
     0.0000   0.0000   0.0000   0.0000   0.0000   0.0000   0.0000   0.0000
     0.0000   0.0000   0.0000   0.0000   0.0000   0.0000   0.0000   0.0000
     0.0000   0.0000   0.0000   0.0000   0.0000

          k = 0.1666 0.0000 0.2032 ( 49607 PWs)   bands (ev):

   -81.6367 -68.0134 -67.9822 -67.8088 -67.6696 -67.5051 -48.6424 -47.3289
   -47.1258 -34.7940 -34.7745 -34.7686 -34.7537 -34.7506 -34.7303 -34.5863
   -34.5765 -34.5566 -34.4420 -34.4334 -34.4259 -34.2809 -34.2675 -34.2601
   -23.6388 -23.6160 -15.2375 -15.2191 -14.4081 -14.3940 -13.9825 -13.9699
   -13.6310 -13.5358 -13.4840 -13.3902 -13.2299 -13.1832 -13.1433 -13.1218
   -13.0151 -12.9277 -12.8056 -12.7570 -12.6786 -12.6514 -12.5217 -12.4418
   -11.8786 -11.6248  -7.1786  -7.1492  -7.1075  -7.1001  -7.0916  -7.0865
    -4.4237  -4.3796  -2.6658  -2.6206  -2.0860  -1.7787  -1.6743  -1.6047
    -1.1740  -1.1281  -1.0167  -0.9714  -0.8088  -0.6425  -0.6005  -0.5482
    -0.2187  -0.1731  -0.1496   0.0295   0.1956   0.2834   0.3468   0.5328
     0.6700   0.7671   0.8237   0.8915   1.0174   1.1673   1.1903   1.3148
     1.3578   1.5948   1.6462   1.6863   1.7351   1.8706   1.9088   1.9555
     1.9929   2.1054   2.1466   2.2064   2.2495   2.3482   2.3812   2.4435
     2.4996   2.6145   2.6537   2.6902   2.7901   2.8609   2.8752   2.9416
     2.9580   3.0178   3.0497   3.0897   3.1586   3.2409   3.3077   3.3288
     3.3939   3.4286   3.4718   3.5334   3.5414   3.6991   3.7854   3.9414
     4.8306   5.0264   5.9098   6.3523   6.5956   9.2687   9.6879  10.8989
    11.2002  11.2909  11.6011  11.7536  12.0116  12.3773  12.5382  12.5491
    12.7210  12.8480  12.8891  12.9556  13.0323  13.0857  13.2086  13.2532
    13.2960  13.4116  13.4997  13.5377  13.8298

     occupation numbers 
     1.0000   1.0000   1.0000   1.0000   1.0000   1.0000   1.0000   1.0000
     1.0000   1.0000   1.0000   1.0000   1.0000   1.0000   1.0000   1.0000
     1.0000   1.0000   1.0000   1.0000   1.0000   1.0000   1.0000   1.0000
     1.0000   1.0000   1.0000   1.0000   1.0000   1.0000   1.0000   1.0000
     1.0000   1.0000   1.0000   1.0000   1.0000   1.0000   1.0000   1.0000
     1.0000   1.0000   1.0000   1.0000   1.0000   1.0000   1.0000   1.0000
     1.0000   1.0000   1.0000   1.0000   1.0000   1.0000   1.0000   1.0000
     1.0000   1.0000   1.0000   1.0000   1.0000   1.0000   1.0000   1.0000
     1.0000   1.0000   1.0000   1.0000   1.0000   1.0000   1.0000   1.0000
     1.0000   1.0000   1.0000   1.0000   1.0000   1.0000   1.0000   1.0000
     1.0000   1.0000   1.0000   1.0000   1.0000   1.0000   1.0000   1.0000
     1.0000   1.0000   1.0000   1.0000   1.0000   1.0000   1.0000   1.0000
     1.0000   1.0000   1.0000   1.0000   1.0000   1.0000   1.0000   1.0000
     1.0000   1.0000   1.0000   1.0000   1.0000   1.0000   1.0000   1.0000
     1.0000   1.0000   1.0000   1.0000   1.0000   1.0000   1.0000   1.0000
     1.0000   1.0000   1.0000   1.0000   1.0000   1.0000   1.0000   1.0000
     1.0000   1.0000   1.0000   1.0000   1.0000   0.0000   0.0000   0.0000
     0.0000   0.0000   0.0000   0.0000   0.0000   0.0000   0.0000   0.0000
     0.0000   0.0000   0.0000   0.0000   0.0000   0.0000   0.0000   0.0000
     0.0000   0.0000   0.0000   0.0000   0.0000

          k = 0.1666 0.0000-0.1414 ( 49612 PWs)   bands (ev):

   -81.6367 -68.0134 -67.9822 -67.8088 -67.6696 -67.5051 -48.6424 -47.3289
   -47.1258 -34.7940 -34.7745 -34.7686 -34.7537 -34.7506 -34.7303 -34.5863
   -34.5765 -34.5566 -34.4420 -34.4334 -34.4259 -34.2809 -34.2675 -34.2601
   -23.6388 -23.6160 -15.2420 -15.2144 -14.4099 -14.3922 -13.9818 -13.9706
   -13.6334 -13.5288 -13.4890 -13.3908 -13.2303 -13.1827 -13.1400 -13.1240
   -13.0166 -12.9273 -12.8035 -12.7590 -12.6709 -12.6590 -12.5224 -12.4407
   -11.8786 -11.6246  -7.1786  -7.1492  -7.1075  -7.1001  -7.0916  -7.0865
    -4.4072  -4.3963  -2.6646  -2.6205  -2.0953  -1.7743  -1.6757  -1.6085
    -1.1696  -1.1339  -1.0101  -0.9520  -0.8292  -0.6367  -0.6156  -0.5232
    -0.2385  -0.1815  -0.1371   0.0377   0.2112   0.2738   0.3960   0.5108
     0.6456   0.7801   0.8085   0.8946   1.0362   1.1497   1.2155   1.2548
     1.3952   1.6013   1.6143   1.6721   1.7277   1.7927   1.9029   1.9529
     1.9941   2.1295   2.1723   2.2327   2.2546   2.3431   2.3943   2.4488
     2.5224   2.5932   2.6812   2.7194   2.8252   2.8636   2.8867   2.9116
     2.9646   3.0173   3.0438   3.1230   3.1351   3.1838   3.2840   3.3558
     3.3722   3.4241   3.4687   3.5408   3.5597   3.6901   3.7791   3.9469
     4.8279   5.0301   5.9102   6.3522   6.5976   9.0732   9.9445  10.9269
    11.2421  11.2873  11.6264  11.7494  12.0006  12.3421  12.4883  12.5315
    12.6935  12.7311  12.8453  12.9335  13.0472  13.0826  13.1516  13.2265
    13.3617  13.4667  13.4997  13.6541  13.7801

     occupation numbers 
     1.0000   1.0000   1.0000   1.0000   1.0000   1.0000   1.0000   1.0000
     1.0000   1.0000   1.0000   1.0000   1.0000   1.0000   1.0000   1.0000
     1.0000   1.0000   1.0000   1.0000   1.0000   1.0000   1.0000   1.0000
     1.0000   1.0000   1.0000   1.0000   1.0000   1.0000   1.0000   1.0000
     1.0000   1.0000   1.0000   1.0000   1.0000   1.0000   1.0000   1.0000
     1.0000   1.0000   1.0000   1.0000   1.0000   1.0000   1.0000   1.0000
     1.0000   1.0000   1.0000   1.0000   1.0000   1.0000   1.0000   1.0000
     1.0000   1.0000   1.0000   1.0000   1.0000   1.0000   1.0000   1.0000
     1.0000   1.0000   1.0000   1.0000   1.0000   1.0000   1.0000   1.0000
     1.0000   1.0000   1.0000   1.0000   1.0000   1.0000   1.0000   1.0000
     1.0000   1.0000   1.0000   1.0000   1.0000   1.0000   1.0000   1.0000
     1.0000   1.0000   1.0000   1.0000   1.0000   1.0000   1.0000   1.0000
     1.0000   1.0000   1.0000   1.0000   1.0000   1.0000   1.0000   1.0000
     1.0000   1.0000   1.0000   1.0000   1.0000   1.0000   1.0000   1.0000
     1.0000   1.0000   1.0000   1.0000   1.0000   1.0000   1.0000   1.0000
     1.0000   1.0000   1.0000   1.0000   1.0000   1.0000   1.0000   1.0000
     1.0000   1.0000   1.0000   1.0000   1.0000   0.0000   0.0000   0.0000
     0.0000   0.0000   0.0000   0.0000   0.0000   0.0000   0.0000   0.0000
     0.0000   0.0000   0.0000   0.0000   0.0000   0.0000   0.0000   0.0000
     0.0000   0.0000   0.0000   0.0000   0.0000

          k = 0.1666 0.1915 0.0309 ( 49547 PWs)   bands (ev):

   -81.6367 -68.0134 -67.9822 -67.8088 -67.6696 -67.5051 -48.6424 -47.3289
   -47.1258 -34.7940 -34.7745 -34.7686 -34.7537 -34.7506 -34.7303 -34.5863
   -34.5765 -34.5566 -34.4420 -34.4334 -34.4259 -34.2809 -34.2675 -34.2601
   -23.6388 -23.6160 -15.2431 -15.2029 -14.4484 -14.4128 -13.9711 -13.9538
   -13.5806 -13.5013 -13.4405 -13.3838 -13.2434 -13.2146 -13.1865 -13.1657
   -13.0331 -12.9208 -12.8029 -12.7386 -12.6794 -12.6501 -12.5246 -12.4342
   -11.8777 -11.6237  -7.1779  -7.1502  -7.1069  -7.0996  -7.0922  -7.0868
    -4.3835  -4.3410  -2.8509  -2.7718  -2.0282  -1.6878  -1.5899  -1.5453
    -1.1703  -1.1324  -1.0527  -0.9634  -0.8163  -0.6061  -0.5677  -0.4232
    -0.3170  -0.1731  -0.1218   0.0717   0.1517   0.2430   0.3885   0.4471
     0.6362   0.7111   0.8060   0.8884   0.9934   1.1594   1.2551   1.3139
     1.3625   1.5457   1.6154   1.6653   1.7575   1.8147   1.9416   2.0061
     2.0830   2.1452   2.1713   2.2122   2.2727   2.3741   2.4269   2.4775
     2.5342   2.5919   2.6548   2.7087   2.7775   2.8237   2.8745   2.9048
     3.0015   3.0363   3.0888   3.1067   3.1557   3.1831   3.2483   3.3371
     3.3676   3.4280   3.4892   3.4975   3.5435   3.6277   3.7671   3.8647
     4.8320   5.0202   5.9181   6.3251   6.6109   9.2547  10.0883  10.4651
    11.0021  11.3740  11.6770  12.0768  12.1231  12.2445  12.3736  12.5602
    12.6045  12.7672  12.8231  12.9518  13.0051  13.1534  13.2010  13.2977
    13.3880  13.4205  13.6174  13.7733  13.8957

     occupation numbers 
     1.0000   1.0000   1.0000   1.0000   1.0000   1.0000   1.0000   1.0000
     1.0000   1.0000   1.0000   1.0000   1.0000   1.0000   1.0000   1.0000
     1.0000   1.0000   1.0000   1.0000   1.0000   1.0000   1.0000   1.0000
     1.0000   1.0000   1.0000   1.0000   1.0000   1.0000   1.0000   1.0000
     1.0000   1.0000   1.0000   1.0000   1.0000   1.0000   1.0000   1.0000
     1.0000   1.0000   1.0000   1.0000   1.0000   1.0000   1.0000   1.0000
     1.0000   1.0000   1.0000   1.0000   1.0000   1.0000   1.0000   1.0000
     1.0000   1.0000   1.0000   1.0000   1.0000   1.0000   1.0000   1.0000
     1.0000   1.0000   1.0000   1.0000   1.0000   1.0000   1.0000   1.0000
     1.0000   1.0000   1.0000   1.0000   1.0000   1.0000   1.0000   1.0000
     1.0000   1.0000   1.0000   1.0000   1.0000   1.0000   1.0000   1.0000
     1.0000   1.0000   1.0000   1.0000   1.0000   1.0000   1.0000   1.0000
     1.0000   1.0000   1.0000   1.0000   1.0000   1.0000   1.0000   1.0000
     1.0000   1.0000   1.0000   1.0000   1.0000   1.0000   1.0000   1.0000
     1.0000   1.0000   1.0000   1.0000   1.0000   1.0000   1.0000   1.0000
     1.0000   1.0000   1.0000   1.0000   1.0000   1.0000   1.0000   1.0000
     1.0000   1.0000   1.0000   1.0000   1.0000   0.0000   0.0000   0.0000
     0.0000   0.0000   0.0000   0.0000   0.0000   0.0000   0.0000   0.0000
     0.0000   0.0000   0.0000   0.0000   0.0000   0.0000   0.0000   0.0000
     0.0000   0.0000   0.0000   0.0000   0.0000

          k = 0.1666 0.1915 0.2032 ( 49568 PWs)   bands (ev):

   -81.6367 -68.0134 -67.9822 -67.8088 -67.6696 -67.5051 -48.6424 -47.3289
   -47.1258 -34.7940 -34.7745 -34.7686 -34.7537 -34.7506 -34.7303 -34.5863
   -34.5765 -34.5566 -34.4420 -34.4334 -34.4259 -34.2809 -34.2675 -34.2601
   -23.6388 -23.6160 -15.2321 -15.2145 -14.4384 -14.4232 -13.9694 -13.9555
   -13.5764 -13.4985 -13.4531 -13.3747 -13.2463 -13.2184 -13.1851 -13.1619
   -13.0316 -12.9235 -12.7998 -12.7432 -12.6757 -12.6527 -12.5188 -12.4396
   -11.8773 -11.6243  -7.1779  -7.1502  -7.1069  -7.0996  -7.0922  -7.0868
    -4.3824  -4.3422  -2.8314  -2.7931  -2.0102  -1.6803  -1.6073  -1.5289
    -1.1751  -1.1270  -1.0544  -0.9706  -0.7995  -0.6472  -0.5444  -0.4776
    -0.2864  -0.1910  -0.1373   0.0360   0.1500   0.2436   0.3742   0.4735
     0.6334   0.7073   0.8389   0.9017   1.0064   1.1914   1.2522   1.3313
     1.4307   1.5243   1.5944   1.6928   1.7927   1.8377   1.9585   2.0163
     2.0547   2.1261   2.1556   2.1918   2.2401   2.3503   2.4060   2.4838
     2.5116   2.5808   2.6326   2.7320   2.7655   2.8010   2.8395   2.9511
     2.9942   3.0151   3.0957   3.1101   3.1704   3.2097   3.2535   3.3336
     3.3576   3.4071   3.4813   3.4923   3.5365   3.6688   3.7862   3.8696
     4.8322   5.0159   5.9175   6.3228   6.6109   9.5639   9.9760  10.2893
    10.6724  11.3593  11.6716  12.1137  12.1941  12.3308  12.5587  12.6855
    12.7568  12.8505  12.9016  12.9390  13.0281  13.0778  13.1690  13.2315
    13.2669  13.4449  13.5157  13.7122  13.7723

     occupation numbers 
     1.0000   1.0000   1.0000   1.0000   1.0000   1.0000   1.0000   1.0000
     1.0000   1.0000   1.0000   1.0000   1.0000   1.0000   1.0000   1.0000
     1.0000   1.0000   1.0000   1.0000   1.0000   1.0000   1.0000   1.0000
     1.0000   1.0000   1.0000   1.0000   1.0000   1.0000   1.0000   1.0000
     1.0000   1.0000   1.0000   1.0000   1.0000   1.0000   1.0000   1.0000
     1.0000   1.0000   1.0000   1.0000   1.0000   1.0000   1.0000   1.0000
     1.0000   1.0000   1.0000   1.0000   1.0000   1.0000   1.0000   1.0000
     1.0000   1.0000   1.0000   1.0000   1.0000   1.0000   1.0000   1.0000
     1.0000   1.0000   1.0000   1.0000   1.0000   1.0000   1.0000   1.0000
     1.0000   1.0000   1.0000   1.0000   1.0000   1.0000   1.0000   1.0000
     1.0000   1.0000   1.0000   1.0000   1.0000   1.0000   1.0000   1.0000
     1.0000   1.0000   1.0000   1.0000   1.0000   1.0000   1.0000   1.0000
     1.0000   1.0000   1.0000   1.0000   1.0000   1.0000   1.0000   1.0000
     1.0000   1.0000   1.0000   1.0000   1.0000   1.0000   1.0000   1.0000
     1.0000   1.0000   1.0000   1.0000   1.0000   1.0000   1.0000   1.0000
     1.0000   1.0000   1.0000   1.0000   1.0000   1.0000   1.0000   1.0000
     1.0000   1.0000   1.0000   1.0000   1.0000   0.0000   0.0000   0.0000
     0.0000   0.0000   0.0000   0.0000   0.0000   0.0000   0.0000   0.0000
     0.0000   0.0000   0.0000   0.0000   0.0000   0.0000   0.0000   0.0000
     0.0000   0.0000   0.0000   0.0000   0.0000

          k = 0.1666 0.1915-0.1414 ( 49571 PWs)   bands (ev):

   -81.6367 -68.0134 -67.9822 -67.8088 -67.6696 -67.5051 -48.6424 -47.3289
   -47.1258 -34.7940 -34.7745 -34.7686 -34.7537 -34.7506 -34.7303 -34.5863
   -34.5765 -34.5566 -34.4420 -34.4334 -34.4259 -34.2809 -34.2675 -34.2601
   -23.6388 -23.6160 -15.2367 -15.2096 -14.4412 -14.4204 -13.9670 -13.9580
   -13.5781 -13.4988 -13.4482 -13.3789 -13.2474 -13.2119 -13.1889 -13.1636
   -13.0316 -12.9230 -12.7972 -12.7451 -12.6679 -12.6609 -12.5194 -12.4385
   -11.8772 -11.6242  -7.1779  -7.1502  -7.1069  -7.0996  -7.0922  -7.0868
    -4.3666  -4.3582  -2.8326  -2.7915  -2.0172  -1.6828  -1.6068  -1.5286
    -1.1606  -1.1443  -1.0327  -0.9664  -0.8282  -0.6238  -0.5567  -0.4606
    -0.3079  -0.1874  -0.1402   0.0536   0.1597   0.2339   0.4172   0.4698
     0.6089   0.7095   0.8168   0.9135   1.0096   1.1506   1.2782   1.3368
     1.4073   1.5380   1.5844   1.7099   1.7570   1.8210   1.9176   1.9969
     2.0372   2.1278   2.1788   2.2202   2.2663   2.3581   2.4242   2.4810
     2.5513   2.5814   2.6541   2.6939   2.7867   2.8133   2.8230   2.9518
     3.0118   3.0441   3.0828   3.1248   3.1586   3.1856   3.2567   3.3167
     3.3720   3.3969   3.4546   3.5051   3.5344   3.6616   3.7818   3.8696
     4.8297   5.0204   5.9179   6.3219   6.6115   9.4122  10.1849  10.2245
    10.7857  11.4181  11.7065  12.0696  12.1266  12.3614  12.4841  12.5587
    12.7196  12.7883  12.8598  12.9339  13.0478  13.1192  13.1814  13.2686
    13.3297  13.3955  13.4775  13.7397  13.8378

     occupation numbers 
     1.0000   1.0000   1.0000   1.0000   1.0000   1.0000   1.0000   1.0000
     1.0000   1.0000   1.0000   1.0000   1.0000   1.0000   1.0000   1.0000
     1.0000   1.0000   1.0000   1.0000   1.0000   1.0000   1.0000   1.0000
     1.0000   1.0000   1.0000   1.0000   1.0000   1.0000   1.0000   1.0000
     1.0000   1.0000   1.0000   1.0000   1.0000   1.0000   1.0000   1.0000
     1.0000   1.0000   1.0000   1.0000   1.0000   1.0000   1.0000   1.0000
     1.0000   1.0000   1.0000   1.0000   1.0000   1.0000   1.0000   1.0000
     1.0000   1.0000   1.0000   1.0000   1.0000   1.0000   1.0000   1.0000
     1.0000   1.0000   1.0000   1.0000   1.0000   1.0000   1.0000   1.0000
     1.0000   1.0000   1.0000   1.0000   1.0000   1.0000   1.0000   1.0000
     1.0000   1.0000   1.0000   1.0000   1.0000   1.0000   1.0000   1.0000
     1.0000   1.0000   1.0000   1.0000   1.0000   1.0000   1.0000   1.0000
     1.0000   1.0000   1.0000   1.0000   1.0000   1.0000   1.0000   1.0000
     1.0000   1.0000   1.0000   1.0000   1.0000   1.0000   1.0000   1.0000
     1.0000   1.0000   1.0000   1.0000   1.0000   1.0000   1.0000   1.0000
     1.0000   1.0000   1.0000   1.0000   1.0000   1.0000   1.0000   1.0000
     1.0000   1.0000   1.0000   1.0000   1.0000   0.0000   0.0000   0.0000
     0.0000   0.0000   0.0000   0.0000   0.0000   0.0000   0.0000   0.0000
     0.0000   0.0000   0.0000   0.0000   0.0000   0.0000   0.0000   0.0000
     0.0000   0.0000   0.0000   0.0000   0.0000

          k = 0.3331 0.0000 0.0619 ( 49555 PWs)   bands (ev):

   -81.6367 -68.0134 -67.9822 -67.8088 -67.6696 -67.5051 -48.6424 -47.3289
   -47.1258 -34.7934 -34.7759 -34.7676 -34.7545 -34.7499 -34.7304 -34.5863
   -34.5765 -34.5566 -34.4421 -34.4333 -34.4259 -34.2810 -34.2676 -34.2600
   -23.6386 -23.6158 -15.0902 -15.0534 -14.5276 -14.5024 -14.1118 -14.0882
   -13.5376 -13.4284 -13.3753 -13.3524 -13.2683 -13.2184 -13.1488 -13.1448
   -13.0213 -12.9419 -12.8643 -12.8237 -12.7508 -12.6807 -12.5081 -12.4284
   -11.8421 -11.6616  -7.1817  -7.1522  -7.1065  -7.0966  -7.0913  -7.0854
    -4.0085  -3.9525  -2.8098  -2.7121  -2.1137  -1.9806  -1.7008  -1.5501
    -1.1578  -1.1214  -1.0546  -1.0023  -0.6937  -0.5771  -0.5285  -0.4155
    -0.3324  -0.1830  -0.0766   0.0622   0.1757   0.2751   0.3687   0.4491
     0.5133   0.6878   0.7929   0.8485   1.0354   1.1230   1.1926   1.2479
     1.2958   1.3878   1.5076   1.6215   1.7149   1.8846   1.9841   2.0435
     2.0980   2.1360   2.2265   2.2853   2.3538   2.3746   2.4028   2.5121
     2.5674   2.6054   2.6190   2.7172   2.7730   2.8083   2.8275   2.8666
     2.9232   2.9632   3.0154   3.0936   3.1635   3.1975   3.2510   3.2985
     3.3370   3.3530   3.4042   3.4410   3.4947   3.5406   3.6447   3.8686
     4.9231   4.9638   5.9167   6.3541   6.5836   9.6837  10.6625  10.9651
    11.4228  11.4870  11.6527  11.7559  12.2122  12.2501  12.2655  12.4466
    12.6211  12.7229  12.7720  13.0280  13.0694  13.1257  13.1299  13.2012
    13.4428  13.5551  13.6320  13.8561  13.8930

     occupation numbers 
     1.0000   1.0000   1.0000   1.0000   1.0000   1.0000   1.0000   1.0000
     1.0000   1.0000   1.0000   1.0000   1.0000   1.0000   1.0000   1.0000
     1.0000   1.0000   1.0000   1.0000   1.0000   1.0000   1.0000   1.0000
     1.0000   1.0000   1.0000   1.0000   1.0000   1.0000   1.0000   1.0000
     1.0000   1.0000   1.0000   1.0000   1.0000   1.0000   1.0000   1.0000
     1.0000   1.0000   1.0000   1.0000   1.0000   1.0000   1.0000   1.0000
     1.0000   1.0000   1.0000   1.0000   1.0000   1.0000   1.0000   1.0000
     1.0000   1.0000   1.0000   1.0000   1.0000   1.0000   1.0000   1.0000
     1.0000   1.0000   1.0000   1.0000   1.0000   1.0000   1.0000   1.0000
     1.0000   1.0000   1.0000   1.0000   1.0000   1.0000   1.0000   1.0000
     1.0000   1.0000   1.0000   1.0000   1.0000   1.0000   1.0000   1.0000
     1.0000   1.0000   1.0000   1.0000   1.0000   1.0000   1.0000   1.0000
     1.0000   1.0000   1.0000   1.0000   1.0000   1.0000   1.0000   1.0000
     1.0000   1.0000   1.0000   1.0000   1.0000   1.0000   1.0000   1.0000
     1.0000   1.0000   1.0000   1.0000   1.0000   1.0000   1.0000   1.0000
     1.0000   1.0000   1.0000   1.0000   1.0000   1.0000   1.0000   1.0000
     1.0000   1.0000   1.0000   1.0000   1.0000   0.0000   0.0000   0.0000
     0.0000   0.0000   0.0000   0.0000   0.0000   0.0000   0.0000   0.0000
     0.0000   0.0000   0.0000   0.0000   0.0000   0.0000   0.0000   0.0000
     0.0000   0.0000   0.0000   0.0000   0.0000

          k = 0.3331 0.0000 0.2341 ( 49570 PWs)   bands (ev):

   -81.6367 -68.0134 -67.9822 -67.8088 -67.6696 -67.5051 -48.6424 -47.3289
   -47.1258 -34.7934 -34.7759 -34.7676 -34.7545 -34.7499 -34.7304 -34.5863
   -34.5765 -34.5566 -34.4421 -34.4333 -34.4259 -34.2810 -34.2676 -34.2600
   -23.6386 -23.6158 -15.0772 -15.0669 -14.5257 -14.5044 -14.1059 -14.0944
   -13.5333 -13.4312 -13.3840 -13.3447 -13.2673 -13.2166 -13.1583 -13.1381
   -13.0201 -12.9435 -12.8596 -12.8300 -12.7424 -12.6871 -12.5019 -12.4344
   -11.8412 -11.6625  -7.1817  -7.1522  -7.1065  -7.0966  -7.0913  -7.0853
    -4.0096  -3.9514  -2.7927  -2.7314  -2.0939  -2.0060  -1.6829  -1.5438
    -1.1617  -1.1262  -1.0355  -1.0114  -0.6656  -0.5762  -0.5341  -0.4971
    -0.2981  -0.2104  -0.0694   0.0300   0.1851   0.2721   0.3469   0.4780
     0.5199   0.7185   0.8060   0.8499   0.9909   1.1399   1.1901   1.2551
     1.3380   1.4243   1.4659   1.6794   1.7555   1.9012   1.9212   2.0491
     2.0849   2.1048   2.1828   2.2757   2.3467   2.3958   2.4408   2.4540
     2.5417   2.5820   2.6777   2.7084   2.7167   2.8176   2.8289   2.8827
     2.9403   2.9991   3.0388   3.1058   3.1739   3.1843   3.2276   3.2932
     3.3240   3.3388   3.3752   3.4197   3.5027   3.5875   3.6594   3.8743
     4.9207   4.9634   5.9159   6.3540   6.5839   9.9944  10.2046  11.0190
    11.4167  11.4773  11.6320  11.7870  12.1349  12.1929  12.3068  12.3967
    12.8313  12.8767  12.9177  12.9831  13.0501  13.1031  13.1272  13.2413
    13.3148  13.3897  13.5251  13.8628  13.9128

     occupation numbers 
     1.0000   1.0000   1.0000   1.0000   1.0000   1.0000   1.0000   1.0000
     1.0000   1.0000   1.0000   1.0000   1.0000   1.0000   1.0000   1.0000
     1.0000   1.0000   1.0000   1.0000   1.0000   1.0000   1.0000   1.0000
     1.0000   1.0000   1.0000   1.0000   1.0000   1.0000   1.0000   1.0000
     1.0000   1.0000   1.0000   1.0000   1.0000   1.0000   1.0000   1.0000
     1.0000   1.0000   1.0000   1.0000   1.0000   1.0000   1.0000   1.0000
     1.0000   1.0000   1.0000   1.0000   1.0000   1.0000   1.0000   1.0000
     1.0000   1.0000   1.0000   1.0000   1.0000   1.0000   1.0000   1.0000
     1.0000   1.0000   1.0000   1.0000   1.0000   1.0000   1.0000   1.0000
     1.0000   1.0000   1.0000   1.0000   1.0000   1.0000   1.0000   1.0000
     1.0000   1.0000   1.0000   1.0000   1.0000   1.0000   1.0000   1.0000
     1.0000   1.0000   1.0000   1.0000   1.0000   1.0000   1.0000   1.0000
     1.0000   1.0000   1.0000   1.0000   1.0000   1.0000   1.0000   1.0000
     1.0000   1.0000   1.0000   1.0000   1.0000   1.0000   1.0000   1.0000
     1.0000   1.0000   1.0000   1.0000   1.0000   1.0000   1.0000   1.0000
     1.0000   1.0000   1.0000   1.0000   1.0000   1.0000   1.0000   1.0000
     1.0000   1.0000   1.0000   1.0000   1.0000   0.0000   0.0000   0.0000
     0.0000   0.0000   0.0000   0.0000   0.0000   0.0000   0.0000   0.0000
     0.0000   0.0000   0.0000   0.0000   0.0000   0.0000   0.0000   0.0000
     0.0000   0.0000   0.0000   0.0000   0.0000

          k = 0.3331 0.0000-0.1104 ( 49584 PWs)   bands (ev):

   -81.6367 -68.0134 -67.9822 -67.8088 -67.6696 -67.5051 -48.6424 -47.3289
   -47.1258 -34.7934 -34.7759 -34.7676 -34.7545 -34.7499 -34.7304 -34.5863
   -34.5765 -34.5566 -34.4421 -34.4333 -34.4259 -34.2810 -34.2676 -34.2600
   -23.6386 -23.6158 -15.0864 -15.0574 -14.5202 -14.5101 -14.1080 -14.0921
   -13.5366 -13.4250 -13.3846 -13.3477 -13.2678 -13.2167 -13.1594 -13.1358
   -13.0205 -12.9425 -12.8588 -12.8332 -12.7388 -12.6895 -12.5032 -12.4328
   -11.8414 -11.6621  -7.1817  -7.1523  -7.1065  -7.0966  -7.0913  -7.0853
    -3.9865  -3.9750  -2.8021  -2.7211  -2.1043  -1.9921  -1.6959  -1.5481
    -1.1535  -1.1211  -1.0343  -1.0074  -0.6933  -0.5637  -0.5419  -0.4567
    -0.3275  -0.2068  -0.0546   0.0254   0.1958   0.2645   0.3954   0.4540
     0.4915   0.7196   0.7919   0.8934   1.0196   1.1238   1.1646   1.2643
     1.3264   1.3574   1.5188   1.6331   1.7121   1.8865   1.9566   2.0253
     2.0580   2.1327   2.2277   2.2639   2.3580   2.3958   2.4478   2.4894
     2.5539   2.6142   2.6453   2.7137   2.7706   2.8103   2.8213   2.8992
     2.9545   2.9986   3.0060   3.1007   3.1614   3.1859   3.2320   3.2507
     3.3267   3.3391   3.3627   3.3942   3.5228   3.6056   3.6506   3.8755
     4.9181   4.9671   5.9163   6.3540   6.5866   9.7149  10.5734  11.0786
    11.3334  11.5388  11.6869  11.8254  12.1244  12.1949  12.2945  12.4264
    12.6437  12.6538  12.9032  12.9288  13.0452  13.1145  13.1275  13.1730
    13.4546  13.4953  13.6448  13.7215  13.8798

     occupation numbers 
     1.0000   1.0000   1.0000   1.0000   1.0000   1.0000   1.0000   1.0000
     1.0000   1.0000   1.0000   1.0000   1.0000   1.0000   1.0000   1.0000
     1.0000   1.0000   1.0000   1.0000   1.0000   1.0000   1.0000   1.0000
     1.0000   1.0000   1.0000   1.0000   1.0000   1.0000   1.0000   1.0000
     1.0000   1.0000   1.0000   1.0000   1.0000   1.0000   1.0000   1.0000
     1.0000   1.0000   1.0000   1.0000   1.0000   1.0000   1.0000   1.0000
     1.0000   1.0000   1.0000   1.0000   1.0000   1.0000   1.0000   1.0000
     1.0000   1.0000   1.0000   1.0000   1.0000   1.0000   1.0000   1.0000
     1.0000   1.0000   1.0000   1.0000   1.0000   1.0000   1.0000   1.0000
     1.0000   1.0000   1.0000   1.0000   1.0000   1.0000   1.0000   1.0000
     1.0000   1.0000   1.0000   1.0000   1.0000   1.0000   1.0000   1.0000
     1.0000   1.0000   1.0000   1.0000   1.0000   1.0000   1.0000   1.0000
     1.0000   1.0000   1.0000   1.0000   1.0000   1.0000   1.0000   1.0000
     1.0000   1.0000   1.0000   1.0000   1.0000   1.0000   1.0000   1.0000
     1.0000   1.0000   1.0000   1.0000   1.0000   1.0000   1.0000   1.0000
     1.0000   1.0000   1.0000   1.0000   1.0000   1.0000   1.0000   1.0000
     1.0000   1.0000   1.0000   1.0000   1.0000   0.0000   0.0000   0.0000
     0.0000   0.0000   0.0000   0.0000   0.0000   0.0000   0.0000   0.0000
     0.0000   0.0000   0.0000   0.0000   0.0000   0.0000   0.0000   0.0000
     0.0000   0.0000   0.0000   0.0000   0.0000

          k = 0.3331 0.1915 0.0619 ( 49594 PWs)   bands (ev):

   -81.6367 -68.0134 -67.9822 -67.8088 -67.6696 -67.5051 -48.6424 -47.3289
   -47.1258 -34.7934 -34.7760 -34.7676 -34.7545 -34.7499 -34.7304 -34.5863
   -34.5765 -34.5566 -34.4421 -34.4333 -34.4259 -34.2810 -34.2676 -34.2600
   -23.6386 -23.6158 -15.0862 -15.0497 -14.5402 -14.5135 -14.1076 -14.0855
   -13.5042 -13.4476 -13.3542 -13.3129 -13.2702 -13.2273 -13.1928 -13.1703
   -13.0281 -12.9348 -12.8612 -12.8103 -12.7499 -12.6863 -12.5066 -12.4281
   -11.8416 -11.6616  -7.1819  -7.1526  -7.1060  -7.0964  -7.0915  -7.0855
    -3.9832  -3.9282  -2.9188  -2.8370  -2.0283  -1.8597  -1.6561  -1.5651
    -1.1743  -1.1354  -1.0444  -0.9752  -0.6876  -0.5533  -0.5034  -0.3969
    -0.3185  -0.2212  -0.0933   0.0502   0.1801   0.2537   0.3206   0.3759
     0.5223   0.6372   0.8222   0.9351   1.0187   1.1375   1.2100   1.2382
     1.2845   1.3714   1.4759   1.5473   1.7662   1.9014   2.0368   2.0480
     2.1004   2.1538   2.2139   2.2407   2.2982   2.4025   2.4617   2.4977
     2.5665   2.6071   2.6618   2.7062   2.7872   2.8097   2.8543   2.9272
     2.9534   2.9914   3.0208   3.0858   3.1141   3.1627   3.2044   3.2607
     3.2879   3.3286   3.4242   3.4368   3.4947   3.5957   3.6728   3.8128
     4.9228   4.9543   5.9234   6.3294   6.5984   9.9335  10.5540  10.8399
    11.2714  11.3881  11.5614  11.9558  12.0421  12.1698  12.3374  12.6044
    12.6780  12.8024  12.8241  12.8945  13.0215  13.1551  13.1795  13.3184
    13.4710  13.6068  13.7069  13.7881  13.9398

     occupation numbers 
     1.0000   1.0000   1.0000   1.0000   1.0000   1.0000   1.0000   1.0000
     1.0000   1.0000   1.0000   1.0000   1.0000   1.0000   1.0000   1.0000
     1.0000   1.0000   1.0000   1.0000   1.0000   1.0000   1.0000   1.0000
     1.0000   1.0000   1.0000   1.0000   1.0000   1.0000   1.0000   1.0000
     1.0000   1.0000   1.0000   1.0000   1.0000   1.0000   1.0000   1.0000
     1.0000   1.0000   1.0000   1.0000   1.0000   1.0000   1.0000   1.0000
     1.0000   1.0000   1.0000   1.0000   1.0000   1.0000   1.0000   1.0000
     1.0000   1.0000   1.0000   1.0000   1.0000   1.0000   1.0000   1.0000
     1.0000   1.0000   1.0000   1.0000   1.0000   1.0000   1.0000   1.0000
     1.0000   1.0000   1.0000   1.0000   1.0000   1.0000   1.0000   1.0000
     1.0000   1.0000   1.0000   1.0000   1.0000   1.0000   1.0000   1.0000
     1.0000   1.0000   1.0000   1.0000   1.0000   1.0000   1.0000   1.0000
     1.0000   1.0000   1.0000   1.0000   1.0000   1.0000   1.0000   1.0000
     1.0000   1.0000   1.0000   1.0000   1.0000   1.0000   1.0000   1.0000
     1.0000   1.0000   1.0000   1.0000   1.0000   1.0000   1.0000   1.0000
     1.0000   1.0000   1.0000   1.0000   1.0000   1.0000   1.0000   1.0000
     1.0000   1.0000   1.0000   1.0000   1.0000   0.0000   0.0000   0.0000
     0.0000   0.0000   0.0000   0.0000   0.0000   0.0000   0.0000   0.0000
     0.0000   0.0000   0.0000   0.0000   0.0000   0.0000   0.0000   0.0000
     0.0000   0.0000   0.0000   0.0000   0.0000

          k = 0.3331 0.1915 0.2341 ( 49594 PWs)   bands (ev):

   -81.6367 -68.0134 -67.9822 -67.8088 -67.6696 -67.5051 -48.6424 -47.3289
   -47.1258 -34.7934 -34.7759 -34.7676 -34.7545 -34.7499 -34.7304 -34.5863
   -34.5765 -34.5566 -34.4421 -34.4333 -34.4259 -34.2810 -34.2676 -34.2600
   -23.6386 -23.6158 -15.0730 -15.0634 -14.5364 -14.5174 -14.1024 -14.0910
   -13.5010 -13.4454 -13.3650 -13.3055 -13.2700 -13.2251 -13.2036 -13.1621
   -13.0269 -12.9368 -12.8556 -12.8193 -12.7420 -12.6912 -12.5006 -12.4339
   -11.8407 -11.6624  -7.1819  -7.1526  -7.1060  -7.0964  -7.0914  -7.0854
    -3.9823  -3.9290  -2.8955  -2.8628  -2.0153  -1.8773  -1.6446  -1.5539
    -1.1746  -1.1447  -1.0103  -0.9977  -0.6608  -0.5697  -0.5212  -0.4260
    -0.3089  -0.2446  -0.0712   0.0131   0.1781   0.2488   0.3099   0.3819
     0.5326   0.6535   0.8531   0.9366   1.0006   1.1269   1.1904   1.2845
     1.3199   1.4029   1.4593   1.5718   1.8232   1.8608   2.0228   2.0528
     2.0864   2.1257   2.1600   2.2750   2.2935   2.3788   2.4470   2.4821
     2.5590   2.6096   2.6678   2.6875   2.7616   2.8075   2.8679   2.9284
     2.9646   3.0065   3.0558   3.1028   3.1262   3.1779   3.1998   3.2696
     3.2848   3.3204   3.3407   3.4563   3.5068   3.5830   3.7037   3.8216
     4.9203   4.9540   5.9227   6.3283   6.5984  10.1992  10.4401  10.7177
    11.0245  11.3690  11.5646  11.9978  12.0940  12.2083  12.2879  12.6067
[...]
     atom   11 type  7   force =    -0.00033083    0.00298682    0.01383705
     atom   12 type  7   force =    -0.00093794   -0.01079484    0.01083284
     atom   13 type  7   force =     0.00093795   -0.01079483   -0.01083288
     atom   14 type  1   force =    -0.00011862   -0.00201774   -0.00782711
     atom   15 type  1   force =     0.00011760   -0.00201775    0.00782720
     atom   16 type  6   force =     0.00005979   -0.00060438    0.00636468
     atom   17 type  6   force =    -0.00006029   -0.00060436   -0.00636473
     atom   18 type  6   force =    -0.00003221    0.00017580   -0.00699506
     atom   19 type  6   force =     0.00003173    0.00017581    0.00699507
     atom   20 type  6   force =     0.00003097   -0.00011284    0.00678001
     atom   21 type  6   force =    -0.00003097   -0.00011284   -0.00678002
     atom   22 type  6   force =     0.00146850    0.00003153   -0.00261477
     atom   23 type  6   force =    -0.00146884    0.00003152    0.00261481
     atom   24 type  6   force =     0.00446834   -0.00155609   -0.00577063
     atom   25 type  6   force =    -0.00446834   -0.00155609    0.00577061
     atom   26 type  6   force =    -0.00304240    0.00067700   -0.00726666
     atom   27 type  6   force =     0.00304184    0.00067699    0.00726669
     atom   28 type  6   force =    -0.00135930    0.00193513    0.00729981
     atom   29 type  6   force =     0.00135930    0.00193513   -0.00729981
     atom   30 type  6   force =     0.00067526   -0.00174308   -0.00746616
     atom   31 type  6   force =    -0.00067525   -0.00174306    0.00746618
     atom   32 type  6   force =    -0.00212209   -0.00339975   -0.00635681
     atom   33 type  6   force =     0.00212159   -0.00339977    0.00635684
     atom   34 type  6   force =     0.00106973    0.00404202    0.00622150
     atom   35 type  6   force =    -0.00106973    0.00404202   -0.00622153
     atom   36 type  6   force =     0.00016790    0.00262392    0.01088658
     atom   37 type  6   force =    -0.00016793    0.00262393   -0.01088660
     atom   38 type  6   force =     0.00013766   -0.00125920    0.01112601
     atom   39 type  6   force =    -0.00013799   -0.00125944   -0.01112676
     atom   40 type  3   force =     0.00000000    0.00000000    0.00000000
     atom   41 type  3   force =     0.00000000    0.00000000    0.00000000
     atom   42 type  3   force =     0.00000000    0.00000000    0.00000000
     atom   43 type  3   force =     0.00000000    0.00000000    0.00000000
     atom   44 type  2   force =     0.00000000    0.00343741    0.00000000
     The Hubbard contrib.    to forces
     atom    1 type  4   force =     0.00000000    0.00000000    0.00000000
     atom    2 type  4   force =     0.00000000    0.00000000    0.00000000
     atom    3 type  5   force =     0.00000000    0.00000000    0.00000000
     atom    4 type  5   force =     0.00000000    0.00000000    0.00000000
     atom    5 type  5   force =     0.00000000    0.00000000    0.00000000
     atom    6 type  5   force =     0.00000000    0.00000000    0.00000000
     atom    7 type  5   force =     0.00000000    0.00000000    0.00000000
     atom    8 type  7   force =     0.00000000    0.00000000    0.00000000
     atom    9 type  7   force =     0.00000000    0.00000000    0.00000000
     atom   10 type  7   force =     0.00000000    0.00000000    0.00000000
     atom   11 type  7   force =     0.00000000    0.00000000    0.00000000
     atom   12 type  7   force =     0.00000000    0.00000000    0.00000000
     atom   13 type  7   force =     0.00000000    0.00000000    0.00000000
     atom   14 type  1   force =     0.00000000    0.00000000    0.00000000
     atom   15 type  1   force =     0.00000000    0.00000000    0.00000000
     atom   16 type  6   force =     0.00000000    0.00000000    0.00000000
     atom   17 type  6   force =     0.00000000    0.00000000    0.00000000
     atom   18 type  6   force =     0.00000000    0.00000000    0.00000000
     atom   19 type  6   force =     0.00000000    0.00000000    0.00000000
     atom   20 type  6   force =     0.00000000    0.00000000    0.00000000
     atom   21 type  6   force =     0.00000000    0.00000000    0.00000000
     atom   22 type  6   force =     0.00000000    0.00000000    0.00000000
     atom   23 type  6   force =     0.00000000    0.00000000    0.00000000
     atom   24 type  6   force =     0.00000000    0.00000000    0.00000000
     atom   25 type  6   force =     0.00000000    0.00000000    0.00000000
     atom   26 type  6   force =     0.00000000    0.00000000    0.00000000
     atom   27 type  6   force =     0.00000000    0.00000000    0.00000000
     atom   28 type  6   force =     0.00000000    0.00000000    0.00000000
     atom   29 type  6   force =     0.00000000    0.00000000    0.00000000
     atom   30 type  6   force =     0.00000000    0.00000000    0.00000000
     atom   31 type  6   force =     0.00000000    0.00000000    0.00000000
     atom   32 type  6   force =     0.00000000    0.00000000    0.00000000
     atom   33 type  6   force =     0.00000000    0.00000000    0.00000000
     atom   34 type  6   force =     0.00000000    0.00000000    0.00000000
     atom   35 type  6   force =     0.00000000    0.00000000    0.00000000
     atom   36 type  6   force =     0.00000000    0.00000000    0.00000000
     atom   37 type  6   force =     0.00000000    0.00000000    0.00000000
     atom   38 type  6   force =     0.00000000    0.00000000    0.00000000
     atom   39 type  6   force =     0.00000000    0.00000000    0.00000000
     atom   40 type  3   force =     0.00000000    0.00000000    0.00000000
     atom   41 type  3   force =     0.00000000    0.00000000    0.00000000
     atom   42 type  3   force =     0.00000000    0.00000000    0.00000000
     atom   43 type  3   force =     0.00000000    0.00000000    0.00000000
     atom   44 type  2   force =     0.00000000    0.00000000    0.00000000
     The SCF correction term to forces
     atom    1 type  4   force =    -0.00000000    0.00000030    0.00000000
     atom    2 type  4   force =    -0.00000000   -0.00000031    0.00000000
     atom    3 type  5   force =     0.00000000   -0.00000106    0.00000000
     atom    4 type  5   force =     0.00000000    0.00000228    0.00000000
     atom    5 type  5   force =     0.00000000    0.00000204    0.00000000
     atom    6 type  5   force =    -0.00000000   -0.00000073   -0.00000000
     atom    7 type  5   force =    -0.00000000   -0.00000131   -0.00000000
     atom    8 type  7   force =     0.00000003   -0.00000033   -0.00000004
     atom    9 type  7   force =    -0.00000003   -0.00000033    0.00000004
     atom   10 type  7   force =    -0.00000005    0.00000020    0.00000032
     atom   11 type  7   force =     0.00000005    0.00000020   -0.00000032
     atom   12 type  7   force =    -0.00000002    0.00000031   -0.00000014
     atom   13 type  7   force =     0.00000002    0.00000031    0.00000014
     atom   14 type  1   force =     0.00000008   -0.00000017   -0.00000026
     atom   15 type  1   force =    -0.00000008   -0.00000017    0.00000026
     atom   16 type  6   force =     0.00000019   -0.00000006   -0.00000027
     atom   17 type  6   force =    -0.00000019   -0.00000006    0.00000027
     atom   18 type  6   force =    -0.00000003    0.00000025   -0.00000071
     atom   19 type  6   force =     0.00000003    0.00000025    0.00000071
     atom   20 type  6   force =    -0.00000015   -0.00000005    0.00000085
     atom   21 type  6   force =     0.00000015   -0.00000005   -0.00000085
     atom   22 type  6   force =     0.00000066   -0.00000041    0.00000017
     atom   23 type  6   force =    -0.00000066   -0.00000041   -0.00000017
     atom   24 type  6   force =    -0.00000032   -0.00000037   -0.00000008
     atom   25 type  6   force =     0.00000032   -0.00000037    0.00000008
     atom   26 type  6   force =     0.00000000    0.00000042   -0.00000100
     atom   27 type  6   force =    -0.00000000    0.00000042    0.00000100
     atom   28 type  6   force =     0.00000025    0.00000043    0.00000129
     atom   29 type  6   force =    -0.00000025    0.00000043   -0.00000129
     atom   30 type  6   force =     0.00000033    0.00000027   -0.00000131
     atom   31 type  6   force =    -0.00000033    0.00000027    0.00000131
     atom   32 type  6   force =    -0.00000009   -0.00000020   -0.00000048
     atom   33 type  6   force =     0.00000009   -0.00000020    0.00000048
     atom   34 type  6   force =    -0.00000032   -0.00000059    0.00000012
     atom   35 type  6   force =     0.00000032   -0.00000059   -0.00000012
     atom   36 type  6   force =     0.00000035    0.00000008   -0.00000035
     atom   37 type  6   force =    -0.00000035    0.00000008    0.00000035
     atom   38 type  6   force =    -0.00000003    0.00000032    0.00000001
     atom   39 type  6   force =     0.00000003    0.00000032   -0.00000001
     atom   40 type  3   force =     0.00000003   -0.00000004   -0.00000012
     atom   41 type  3   force =    -0.00000003   -0.00000004    0.00000012
     atom   42 type  3   force =    -0.00000001    0.00000005   -0.00000007
     atom   43 type  3   force =     0.00000001    0.00000005    0.00000007
     atom   44 type  2   force =    -0.00000000   -0.00000194   -0.00000000

     DFT-D3 dispersion contribution to forces:
     atom    1 type  4   force =    -0.00000002    0.00142270   -0.00000000
     atom    2 type  4   force =    -0.00000000   -0.00110416   -0.00000000
     atom    3 type  5   force =    -0.00000000    0.00045613   -0.00000001
     atom    4 type  5   force =     0.00000000   -0.00128102    0.00000001
     atom    5 type  5   force =    -0.00000000   -0.00050009   -0.00000001
     atom    6 type  5   force =     0.00000000    0.00111958    0.00000000
     atom    7 type  5   force =     0.00000000   -0.00033306    0.00000000
     atom    8 type  7   force =    -0.00004499   -0.00004510   -0.00008658
     atom    9 type  7   force =     0.00004499   -0.00004510    0.00008658
     atom   10 type  7   force =     0.00003836    0.00001529    0.00023002
     atom   11 type  7   force =    -0.00003837    0.00001529   -0.00023002
     atom   12 type  7   force =     0.00002355    0.00025861   -0.00022608
     atom   13 type  7   force =    -0.00002355    0.00025861    0.00022608
     atom   14 type  1   force =    -0.00021229    0.00005390   -0.00101458
     atom   15 type  1   force =     0.00021228    0.00005390    0.00101458
     atom   16 type  6   force =    -0.00005440    0.00012251    0.00050220
     atom   17 type  6   force =     0.00005440    0.00012252   -0.00050219
     atom   18 type  6   force =     0.00000521    0.00000399   -0.00041361
     atom   19 type  6   force =    -0.00000521    0.00000399    0.00041361
     atom   20 type  6   force =    -0.00002197    0.00000004    0.00041841
     atom   21 type  6   force =     0.00002197    0.00000004   -0.00041841
     atom   22 type  6   force =    -0.00007636   -0.00001907    0.00002147
     atom   23 type  6   force =     0.00007637   -0.00001907   -0.00002146
     atom   24 type  6   force =    -0.00019889    0.00100612    0.00032352
     atom   25 type  6   force =     0.00019888    0.00100612   -0.00032352
     atom   26 type  6   force =     0.00089005    0.00006870    0.00021588
     atom   27 type  6   force =    -0.00089004    0.00006870   -0.00021588
     atom   28 type  6   force =     0.00027371   -0.00038241    0.00011353
     atom   29 type  6   force =    -0.00027371   -0.00038240   -0.00011352
     atom   30 type  6   force =    -0.00008973    0.00013701   -0.00017104
     atom   31 type  6   force =     0.00008973    0.00013702    0.00017104
     atom   32 type  6   force =     0.00097562   -0.00043032    0.00038824
     atom   33 type  6   force =    -0.00097561   -0.00043032   -0.00038824
     atom   34 type  6   force =     0.00069342   -0.00056168   -0.00047769
     atom   35 type  6   force =    -0.00069342   -0.00056168    0.00047768
     atom   36 type  6   force =    -0.00010177   -0.00016371   -0.00036585
     atom   37 type  6   force =     0.00010177   -0.00016371    0.00036585
     atom   38 type  6   force =     0.00002402   -0.00000278   -0.00052238
     atom   39 type  6   force =    -0.00002403   -0.00000278    0.00052236
     atom   40 type  3   force =    -0.00010548    0.00010179   -0.00010002
     atom   41 type  3   force =     0.00010549    0.00010179    0.00010002
     atom   42 type  3   force =     0.00008188   -0.00039396   -0.00032232
     atom   43 type  3   force =    -0.00008187   -0.00039396    0.00032232
     atom   44 type  2   force =     0.00000000    0.00068203    0.00000000

     Total force =     0.000285     Total SCF correction =     0.000006

     DFT-D3 dispersion Force =     0.004651


     Computing stress (Cartesian axis) and pressure


     negative rho (up, down):  0.000E+00 2.943E-04
          total   stress  (Ry/bohr**3)                   (kbar)     P=        0.04
   0.00000014   0.00000000  -0.00000011            0.02        0.00       -0.02
   0.00000000   0.00000045   0.00000000            0.00        0.07        0.00
  -0.00000011   0.00000000   0.00000029           -0.02        0.00        0.04

     kinetic stress (kbar)  19885.51      0.00    -53.08
                                0.00  19975.24      0.00
                              -53.08      0.00  19667.29

     local   stress (kbar) -41480.20     -0.01   -375.42
                               -0.01 -40644.74      0.00
                             -375.42      0.00  20035.31

     nonloc. stress (kbar)   3777.43      0.00      6.97
                                0.00   3766.95      0.00
                                6.97      0.00   3755.21

     hartree stress (kbar)  23237.35     -0.00    139.84
                               -0.00  22902.11      0.00
                              139.84      0.00  -6810.57

     exc-cor stress (kbar)  -2794.57      0.00      0.01
                                0.00  -2794.61      0.00
                                0.01      0.00  -2791.49

     corecor stress (kbar)  -1840.37     -0.00      0.45
                               -0.00  -1841.02     -0.00
                                0.45     -0.00  -1842.31

     ewald   stress (kbar)   -770.68      0.01    281.14
                                0.01  -1349.29      0.00
                              281.14      0.00 -32002.67

     hubbard stress (kbar)      0.00      0.00      0.00
                                0.00      0.00      0.00
                                0.00      0.00      0.00

     DFT-D   stress (kbar)    -14.45     -0.00      0.07
                               -0.00    -14.57     -0.00
                                0.07     -0.00    -10.72

     XDM     stress (kbar)      0.00      0.00      0.00
                                0.00      0.00      0.00
                                0.00      0.00      0.00

     dft-nl  stress (kbar)      0.00      0.00      0.00
                                0.00      0.00      0.00
                                0.00      0.00      0.00

     TS-vdW  stress (kbar)      0.00      0.00      0.00
                                0.00      0.00      0.00
                                0.00      0.00      0.00

     MDB     stress (kbar)      0.00      0.00      0.00
                                0.00      0.00      0.00
                                0.00      0.00      0.00

     3D-RISM stress (kbar)      0.00      0.00      0.00
                                0.00      0.00      0.00
                                0.00      0.00      0.00


     Writing all to output data dir ./temp/phl-fe1-fe2.save/ :
     XML data file, charge density, pseudopotentials, collected wavefunctions

     init_run     :    440.51s CPU    443.71s WALL (       2 calls)
     electrons    : 175126.67s CPU 175960.68s WALL (      18 calls)
     update_pot   :     30.61s CPU     31.73s WALL (      16 calls)
     forces       :   3084.13s CPU   3095.20s WALL (      18 calls)
     force_dftd3  :     33.35s CPU     33.55s WALL (      18 calls)
     stress       :   7530.76s CPU   7584.06s WALL (      18 calls)
     stres_dftd3  :     33.54s CPU     33.70s WALL (      18 calls)

     Called by init_run:
     wfcinit      :    423.94s CPU    425.82s WALL (       2 calls)
     wfcinit:atom :      0.57s CPU      0.57s WALL (      40 calls)
     wfcinit:wfcr :    418.36s CPU    420.18s WALL (      40 calls)
     potinit      :      3.76s CPU      3.95s WALL (       2 calls)
     hinit0       :      2.62s CPU      2.69s WALL (       2 calls)

     Called by electrons:
     c_bands      : 163719.54s CPU 164345.34s WALL (     173 calls)
     sum_band     :  10561.63s CPU  10701.76s WALL (     173 calls)
     v_of_rho     :    132.19s CPU    138.09s WALL (     174 calls)
     v_h          :      4.84s CPU      5.04s WALL (     174 calls)
     v_xc         :    153.28s CPU    160.84s WALL (     210 calls)
     newd         :    590.04s CPU    659.64s WALL (     174 calls)
     PAW_pot      :    168.88s CPU    168.94s WALL (     190 calls)
     mix_rho      :     12.87s CPU     13.34s WALL (     173 calls)
     energy_dftd3 :     27.09s CPU     27.10s WALL (      18 calls)

     Called by c_bands:
     init_us_2    :    289.92s CPU    290.14s WALL (    8000 calls)
     cegterg      : 160185.06s CPU 160809.62s WALL (    3500 calls)

     Called by sum_band:
     sum_band:wei :      0.24s CPU      0.25s WALL (     173 calls)
     sum_band:loo :   9404.74s CPU   9461.25s WALL (     173 calls)
     sum_band:buf :     35.61s CPU     35.65s WALL (    3460 calls)
     sum_band:ini :    111.12s CPU    111.17s WALL (    3460 calls)
     sum_band:cal :   7403.20s CPU   7406.45s WALL (    3780 calls)
     sum_band:bec :      7.03s CPU      7.05s WALL (    3780 calls)
     addusdens    :   1040.82s CPU   1122.40s WALL (     173 calls)
                                        0.00s GPU  (     173 calls)
     addusd:skk   :      2.85s CPU      4.37s WALL (    1211 calls)
                                        0.00s GPU  (    1211 calls)

     Called by *egterg:
     cdiaghg      :   2169.21s CPU   2192.07s WALL (   25659 calls)
     cegterg:over :  24889.02s CPU  24896.47s WALL (   22859 calls)
     cegterg:upda :  13272.54s CPU  13301.27s WALL (   22859 calls)
     cegterg:last :  34688.31s CPU  34700.35s WALL (   11413 calls)
     cdiaghg:chol :     38.55s CPU     38.64s WALL (   25659 calls)
     cdiaghg:inve :     38.36s CPU     38.41s WALL (   25659 calls)
     cdiaghg:para :    985.43s CPU    997.11s WALL (   51318 calls)
     h_psi        :  59202.67s CPU  59653.80s WALL (   26399 calls)
     s_psi        :  20149.85s CPU  20153.35s WALL (   26399 calls)
     g_psi        :     93.12s CPU     93.22s WALL (   22859 calls)

     Called by h_psi:
     h_psi:calbec :  23482.74s CPU  23493.37s WALL (   26399 calls)
     vloc_psi     :  12778.79s CPU  13168.30s WALL (   26399 calls)
     add_vuspsi   :  22877.58s CPU  22882.03s WALL (   26399 calls)

     General routines
     calbec       :  35435.44s CPU  35450.67s WALL (   31979 calls)
     fft          :    112.64s CPU    120.04s WALL (    5084 calls)
     ffts         :      3.72s CPU      4.03s WALL (     694 calls)
     fftw         :  11441.72s CPU  11812.41s WALL ( 4390180 calls)
     interpolate  :     12.07s CPU     12.71s WALL (     348 calls)

     Parallel routines

     PAW routines
     PAW_pot      :    168.88s CPU    168.94s WALL (     190 calls)
     PAW_symme    :      0.20s CPU      0.21s WALL (     362 calls)

     PWSCF        :   2d 3h55m CPU   2d 4h10m WALL


   This run was terminated on:  15:53:49   3Jan2026            

=------------------------------------------------------------------------------=
   JOB DONE.
=------------------------------------------------------------------------------=
