 INFO
nunit      1    1    1
unit   cell
celltype   primcell
shape   parapipedal
 END_INFO
 DIM-GROUP
           3           1
 PRIMVEC
    5.3323419060    0.0000000000    0.0000000000
    0.0000000000    9.2564613070    0.0000000000
   -1.8924760120    0.0000000000   10.3237361940
 CONVVEC
    5.3323419060    0.0000000000    0.0000000000
    0.0000000000    9.2564613070    0.0000000000
   -1.8924760120    0.0000000000   10.3237361940
 PRIMCOORD
          44           1
 19      0.0000000000     4.4781964100     0.0000000000     0.0000000000     0.0000203800     0.0000000000
 19      2.6661708630     0.1197226320     0.0000000000     0.0000000000     0.0000090200     0.0000000000
 12     -0.9462385760     0.0403258880     5.1618684760     0.0000000000    -0.0000308300     0.0000000000
 12     -0.9462385760     3.0852543210     5.1618684760     0.0000000000     0.0000124600     0.0000000000
 12     -0.9462385760     6.1598880390     5.1618684760     0.0000000000     0.0000703100     0.0000000000
 12      1.7199322860     4.5622213680     5.1618684760     0.0000000000     0.0000054600     0.0000000000
 12      1.7199322860     7.7237915110     5.1618684760     0.0000000000    -0.0000113000     0.0000000000
 12      1.7199322860     1.5973125050     5.1618684760     0.0000000000     0.0000270000     0.0000000000
 14      0.0005319990     1.5249739120     2.3570249780    -0.0000029700    -0.0000159600    -0.0000325100
 14      3.4393325830     1.5249739120     7.9667121280     0.0000029700    -0.0000159600     0.0000325100
 14      3.5405878320     7.7195003590     7.9017356010    -0.0000045300    -0.0000226100    -0.0000085000
 14     -0.1007232220     7.7195003590     2.4220013500     0.0000045300    -0.0000226100     0.0000085000
 14      2.5621738700     6.1723706680     2.3998271250    -0.0000006900    -0.0000066400     0.0000078800
 14      0.8776909190     6.1723706680     7.9239095170     0.0000006900    -0.0000066400    -0.0000078800
 13      0.7685589620     3.0663270430     7.9454027840     0.0000041300    -0.0000125100     0.0000200300
 13      2.6713056110     3.0663270430     2.3783341680    -0.0000041300    -0.0000125100    -0.0000200300
  8     -0.0571826470     1.5164744880     3.9919083540    -0.0000251500     0.0000084100    -0.0000360800
  8      3.4970470270     1.5164744880     6.3318292170     0.0000251500     0.0000084100     0.0000360800
  8      3.5170872860     7.7106325890     6.2794638230     0.0000092600     0.0000115300    -0.0000198400
  8     -0.0772227130     7.7106325890     4.0442731280    -0.0000092600     0.0000115300     0.0000198400
  8      2.5904980390     6.1948886070     4.0292087490    -0.0000157200     0.0000201400     0.0000081800
  8      0.8493666940     6.1948886070     6.2945282030     0.0000157200     0.0000201400    -0.0000081800
  8      0.7903599170     3.0797678080     6.2109164140    -0.0000193900     0.0000186800     0.0000285200
  8      2.6495046560     3.0797678080     4.1128205370     0.0000193900     0.0000186800    -0.0000285200
  8      1.4704925900     1.9113310220     1.7675164980     0.0000035900    -0.0000124600     0.0000142900
  8      1.9693719080     1.9113310220     8.5562199890    -0.0000035900    -0.0000124600    -0.0000142900
  8      4.9985803570     9.2264827520     1.8051691980    -0.0000245300    -0.0000185500     0.0000102700
  8     -1.5587156780     9.2264827520     8.5185677530     0.0000245300    -0.0000185500    -0.0000102700
  8      2.1041106630     7.1524804650     8.5027317960    -0.0000084900     0.0000172200    -0.0000258000
  8      1.3357537220     7.1524804650     1.8210053100     0.0000084900     0.0000172200     0.0000258000
  8      3.9973527760     6.7977700220     1.8126987110    -0.0000182900    -0.0000004500     0.0000310500
  8     -0.5574882260     6.7977700220     8.5110379310     0.0000182900    -0.0000004500    -0.0000310500
  8      2.3461641020     4.7038364380     1.7479680970     0.0000017100    -0.0000219500     0.0000166900
  8      1.0937002540     4.7038364380     8.5757691640    -0.0000017100    -0.0000219500    -0.0000166900
  8     -0.7807615030     2.5246467370     8.6140628360     0.0000182500     0.0000075300    -0.0000436500
  8      4.2206263370     2.5246467370     1.7096739710    -0.0000182500     0.0000075300     0.0000436500
  8     -0.0562246200     4.6659777610     4.1038379110     0.0000035200     0.0000001700     0.0000112100
  8      3.4960894100     4.6659777610     6.2198987310    -0.0000035200     0.0000001700    -0.0000112100
  8      2.6141174720     9.2532789960     4.1391117420    -0.0000223000    -0.0000254800     0.0000106300
  8      0.8257472600     9.2532789960     6.1846252090     0.0000223000    -0.0000254800    -0.0000106300
  1     -0.0452577080     4.6012407090     3.1403531420     0.0000150200    -0.0000295500     0.0000221400
  1      3.4851223470     4.6012407090     7.1833841190    -0.0000150200    -0.0000295500    -0.0000221400
  1      2.5989815380     0.1156896100     3.1799141230     0.0000080100     0.0000312100     0.0000127700
  1      0.8408830910     0.1156896100     7.1438225180    -0.0000080100     0.0000312100    -0.0000127700
 CONVCOORD
          44           1
 19      0.0000000000     4.4781964100     0.0000000000
 19      2.6661708630     0.1197226320     0.0000000000
 12     -0.9462385760     0.0403258880     5.1618684760
 12     -0.9462385760     3.0852543210     5.1618684760
 12     -0.9462385760     6.1598880390     5.1618684760
 12      1.7199322860     4.5622213680     5.1618684760
 12      1.7199322860     7.7237915110     5.1618684760
 12      1.7199322860     1.5973125050     5.1618684760
 14      0.0005319990     1.5249739120     2.3570249780
 14      3.4393325830     1.5249739120     7.9667121280
 14      3.5405878320     7.7195003590     7.9017356010
 14     -0.1007232220     7.7195003590     2.4220013500
 14      2.5621738700     6.1723706680     2.3998271250
 14      0.8776909190     6.1723706680     7.9239095170
 13      0.7685589620     3.0663270430     7.9454027840
 13      2.6713056110     3.0663270430     2.3783341680
  8     -0.0571826470     1.5164744880     3.9919083540
  8      3.4970470270     1.5164744880     6.3318292170
  8      3.5170872860     7.7106325890     6.2794638230
  8     -0.0772227130     7.7106325890     4.0442731280
  8      2.5904980390     6.1948886070     4.0292087490
  8      0.8493666940     6.1948886070     6.2945282030
  8      0.7903599170     3.0797678080     6.2109164140
  8      2.6495046560     3.0797678080     4.1128205370
  8      1.4704925900     1.9113310220     1.7675164980
  8      1.9693719080     1.9113310220     8.5562199890
  8      4.9985803570     9.2264827520     1.8051691980
  8     -1.5587156780     9.2264827520     8.5185677530
  8      2.1041106630     7.1524804650     8.5027317960
  8      1.3357537220     7.1524804650     1.8210053100
  8      3.9973527760     6.7977700220     1.8126987110
  8     -0.5574882260     6.7977700220     8.5110379310
  8      2.3461641020     4.7038364380     1.7479680970
  8      1.0937002540     4.7038364380     8.5757691640
  8     -0.7807615030     2.5246467370     8.6140628360
  8      4.2206263370     2.5246467370     1.7096739710
  8     -0.0562246200     4.6659777610     4.1038379110
  8      3.4960894100     4.6659777610     6.2198987310
  8      2.6141174720     9.2532789960     4.1391117420
  8      0.8257472600     9.2532789960     6.1846252090
  1     -0.0452577080     4.6012407090     3.1403531420
  1      3.4851223470     4.6012407090     7.1833841190
  1      2.5989815380     0.1156896100     3.1799141230
  1      0.8408830910     0.1156896100     7.1438225180
 RECIP-PRIMVEC
    0.1875348613   -0.0000000000    0.0343775955

    0.0000000000    0.1080326452   -0.0000000000

    0.0000000000    0.0000000000    0.0968641567

 RECIP-CONVVEC
    0.1875348613   -0.0000000000    0.0343775955

    0.0000000000    0.1080326452   -0.0000000000

    0.0000000000    0.0000000000    0.0968641567

 WIGNER-SEITZ-PRIMCELL
           4
 -0.2666171E+01  0.4628231E+01 -0.4846582E+01  -0.3161137E+00 -0.8817911E-16 -0.9487213E+00
 -0.7736949E+00  0.4628231E+01 -0.5477154E+01  -0.3161137E+00 -0.8817911E-16 -0.9487213E+00
 -0.7736949E+00 -0.4628231E+01 -0.5477154E+01  -0.3161137E+00 -0.8817911E-16 -0.9487213E+00
 -0.2666171E+01 -0.4628231E+01 -0.4846582E+01  -0.3161137E+00 -0.8817911E-16 -0.9487213E+00
           4
 -0.2666171E+01  0.4628231E+01 -0.4846582E+01  -0.1000000E+01 -0.0000000E+00 -0.0000000E+00
 -0.2666171E+01 -0.4628231E+01 -0.4846582E+01  -0.1000000E+01 -0.0000000E+00 -0.0000000E+00
 -0.2666171E+01 -0.4628231E+01  0.4846582E+01  -0.1000000E+01 -0.0000000E+00 -0.0000000E+00
 -0.2666171E+01  0.4628231E+01  0.4846582E+01  -0.1000000E+01 -0.0000000E+00 -0.0000000E+00
           6
  0.2666171E+01 -0.4628231E+01  0.4846582E+01  -0.0000000E+00 -0.1000000E+01  0.5282959E-15
  0.7736949E+00 -0.4628231E+01  0.5477154E+01  -0.0000000E+00 -0.1000000E+01  0.5282959E-15
 -0.2666171E+01 -0.4628231E+01  0.4846582E+01  -0.0000000E+00 -0.1000000E+01  0.5282959E-15
 -0.2666171E+01 -0.4628231E+01 -0.4846582E+01  -0.0000000E+00 -0.1000000E+01  0.5282959E-15
 -0.7736949E+00 -0.4628231E+01 -0.5477154E+01  -0.0000000E+00 -0.1000000E+01  0.5282959E-15
  0.2666171E+01 -0.4628231E+01 -0.4846582E+01  -0.0000000E+00 -0.1000000E+01  0.5282959E-15
           4
  0.2666171E+01  0.4628231E+01 -0.4846582E+01   0.1803086E+00  0.0000000E+00 -0.9836101E+00
  0.2666171E+01 -0.4628231E+01 -0.4846582E+01   0.1803086E+00  0.0000000E+00 -0.9836101E+00
 -0.7736949E+00 -0.4628231E+01 -0.5477154E+01   0.1803086E+00  0.0000000E+00 -0.9836101E+00
 -0.7736949E+00  0.4628231E+01 -0.5477154E+01   0.1803086E+00  0.0000000E+00 -0.9836101E+00
           4
  0.7736949E+00  0.4628231E+01  0.5477154E+01  -0.1803086E+00  0.1685259E-16  0.9836101E+00
 -0.2666171E+01  0.4628231E+01  0.4846582E+01  -0.1803086E+00  0.1685259E-16  0.9836101E+00
 -0.2666171E+01 -0.4628231E+01  0.4846582E+01  -0.1803086E+00  0.1685259E-16  0.9836101E+00
  0.7736949E+00 -0.4628231E+01  0.5477154E+01  -0.1803086E+00  0.1685259E-16  0.9836101E+00
           6
  0.2666171E+01  0.4628231E+01 -0.4846582E+01   0.2346105E-30  0.1000000E+01 -0.2113184E-14
 -0.7736949E+00  0.4628231E+01 -0.5477154E+01   0.2346105E-30  0.1000000E+01 -0.2113184E-14
 -0.2666171E+01  0.4628231E+01 -0.4846582E+01   0.2346105E-30  0.1000000E+01 -0.2113184E-14
 -0.2666171E+01  0.4628231E+01  0.4846582E+01   0.2346105E-30  0.1000000E+01 -0.2113184E-14
  0.7736949E+00  0.4628231E+01  0.5477154E+01   0.2346105E-30  0.1000000E+01 -0.2113184E-14
  0.2666171E+01  0.4628231E+01  0.4846582E+01   0.2346105E-30  0.1000000E+01 -0.2113184E-14
           4
  0.2666171E+01  0.4628231E+01  0.4846582E+01   0.1000000E+01  0.0000000E+00  0.0000000E+00
  0.2666171E+01 -0.4628231E+01  0.4846582E+01   0.1000000E+01  0.0000000E+00  0.0000000E+00
  0.2666171E+01 -0.4628231E+01 -0.4846582E+01   0.1000000E+01  0.0000000E+00  0.0000000E+00
  0.2666171E+01  0.4628231E+01 -0.4846582E+01   0.1000000E+01  0.0000000E+00  0.0000000E+00
           4
  0.7736949E+00 -0.4628231E+01  0.5477154E+01   0.3161137E+00 -0.6507271E-16  0.9487213E+00
  0.2666171E+01 -0.4628231E+01  0.4846582E+01   0.3161137E+00 -0.6507271E-16  0.9487213E+00
  0.2666171E+01  0.4628231E+01  0.4846582E+01   0.3161137E+00 -0.6507271E-16  0.9487213E+00
  0.7736949E+00  0.4628231E+01  0.5477154E+01   0.3161137E+00 -0.6507271E-16  0.9487213E+00
 WIGNER-SEITZ-PRIMCELL_END
 WIGNER-SEITZ-CONVCELL
           4
 -0.2666171E+01  0.4628231E+01 -0.4846582E+01  -0.3161137E+00 -0.8817911E-16 -0.9487213E+00
 -0.7736949E+00  0.4628231E+01 -0.5477154E+01  -0.3161137E+00 -0.8817911E-16 -0.9487213E+00
 -0.7736949E+00 -0.4628231E+01 -0.5477154E+01  -0.3161137E+00 -0.8817911E-16 -0.9487213E+00
 -0.2666171E+01 -0.4628231E+01 -0.4846582E+01  -0.3161137E+00 -0.8817911E-16 -0.9487213E+00
           4
 -0.2666171E+01  0.4628231E+01 -0.4846582E+01  -0.1000000E+01 -0.0000000E+00 -0.0000000E+00
 -0.2666171E+01 -0.4628231E+01 -0.4846582E+01  -0.1000000E+01 -0.0000000E+00 -0.0000000E+00
 -0.2666171E+01 -0.4628231E+01  0.4846582E+01  -0.1000000E+01 -0.0000000E+00 -0.0000000E+00
 -0.2666171E+01  0.4628231E+01  0.4846582E+01  -0.1000000E+01 -0.0000000E+00 -0.0000000E+00
           6
  0.2666171E+01 -0.4628231E+01  0.4846582E+01  -0.0000000E+00 -0.1000000E+01  0.5282959E-15
  0.7736949E+00 -0.4628231E+01  0.5477154E+01  -0.0000000E+00 -0.1000000E+01  0.5282959E-15
 -0.2666171E+01 -0.4628231E+01  0.4846582E+01  -0.0000000E+00 -0.1000000E+01  0.5282959E-15
 -0.2666171E+01 -0.4628231E+01 -0.4846582E+01  -0.0000000E+00 -0.1000000E+01  0.5282959E-15
 -0.7736949E+00 -0.4628231E+01 -0.5477154E+01  -0.0000000E+00 -0.1000000E+01  0.5282959E-15
  0.2666171E+01 -0.4628231E+01 -0.4846582E+01  -0.0000000E+00 -0.1000000E+01  0.5282959E-15
           4
  0.2666171E+01  0.4628231E+01 -0.4846582E+01   0.1803086E+00  0.0000000E+00 -0.9836101E+00
  0.2666171E+01 -0.4628231E+01 -0.4846582E+01   0.1803086E+00  0.0000000E+00 -0.9836101E+00
 -0.7736949E+00 -0.4628231E+01 -0.5477154E+01   0.1803086E+00  0.0000000E+00 -0.9836101E+00
 -0.7736949E+00  0.4628231E+01 -0.5477154E+01   0.1803086E+00  0.0000000E+00 -0.9836101E+00
           4
  0.7736949E+00  0.4628231E+01  0.5477154E+01  -0.1803086E+00  0.1685259E-16  0.9836101E+00
 -0.2666171E+01  0.4628231E+01  0.4846582E+01  -0.1803086E+00  0.1685259E-16  0.9836101E+00
 -0.2666171E+01 -0.4628231E+01  0.4846582E+01  -0.1803086E+00  0.1685259E-16  0.9836101E+00
  0.7736949E+00 -0.4628231E+01  0.5477154E+01  -0.1803086E+00  0.1685259E-16  0.9836101E+00
           6
  0.2666171E+01  0.4628231E+01 -0.4846582E+01   0.2346105E-30  0.1000000E+01 -0.2113184E-14
 -0.7736949E+00  0.4628231E+01 -0.5477154E+01   0.2346105E-30  0.1000000E+01 -0.2113184E-14
 -0.2666171E+01  0.4628231E+01 -0.4846582E+01   0.2346105E-30  0.1000000E+01 -0.2113184E-14
 -0.2666171E+01  0.4628231E+01  0.4846582E+01   0.2346105E-30  0.1000000E+01 -0.2113184E-14
  0.7736949E+00  0.4628231E+01  0.5477154E+01   0.2346105E-30  0.1000000E+01 -0.2113184E-14
  0.2666171E+01  0.4628231E+01  0.4846582E+01   0.2346105E-30  0.1000000E+01 -0.2113184E-14
           4
  0.2666171E+01  0.4628231E+01  0.4846582E+01   0.1000000E+01  0.0000000E+00  0.0000000E+00
  0.2666171E+01 -0.4628231E+01  0.4846582E+01   0.1000000E+01  0.0000000E+00  0.0000000E+00
  0.2666171E+01 -0.4628231E+01 -0.4846582E+01   0.1000000E+01  0.0000000E+00  0.0000000E+00
  0.2666171E+01  0.4628231E+01 -0.4846582E+01   0.1000000E+01  0.0000000E+00  0.0000000E+00
           4
  0.7736949E+00 -0.4628231E+01  0.5477154E+01   0.3161137E+00 -0.6507271E-16  0.9487213E+00
  0.2666171E+01 -0.4628231E+01  0.4846582E+01   0.3161137E+00 -0.6507271E-16  0.9487213E+00
  0.2666171E+01  0.4628231E+01  0.4846582E+01   0.3161137E+00 -0.6507271E-16  0.9487213E+00
  0.7736949E+00  0.4628231E+01  0.5477154E+01   0.3161137E+00 -0.6507271E-16  0.9487213E+00
 WIGNER-SEITZ-CONVCELL_END
 BRILLOUIN-ZONE-PRIMCELL
           4
  0.9949473E-01  0.5401632E-01 -0.1405448E-01   0.9487213E+00 -0.2769609E-16 -0.3161137E+00
  0.9949473E-01 -0.5401632E-01 -0.1405448E-01   0.9487213E+00 -0.2769609E-16 -0.3161137E+00
  0.8804013E-01 -0.5401632E-01 -0.4843208E-01   0.9487213E+00 -0.2769609E-16 -0.3161137E+00
  0.8804013E-01  0.5401632E-01 -0.4843208E-01   0.9487213E+00 -0.2769609E-16 -0.3161137E+00
           4
 -0.8804013E-01 -0.5401632E-01 -0.4843208E-01   0.0000000E+00  0.0000000E+00 -0.1000000E+01
 -0.8804013E-01  0.5401632E-01 -0.4843208E-01   0.0000000E+00  0.0000000E+00 -0.1000000E+01
  0.8804013E-01  0.5401632E-01 -0.4843208E-01   0.0000000E+00  0.0000000E+00 -0.1000000E+01
  0.8804013E-01 -0.5401632E-01 -0.4843208E-01   0.0000000E+00  0.0000000E+00 -0.1000000E+01
           6
  0.8804013E-01 -0.5401632E-01  0.4843208E-01   0.0000000E+00 -0.1000000E+01 -0.2865788E-15
 -0.8804013E-01 -0.5401632E-01  0.4843208E-01   0.0000000E+00 -0.1000000E+01 -0.2865788E-15
 -0.9949473E-01 -0.5401632E-01  0.1405448E-01   0.0000000E+00 -0.1000000E+01 -0.2865788E-15
 -0.8804013E-01 -0.5401632E-01 -0.4843208E-01   0.0000000E+00 -0.1000000E+01 -0.2865788E-15
  0.8804013E-01 -0.5401632E-01 -0.4843208E-01   0.0000000E+00 -0.1000000E+01 -0.2865788E-15
  0.9949473E-01 -0.5401632E-01 -0.1405448E-01   0.0000000E+00 -0.1000000E+01 -0.2865788E-15
           4
  0.8804013E-01  0.5401632E-01  0.4843208E-01   0.9836101E+00 -0.6713988E-16  0.1803086E+00
  0.8804013E-01 -0.5401632E-01  0.4843208E-01   0.9836101E+00 -0.6713988E-16  0.1803086E+00
  0.9949473E-01 -0.5401632E-01 -0.1405448E-01   0.9836101E+00 -0.6713988E-16  0.1803086E+00
  0.9949473E-01  0.5401632E-01 -0.1405448E-01   0.9836101E+00 -0.6713988E-16  0.1803086E+00
           4
 -0.9949473E-01  0.5401632E-01  0.1405448E-01  -0.9836101E+00 -0.3696156E-15 -0.1803086E+00
 -0.8804013E-01  0.5401632E-01 -0.4843208E-01  -0.9836101E+00 -0.3696156E-15 -0.1803086E+00
 -0.8804013E-01 -0.5401632E-01 -0.4843208E-01  -0.9836101E+00 -0.3696156E-15 -0.1803086E+00
 -0.9949473E-01 -0.5401632E-01  0.1405448E-01  -0.9836101E+00 -0.3696156E-15 -0.1803086E+00
           6
  0.9949473E-01  0.5401632E-01 -0.1405448E-01   0.0000000E+00  0.1000000E+01 -0.0000000E+00
  0.8804013E-01  0.5401632E-01 -0.4843208E-01   0.0000000E+00  0.1000000E+01 -0.0000000E+00
 -0.8804013E-01  0.5401632E-01 -0.4843208E-01   0.0000000E+00  0.1000000E+01 -0.0000000E+00
 -0.9949473E-01  0.5401632E-01  0.1405448E-01   0.0000000E+00  0.1000000E+01 -0.0000000E+00
 -0.8804013E-01  0.5401632E-01  0.4843208E-01   0.0000000E+00  0.1000000E+01 -0.0000000E+00
  0.8804013E-01  0.5401632E-01  0.4843208E-01   0.0000000E+00  0.1000000E+01 -0.0000000E+00
           4
 -0.8804013E-01 -0.5401632E-01  0.4843208E-01  -0.0000000E+00  0.3533358E-16  0.1000000E+01
  0.8804013E-01 -0.5401632E-01  0.4843208E-01  -0.0000000E+00  0.3533358E-16  0.1000000E+01
  0.8804013E-01  0.5401632E-01  0.4843208E-01  -0.0000000E+00  0.3533358E-16  0.1000000E+01
 -0.8804013E-01  0.5401632E-01  0.4843208E-01  -0.0000000E+00  0.3533358E-16  0.1000000E+01
           4
 -0.8804013E-01  0.5401632E-01  0.4843208E-01  -0.9487213E+00 -0.1052644E-15  0.3161137E+00
 -0.9949473E-01  0.5401632E-01  0.1405448E-01  -0.9487213E+00 -0.1052644E-15  0.3161137E+00
 -0.9949473E-01 -0.5401632E-01  0.1405448E-01  -0.9487213E+00 -0.1052644E-15  0.3161137E+00
 -0.8804013E-01 -0.5401632E-01  0.4843208E-01  -0.9487213E+00 -0.1052644E-15  0.3161137E+00
 BRILLOUIN-ZONE-PRIMCELL_END
 BRILLOUIN-ZONE-CONVCELL
           4
  0.9949473E-01  0.5401632E-01 -0.1405448E-01   0.9487213E+00 -0.2769609E-16 -0.3161137E+00
  0.9949473E-01 -0.5401632E-01 -0.1405448E-01   0.9487213E+00 -0.2769609E-16 -0.3161137E+00
  0.8804013E-01 -0.5401632E-01 -0.4843208E-01   0.9487213E+00 -0.2769609E-16 -0.3161137E+00
  0.8804013E-01  0.5401632E-01 -0.4843208E-01   0.9487213E+00 -0.2769609E-16 -0.3161137E+00
           4
 -0.8804013E-01 -0.5401632E-01 -0.4843208E-01   0.0000000E+00  0.0000000E+00 -0.1000000E+01
 -0.8804013E-01  0.5401632E-01 -0.4843208E-01   0.0000000E+00  0.0000000E+00 -0.1000000E+01
  0.8804013E-01  0.5401632E-01 -0.4843208E-01   0.0000000E+00  0.0000000E+00 -0.1000000E+01
  0.8804013E-01 -0.5401632E-01 -0.4843208E-01   0.0000000E+00  0.0000000E+00 -0.1000000E+01
           6
  0.8804013E-01 -0.5401632E-01  0.4843208E-01   0.0000000E+00 -0.1000000E+01 -0.2865788E-15
 -0.8804013E-01 -0.5401632E-01  0.4843208E-01   0.0000000E+00 -0.1000000E+01 -0.2865788E-15
 -0.9949473E-01 -0.5401632E-01  0.1405448E-01   0.0000000E+00 -0.1000000E+01 -0.2865788E-15
 -0.8804013E-01 -0.5401632E-01 -0.4843208E-01   0.0000000E+00 -0.1000000E+01 -0.2865788E-15
  0.8804013E-01 -0.5401632E-01 -0.4843208E-01   0.0000000E+00 -0.1000000E+01 -0.2865788E-15
  0.9949473E-01 -0.5401632E-01 -0.1405448E-01   0.0000000E+00 -0.1000000E+01 -0.2865788E-15
           4
  0.8804013E-01  0.5401632E-01  0.4843208E-01   0.9836101E+00 -0.6713988E-16  0.1803086E+00
  0.8804013E-01 -0.5401632E-01  0.4843208E-01   0.9836101E+00 -0.6713988E-16  0.1803086E+00
  0.9949473E-01 -0.5401632E-01 -0.1405448E-01   0.9836101E+00 -0.6713988E-16  0.1803086E+00
  0.9949473E-01  0.5401632E-01 -0.1405448E-01   0.9836101E+00 -0.6713988E-16  0.1803086E+00
           4
 -0.9949473E-01  0.5401632E-01  0.1405448E-01  -0.9836101E+00 -0.3696156E-15 -0.1803086E+00
 -0.8804013E-01  0.5401632E-01 -0.4843208E-01  -0.9836101E+00 -0.3696156E-15 -0.1803086E+00
 -0.8804013E-01 -0.5401632E-01 -0.4843208E-01  -0.9836101E+00 -0.3696156E-15 -0.1803086E+00
 -0.9949473E-01 -0.5401632E-01  0.1405448E-01  -0.9836101E+00 -0.3696156E-15 -0.1803086E+00
           6
  0.9949473E-01  0.5401632E-01 -0.1405448E-01   0.0000000E+00  0.1000000E+01 -0.0000000E+00
  0.8804013E-01  0.5401632E-01 -0.4843208E-01   0.0000000E+00  0.1000000E+01 -0.0000000E+00
 -0.8804013E-01  0.5401632E-01 -0.4843208E-01   0.0000000E+00  0.1000000E+01 -0.0000000E+00
 -0.9949473E-01  0.5401632E-01  0.1405448E-01   0.0000000E+00  0.1000000E+01 -0.0000000E+00
 -0.8804013E-01  0.5401632E-01  0.4843208E-01   0.0000000E+00  0.1000000E+01 -0.0000000E+00
  0.8804013E-01  0.5401632E-01  0.4843208E-01   0.0000000E+00  0.1000000E+01 -0.0000000E+00
           4
 -0.8804013E-01 -0.5401632E-01  0.4843208E-01  -0.0000000E+00  0.3533358E-16  0.1000000E+01
  0.8804013E-01 -0.5401632E-01  0.4843208E-01  -0.0000000E+00  0.3533358E-16  0.1000000E+01
  0.8804013E-01  0.5401632E-01  0.4843208E-01  -0.0000000E+00  0.3533358E-16  0.1000000E+01
 -0.8804013E-01  0.5401632E-01  0.4843208E-01  -0.0000000E+00  0.3533358E-16  0.1000000E+01
           4
 -0.8804013E-01  0.5401632E-01  0.4843208E-01  -0.9487213E+00 -0.1052644E-15  0.3161137E+00
 -0.9949473E-01  0.5401632E-01  0.1405448E-01  -0.9487213E+00 -0.1052644E-15  0.3161137E+00
 -0.9949473E-01 -0.5401632E-01  0.1405448E-01  -0.9487213E+00 -0.1052644E-15  0.3161137E+00
 -0.8804013E-01 -0.5401632E-01  0.4843208E-01  -0.9487213E+00 -0.1052644E-15  0.3161137E+00
 BRILLOUIN-ZONE-CONVCELL_END
 ATOMS
   19    0.0000000000    4.4781964100    0.0000000000    0.0000000000    0.0000203800    0.0000000000
   19    2.6661708630    0.1197226320    0.0000000000    0.0000000000    0.0000090200    0.0000000000
   12   -0.9462385760    0.0403258880    5.1618684760    0.0000000000   -0.0000308300    0.0000000000
   12   -0.9462385760    3.0852543210    5.1618684760    0.0000000000    0.0000124600    0.0000000000
   12   -0.9462385760    6.1598880390    5.1618684760    0.0000000000    0.0000703100    0.0000000000
   12    1.7199322860    4.5622213680    5.1618684760    0.0000000000    0.0000054600    0.0000000000
   12    1.7199322860    7.7237915110    5.1618684760    0.0000000000   -0.0000113000    0.0000000000
   12    1.7199322860    1.5973125050    5.1618684760    0.0000000000    0.0000270000    0.0000000000
   14    0.0005319990    1.5249739120    2.3570249780   -0.0000029700   -0.0000159600   -0.0000325100
   14    3.4393325830    1.5249739120    7.9667121280    0.0000029700   -0.0000159600    0.0000325100
   14    3.5405878320    7.7195003590    7.9017356010   -0.0000045300   -0.0000226100   -0.0000085000
   14   -0.1007232220    7.7195003590    2.4220013500    0.0000045300   -0.0000226100    0.0000085000
   14    2.5621738700    6.1723706680    2.3998271250   -0.0000006900   -0.0000066400    0.0000078800
   14    0.8776909190    6.1723706680    7.9239095170    0.0000006900   -0.0000066400   -0.0000078800
   13    0.7685589620    3.0663270430    7.9454027840    0.0000041300   -0.0000125100    0.0000200300
   13    2.6713056110    3.0663270430    2.3783341680   -0.0000041300   -0.0000125100   -0.0000200300
    8   -0.0571826470    1.5164744880    3.9919083540   -0.0000251500    0.0000084100   -0.0000360800
    8    3.4970470270    1.5164744880    6.3318292170    0.0000251500    0.0000084100    0.0000360800
    8    3.5170872860    7.7106325890    6.2794638230    0.0000092600    0.0000115300   -0.0000198400
    8   -0.0772227130    7.7106325890    4.0442731280   -0.0000092600    0.0000115300    0.0000198400
    8    2.5904980390    6.1948886070    4.0292087490   -0.0000157200    0.0000201400    0.0000081800
    8    0.8493666940    6.1948886070    6.2945282030    0.0000157200    0.0000201400   -0.0000081800
    8    0.7903599170    3.0797678080    6.2109164140   -0.0000193900    0.0000186800    0.0000285200
    8    2.6495046560    3.0797678080    4.1128205370    0.0000193900    0.0000186800   -0.0000285200
    8    1.4704925900    1.9113310220    1.7675164980    0.0000035900   -0.0000124600    0.0000142900
    8    1.9693719080    1.9113310220    8.5562199890   -0.0000035900   -0.0000124600   -0.0000142900
    8    4.9985803570    9.2264827520    1.8051691980   -0.0000245300   -0.0000185500    0.0000102700
    8   -1.5587156780    9.2264827520    8.5185677530    0.0000245300   -0.0000185500   -0.0000102700
    8    2.1041106630    7.1524804650    8.5027317960   -0.0000084900    0.0000172200   -0.0000258000
    8    1.3357537220    7.1524804650    1.8210053100    0.0000084900    0.0000172200    0.0000258000
    8    3.9973527760    6.7977700220    1.8126987110   -0.0000182900   -0.0000004500    0.0000310500
    8   -0.5574882260    6.7977700220    8.5110379310    0.0000182900   -0.0000004500   -0.0000310500
    8    2.3461641020    4.7038364380    1.7479680970    0.0000017100   -0.0000219500    0.0000166900
    8    1.0937002540    4.7038364380    8.5757691640   -0.0000017100   -0.0000219500   -0.0000166900
    8   -0.7807615030    2.5246467370    8.6140628360    0.0000182500    0.0000075300   -0.0000436500
    8    4.2206263370    2.5246467370    1.7096739710   -0.0000182500    0.0000075300    0.0000436500
    8   -0.0562246200    4.6659777610    4.1038379110    0.0000035200    0.0000001700    0.0000112100
    8    3.4960894100    4.6659777610    6.2198987310   -0.0000035200    0.0000001700   -0.0000112100
    8    2.6141174720    9.2532789960    4.1391117420   -0.0000223000   -0.0000254800    0.0000106300
    8    0.8257472600    9.2532789960    6.1846252090    0.0000223000   -0.0000254800   -0.0000106300
    1   -0.0452577080    4.6012407090    3.1403531420    0.0000150200   -0.0000295500    0.0000221400
    1    3.4851223470    4.6012407090    7.1833841190   -0.0000150200   -0.0000295500   -0.0000221400
    1    2.5989815380    0.1156896100    3.1799141230    0.0000080100    0.0000312100    0.0000127700
    1    0.8408830910    0.1156896100    7.1438225180   -0.0000080100    0.0000312100   -0.0000127700
   19   -1.8924760120    4.4781964100   10.3237361940    0.0000000000    0.0000203800    0.0000000000
   19    0.7736948510    0.1197226320   10.3237361940    0.0000000000    0.0000090200    0.0000000000
   19    5.3323419060    4.4781964100    0.0000000000    0.0000000000    0.0000203800    0.0000000000
   12    4.3861033300    0.0403258880    5.1618684760    0.0000000000   -0.0000308300    0.0000000000
   12    4.3861033300    3.0852543210    5.1618684760    0.0000000000    0.0000124600    0.0000000000
   12    4.3861033300    6.1598880390    5.1618684760    0.0000000000    0.0000703100    0.0000000000
   19    3.4398658940    4.4781964100   10.3237361940    0.0000000000    0.0000203800    0.0000000000
 FRAMES
1      0.0000000000    0.0000000000    0.0000000000      5.3323419060    0.0000000000    0.0000000000
1      0.0000000000    0.0000000000    0.0000000000      0.0000000000    9.2564613070    0.0000000000
1      0.0000000000    0.0000000000    0.0000000000     -1.8924760120    0.0000000000   10.3237361940
1     -1.8924760120    0.0000000000   10.3237361940      3.4398658940    0.0000000000   10.3237361940
1     -1.8924760120    0.0000000000   10.3237361940     -1.8924760120    9.2564613070   10.3237361940
1      0.0000000000    9.2564613070    0.0000000000      5.3323419060    9.2564613070    0.0000000000
1      0.0000000000    9.2564613070    0.0000000000     -1.8924760120    9.2564613070   10.3237361940
1     -1.8924760120    9.2564613070   10.3237361940      3.4398658940    9.2564613070   10.3237361940
1      5.3323419060    0.0000000000    0.0000000000      5.3323419060    9.2564613070    0.0000000000
1      5.3323419060    0.0000000000    0.0000000000      3.4398658940    0.0000000000   10.3237361940
1      3.4398658940    0.0000000000   10.3237361940      3.4398658940    9.2564613070   10.3237361940
1      5.3323419060    9.2564613070    0.0000000000      3.4398658940    9.2564613070   10.3237361940
