
     Program PWSCF v.7.3.1 starts on 24May2025 at 11:48:32 

     This program is part of the open-source Quantum ESPRESSO suite
     for quantum simulation of materials; please cite
         "P. Giannozzi et al., J. Phys.:Condens. Matter 21 395502 (2009);
         "P. Giannozzi et al., J. Phys.:Condens. Matter 29 465901 (2017);
         "P. Giannozzi et al., J. Chem. Phys. 152 154105 (2020);
          URL http://www.quantum-espresso.org", 
     in publications or presentations arising from this work. More details at
     http://www.quantum-espresso.org/quote

     Parallel version (MPI), running on     6 processors

     MPI processes distributed on     1 nodes
     4079 MiB available memory on the printing compute node when the environment starts

     Reading input from vc_relax.in

     Current dimensions of program PWSCF are:
     Max number of different atomic species (ntypx) = 10
     Max number of k-points (npk) =  40000
     Max angular momentum in pseudopotentials (lmaxx) =  4
     file Al.pbe-n-kjpaw_psl.1.0.0.UPF: wavefunction(s)  3S 3P renormalized
     file H.pbe-kjpaw_psl.1.0.0.UPF: wavefunction(s)  1S renormalized
     file K.pbe-spn-kjpaw_psl.1.0.0.UPF: wavefunction(s)  3S renormalized
     file Mg.pbe-spnl-kjpaw_psl.1.0.0.UPF: wavefunction(s)  2P renormalized
     file O.pbe-n-kjpaw_psl.1.0.0.UPF: wavefunction(s)  2S 2P renormalized
     file Si.pbe-n-kjpaw_psl.1.0.0.UPF: wavefunction(s)  3S 3P renormalized

     R & G space division:  proc/nbgrp/npool/nimage =       6
     Subspace diagonalization in iterative solution of the eigenvalue problem:
     a serial algorithm will be used


     Parallelization info
     --------------------
     sticks:   dense  smooth     PW     G-vecs:    dense   smooth      PW
     Min        1200     600    163               110246    38994    5523
     Max        1201     601    164               110248    38995    5528
     Sum        7203    3603    981               661485   233967   33151

     Using Slab Decomposition



     bravais-lattice index     =          -12
     lattice parameter (alat)  =      10.0136  a.u.
     unit-cell volume          =    3303.4414 (a.u.)^3
     number of atoms/cell      =           44
     number of atomic types    =            6
     number of electrons       =       256.00
     number of Kohn-Sham states=          128
     kinetic-energy cutoff     =      65.0000  Ry
     charge density cutoff     =     520.0000  Ry
     scf convergence threshold =      1.0E-08
     mixing beta               =       0.7000
     number of iterations used =            8  plain     mixing
     energy convergence thresh.=      1.0E-05
     force convergence thresh. =      5.0E-04
     press convergence thresh. =      1.0E-01
     Exchange-correlation= SLA  PW   PBX  PBC
                           (   1   4   3   4   0   0   0)
     nstep                     =          100


     celldm(1)=  10.013640  celldm(2)=   1.735306  celldm(3)=   1.926511
     celldm(4)=   0.000000  celldm(5)=  -0.177565  celldm(6)=   0.000000

     crystal axes: (cart. coord. in units of alat)
               a(1) = (   1.000000   0.000000   0.000000 )  
               a(2) = (   0.000000   1.735306   0.000000 )  
               a(3) = (  -0.342081   0.000000   1.895896 )  

     reciprocal axes: (cart. coord. in units 2 pi/alat)
               b(1) = (  1.000000 -0.000000  0.180432 )  
               b(2) = (  0.000000  0.576267 -0.000000 )  
               b(3) = (  0.000000  0.000000  0.527455 )  


     PseudoPot. # 1 for Al read from file:
     ./../../pseudos/Al.pbe-n-kjpaw_psl.1.0.0.UPF
     MD5 check sum: 502b6b27b9c6270cab5dd1084b96fa6d
     Pseudo is Projector augmented-wave + core cor, Zval =  3.0
     Generated using &quot;atomic&quot; code by A. Dal Corso  v.6.3
     Shape of augmentation charge: PSQ
     Using radial grid of 1135 points,  6 beta functions with: 
                l(1) =   0
                l(2) =   0
                l(3) =   1
                l(4) =   1
                l(5) =   2
                l(6) =   2
     Q(r) pseudized with 0 coefficients 


     PseudoPot. # 2 for H  read from file:
     ./../../pseudos/H.pbe-kjpaw_psl.1.0.0.UPF
     MD5 check sum: d81a744832360e4a8af0b0b5b123bc2a
     Pseudo is Projector augmented-wave, Zval =  1.0
     Generated using &quot;atomic&quot; code by A. Dal Corso  v.6.3MaX
     Shape of augmentation charge: PSQ
     Using radial grid of  929 points,  2 beta functions with: 
                l(1) =   0
                l(2) =   0
     Q(r) pseudized with 0 coefficients 


     PseudoPot. # 3 for K  read from file:
     ./../../pseudos/K.pbe-spn-kjpaw_psl.1.0.0.UPF
     MD5 check sum: 34cc42130a09071ebe376fd42eb21491
     Pseudo is Projector augmented-wave + core cor, Zval =  9.0
     Generated using &quot;atomic&quot; code by A. Dal Corso  v.6.2.2
     Shape of augmentation charge: PSQ
     Using radial grid of 1165 points,  6 beta functions with: 
                l(1) =   0
                l(2) =   0
                l(3) =   1
                l(4) =   1
                l(5) =   2
                l(6) =   2
     Q(r) pseudized with 0 coefficients 


     PseudoPot. # 4 for Mg read from file:
     ./../../pseudos/Mg.pbe-spnl-kjpaw_psl.1.0.0.UPF
     MD5 check sum: fda14e0d92a6a9a5ebed782e5a4b3067
     Pseudo is Projector augmented-wave + core cor, Zval = 10.0
     Generated using &quot;atomic&quot; code by A. Dal Corso  v.6.3
     Shape of augmentation charge: PSQ
     Using radial grid of 1129 points,  4 beta functions with: 
                l(1) =   0
                l(2) =   0
                l(3) =   1
                l(4) =   1
     Q(r) pseudized with 0 coefficients 


     PseudoPot. # 5 for O  read from file:
     ./../../pseudos/O.pbe-n-kjpaw_psl.1.0.0.UPF
     MD5 check sum: e99d9cef9b487d1ca56f5b95ecd0fd7a
     Pseudo is Projector augmented-wave + core cor, Zval =  6.0
     Generated using &quot;atomic&quot; code by A. Dal Corso  v.6.3
     Shape of augmentation charge: PSQ
     Using radial grid of 1095 points,  4 beta functions with: 
                l(1) =   0
                l(2) =   0
                l(3) =   1
                l(4) =   1
     Q(r) pseudized with 0 coefficients 


     PseudoPot. # 6 for Si read from file:
     ./../../pseudos/Si.pbe-n-kjpaw_psl.1.0.0.UPF
     MD5 check sum: c39c59da582df4a0d9f10159256ea34e
     Pseudo is Projector augmented-wave + core cor, Zval =  4.0
     Generated using &quot;atomic&quot; code by A. Dal Corso  v.6.3
     Shape of augmentation charge: PSQ
     Using radial grid of 1141 points,  6 beta functions with: 
                l(1) =   0
                l(2) =   0
                l(3) =   1
                l(4) =   1
                l(5) =   2
                l(6) =   2
     Q(r) pseudized with 0 coefficients 


     atomic species   valence    mass     pseudopotential
     Al                3.00    26.98154     Al( 1.00)
     H                 1.00     1.00794     H ( 1.00)
     K                 9.00    39.09830     K ( 1.00)
     Mg               10.00    24.30500     Mg( 1.00)
     O                 6.00    15.99940     O ( 1.00)
     Si                4.00    28.08550     Si( 1.00)

      2 Sym. Ops. (no inversion) found


                                    s                        frac. trans.

      isym =  1     identity                                     

 cryst.   s( 1) = (     1          0          0      )
                  (     0          1          0      )
                  (     0          0          1      )

 cart.    s( 1) = (  1.0000000  0.0000000 -0.0000000 )
                  (  0.0000000  1.0000000  0.0000000 )
                  (  0.0000000  0.0000000  1.0000000 )


      isym =  2     180 deg rotation - cart. axis [0,1,0]        

 cryst.   s( 2) = (    -1          0          0      )
                  (     0          1          0      )
                  (     0          0         -1      )

 cart.    s( 2) = ( -1.0000000  0.0000000  0.0000000 )
                  (  0.0000000  1.0000000  0.0000000 )
                  (  0.0000000  0.0000000 -1.0000000 )


     point group C_2  (2)   
     there are  2 classes
     the character table:

       E     C2   
A      1.00  1.00
B      1.00 -1.00

     the symmetry operations in each class and the name of the first element:

     E        1
          identity                                               
     C2       2
          180 deg rotation - cart. axis [0,1,0]                  

   Cartesian axes

     site n.     atom                  positions (alat units)
         1        K      tau(   1) = (   0.0000000   0.8574387   0.0000000  )
         2        K      tau(   2) = (   0.5000000   0.0040962   0.0000000  )
         3        Mg     tau(   3) = (  -0.1710407   0.0076343   0.9479482  )
         4        Mg     tau(   4) = (  -0.1710407   0.5784165   0.9479482  )
         5        Mg     tau(   5) = (  -0.1710407   1.1545535   0.9479482  )
         6        Mg     tau(   6) = (   0.3289593   0.8554743   0.9479482  )
         7        Mg     tau(   7) = (   0.3289593   1.4485893   0.9479482  )
         8        Mg     tau(   8) = (   0.3289593   0.2990799   0.9479482  )
         9        Si     tau(   9) = (   0.0080051   0.2864614   0.4210997  )
        10        Si     tau(  10) = (   0.6499135   0.2864614   1.4747968  )
        11        Si     tau(  11) = (   0.6715793   1.4478090   1.4625699  )
        12        Si     tau(  12) = (  -0.0136605   1.4478090   0.4333265  )
        13        Si     tau(  13) = (   0.4856518   1.1564173   0.4294170  )
        14        Si     tau(  14) = (   0.1722670   1.1564173   1.4664794  )
        15        Al     tau(  15) = (   0.1493529   0.5742774   1.4715621  )
        16        Al     tau(  16) = (   0.5085658   0.5742774   0.4243343  )
        17        O      tau(  17) = (  -0.0040177   0.2842465   0.7290176  )
        18        O      tau(  18) = (   0.6619363   0.2842465   1.1668789  )
        19        O      tau(  19) = (   0.6662769   1.4458882   1.1572444  )
        20        O      tau(  20) = (  -0.0083582   1.4458882   0.7386520  )
        21        O      tau(  21) = (   0.4920583   1.1610800   0.7360613  )
        22        O      tau(  22) = (   0.1658604   1.1610800   1.1598351  )
        23        O      tau(  23) = (   0.1544948   0.5776785   1.1451105  )
        24        O      tau(  24) = (   0.5034239   0.5776785   0.7507859  )
        25        O      tau(  25) = (   0.2882705   0.3495372   0.3126384  )
        26        O      tau(  26) = (   0.3696483   0.3495372   1.5832580  )
        27        O      tau(  27) = (   0.9370462   1.7306290   0.3171480  )
        28        O      tau(  28) = (  -0.2791275   1.7306290   1.5787483  )
        29        O      tau(  29) = (   0.3994499   1.3453682   1.5761443  )
        30        O      tau(  30) = (   0.2584688   1.3453682   0.3197521  )
        31        O      tau(  31) = (   0.7575892   1.2696419   0.3179629  )
        32        O      tau(  32) = (  -0.0996705   1.2696419   1.5779335  )
        33        O      tau(  33) = (   0.4395390   0.8809890   0.3064248  )
        34        O      tau(  34) = (   0.2183796   0.8809890   1.5894716  )
        35        O      tau(  35) = (  -0.1464761   0.4819478   1.5949252  )
        36        O      tau(  36) = (   0.8043948   0.4819478   0.3009711  )
        37        O      tau(  37) = (  -0.0042927   0.8748293   0.7472332  )
        38        O      tau(  38) = (   0.6622114   0.8748293   1.1486632  )
        39        O      tau(  39) = (   0.4965245   1.7343632   0.7537308  )
        40        O      tau(  40) = (   0.1613942   1.7343632   1.1421655  )
        41        H      tau(  41) = (  -0.0028331   0.8575108   0.5659390  )
        42        H      tau(  42) = (   0.6607519   0.8575108   1.3299574  )
        43        H      tau(  43) = (   0.4911078   0.0270477   0.5736230  )
        44        H      tau(  44) = (   0.1668109   0.0270477   1.3222734  )

     --------------------------------------------
     DFT-D3 Dispersion Correction (3-body terms):
     --------------------------------------------
       Reference C6 values for interpolation: 

         atom   Coordination number   C6
         H          0.912             6.05
         H          0.000            15.18
         O          0.000            31.01
         O          0.993            25.63
         O          1.989            20.74
         Mg         0.000          1366.75
         Mg         0.963           902.54
         Mg         1.950           351.12
         Al         0.000          1081.08
         Al         0.965           875.51
         Al         1.931           513.50
         Al         2.915           307.19
         Si         0.000           635.71
         Si         0.951           540.53
         Si         1.944           466.25
         Si         2.941           443.01
         Si         3.868           299.55
         K          0.000          9967.00
         K          0.977           676.04

       Values used:

         atom   Coordination number  R0_AB[au]  C6      C8
         K         13.652            4.007    676.04 129074.98
         K         13.876            4.007    676.04 129074.98
         Mg        11.855            3.292    351.12  31436.69
         Mg        12.222            3.292    351.12  31436.69
         Mg        11.787            3.292    351.12  31436.69
         Mg        12.072            3.292    351.12  31436.69
         Mg        11.745            3.292    351.12  31436.69
         Mg        12.244            3.292    351.12  31436.69
         Si         6.941            3.583    299.55  21425.58
         Si         6.941            3.583    299.55  21425.58
         Si         6.571            3.583    299.55  21425.58
         Si         6.571            3.583    299.55  21425.58
         Si         6.619            3.583    299.55  21425.58
         Si         6.619            3.583    299.55  21425.58
         Al         7.841            3.789    307.19  29441.29
         Al         7.841            3.789    307.19  29441.29
         O          3.929            2.345     20.74    418.58
         O          3.929            2.345     20.74    418.58
         O          3.930            2.345     20.74    418.58
         O          3.930            2.345     20.74    418.58
         O          3.913            2.345     20.74    418.58
         O          3.913            2.345     20.74    418.58
         O          3.993            2.345     20.74    418.58
         O          3.993            2.345     20.74    418.58
         O          3.175            2.345     20.74    418.58
         O          3.175            2.345     20.74    418.58
         O          3.157            2.345     20.74    418.58
         O          3.157            2.345     20.74    418.58
         O          3.087            2.345     20.74    418.58
         O          3.087            2.345     20.74    418.58
         O          3.092            2.345     20.74    418.58
         O          3.092            2.345     20.74    418.58
         O          3.195            2.345     20.74    418.58
         O          3.195            2.345     20.74    418.58
         O          3.237            2.345     20.74    418.58
         O          3.237            2.345     20.74    418.58
         O          4.005            2.345     20.74    418.58
         O          4.005            2.345     20.74    418.58
         O          4.003            2.345     20.74    418.58
         O          4.003            2.345     20.74    418.58
         H          1.326            2.062      6.07     73.32
         H          1.326            2.062      6.07     73.32
         H          1.301            2.062      6.07     73.35
         H          1.301            2.062      6.07     73.35

         Molecular C6 ( Ry / a.u.^6 ) =    168240.93


   Crystallographic axes

     site n.     atom                  positions (cryst. coord.)
         1        K      tau(   1) = (  0.0000000  0.4941138  0.0000000  )
         2        K      tau(   2) = (  0.5000000  0.0023605  0.0000000  )
         3        Mg     tau(   3) = (  0.0000000  0.0043994  0.5000000  )
         4        Mg     tau(   4) = (  0.0000000  0.3333224  0.5000000  )
         5        Mg     tau(   5) = (  0.0000000  0.6653313  0.5000000  )
         6        Mg     tau(   6) = (  0.5000000  0.4929818  0.5000000  )
         7        Mg     tau(   7) = (  0.5000000  0.8347745  0.5000000  )
         8        Mg     tau(   8) = (  0.5000000  0.1723500  0.5000000  )
         9        Si     tau(   9) = (  0.0839852  0.1650783  0.2221111  )
        10        Si     tau(  10) = (  0.9160148  0.1650783  0.7778889  )
        11        Si     tau(  11) = (  0.9354744  0.8343248  0.7714398  )
        12        Si     tau(  12) = (  0.0645256  0.8343248  0.2285602  )
        13        Si     tau(  13) = (  0.5631325  0.6664053  0.2264981  )
        14        Si     tau(  14) = (  0.4368675  0.6664053  0.7735019  )
        15        Al     tau(  15) = (  0.4148705  0.3309372  0.7761828  )
        16        Al     tau(  16) = (  0.5851295  0.3309372  0.2238172  )
        17        O      tau(  17) = (  0.1275208  0.1638019  0.3845240  )
        18        O      tau(  18) = (  0.8724791  0.1638019  0.6154761  )
        19        O      tau(  19) = (  0.8750814  0.8332179  0.6103943  )
        20        O      tau(  20) = (  0.1249186  0.8332179  0.3896057  )
        21        O      tau(  21) = (  0.6248677  0.6690923  0.3882392  )
        22        O      tau(  22) = (  0.3751323  0.6690923  0.6117608  )
        23        O      tau(  23) = (  0.3611099  0.3328972  0.6039943  )
        24        O      tau(  24) = (  0.6388901  0.3328972  0.3960058  )
        25        O      tau(  25) = (  0.3446806  0.2014268  0.1649027  )
        26        O      tau(  26) = (  0.6553195  0.2014268  0.8350973  )
        27        O      tau(  27) = (  0.9942700  0.9973047  0.1672813  )
        28        O      tau(  28) = (  0.0057300  0.9973047  0.8327187  )
        29        O      tau(  29) = (  0.6838375  0.7752916  0.8313451  )
        30        O      tau(  30) = (  0.3161625  0.7752916  0.1686548  )
        31        O      tau(  31) = (  0.8149600  0.7316530  0.1677111  )
        32        O      tau(  32) = (  0.1850400  0.7316530  0.8322889  )
        33        O      tau(  33) = (  0.4948280  0.5076851  0.1616253  )
        34        O      tau(  34) = (  0.5051720  0.5076851  0.8383747  )
        35        O      tau(  35) = (  0.1413002  0.2777307  0.8412513  )
        36        O      tau(  36) = (  0.8586998  0.2777307  0.1587487  )
        37        O      tau(  37) = (  0.1305325  0.5041354  0.3941319  )
        38        O      tau(  38) = (  0.8694676  0.5041354  0.6058681  )
        39        O      tau(  39) = (  0.6325220  0.9994566  0.3975590  )
        40        O      tau(  40) = (  0.3674780  0.9994566  0.6024409  )
        41        H      tau(  41) = (  0.0992806  0.4941553  0.2985074  )
        42        H      tau(  42) = (  0.9007194  0.4941553  0.7014927  )
        43        H      tau(  43) = (  0.5946080  0.0155867  0.3025603  )
        44        H      tau(  44) = (  0.4053920  0.0155867  0.6974397  )

     number of k points=    20
                       cart. coord. in units 2pi/alat
        k(    1) = (   0.0000000   0.0000000   0.0000000), wk =   0.0370370
        k(    2) = (   0.0000000   0.0000000   0.1758183), wk =   0.0740741
        k(    3) = (   0.0000000   0.1920891   0.0000000), wk =   0.0740741
        k(    4) = (   0.0000000   0.1920891   0.1758183), wk =   0.1481481
        k(    5) = (   0.1666667   0.0000000   0.0300721), wk =   0.0740741
        k(    6) = (   0.1666667   0.0000000   0.2058904), wk =   0.0740741
        k(    7) = (   0.1666667   0.0000000  -0.1457462), wk =   0.0740741
        k(    8) = (   0.1666667   0.1920891   0.0300721), wk =   0.1481481
        k(    9) = (   0.1666667   0.1920891   0.2058904), wk =   0.1481481
        k(   10) = (   0.1666667   0.1920891  -0.1457462), wk =   0.1481481
        k(   11) = (   0.3333333   0.0000000   0.0601442), wk =   0.0740741
        k(   12) = (   0.3333333   0.0000000   0.2359625), wk =   0.0740741
        k(   13) = (   0.3333333   0.0000000  -0.1156742), wk =   0.0740741
        k(   14) = (   0.3333333   0.1920891   0.0601442), wk =   0.1481481
        k(   15) = (   0.3333333   0.1920891   0.2359625), wk =   0.1481481
        k(   16) = (   0.3333333   0.1920891  -0.1156742), wk =   0.1481481
        k(   17) = (  -0.5000000   0.0000000  -0.0902162), wk =   0.0370370
        k(   18) = (  -0.5000000   0.0000000   0.0856021), wk =   0.0740741
        k(   19) = (  -0.5000000   0.1920891  -0.0902162), wk =   0.0740741
        k(   20) = (  -0.5000000   0.1920891   0.0856021), wk =   0.1481481

                       cryst. coord.
        k(    1) = (   0.0000000   0.0000000   0.0000000), wk =   0.0370370
        k(    2) = (   0.0000000   0.0000000   0.3333333), wk =   0.0740741
        k(    3) = (   0.0000000   0.3333333   0.0000000), wk =   0.0740741
        k(    4) = (   0.0000000   0.3333333   0.3333333), wk =   0.1481481
        k(    5) = (   0.1666667   0.0000000  -0.0000000), wk =   0.0740741
        k(    6) = (   0.1666667   0.0000000   0.3333333), wk =   0.0740741
        k(    7) = (   0.1666667   0.0000000  -0.3333333), wk =   0.0740741
        k(    8) = (   0.1666667   0.3333333  -0.0000000), wk =   0.1481481
        k(    9) = (   0.1666667   0.3333333   0.3333333), wk =   0.1481481
        k(   10) = (   0.1666667   0.3333333  -0.3333333), wk =   0.1481481
        k(   11) = (   0.3333333   0.0000000  -0.0000000), wk =   0.0740741
        k(   12) = (   0.3333333   0.0000000   0.3333333), wk =   0.0740741
        k(   13) = (   0.3333333   0.0000000  -0.3333333), wk =   0.0740741
        k(   14) = (   0.3333333   0.3333333  -0.0000000), wk =   0.1481481
        k(   15) = (   0.3333333   0.3333333   0.3333333), wk =   0.1481481
        k(   16) = (   0.3333333   0.3333333  -0.3333333), wk =   0.1481481
        k(   17) = (  -0.5000000   0.0000000   0.0000000), wk =   0.0370370
        k(   18) = (  -0.5000000   0.0000000   0.3333333), wk =   0.0740741
        k(   19) = (  -0.5000000   0.3333333   0.0000000), wk =   0.0740741
        k(   20) = (  -0.5000000   0.3333333   0.3333333), wk =   0.1481481

     Dense  grid:   661485 G-vectors     FFT dimensions: (  75, 128, 144)

     Smooth grid:   233967 G-vectors     FFT dimensions: (  54,  90, 100)

     Dynamical RAM for                 wfc:       9.52 MB

     Dynamical RAM for     wfc (w. buffer):     199.83 MB

     Dynamical RAM for           str. fact:      10.09 MB

     Dynamical RAM for           local pot:       0.00 MB

     Dynamical RAM for          nlocal pot:      31.82 MB

     Dynamical RAM for                qrad:      21.96 MB

     Dynamical RAM for          rho,v,vnew:      10.32 MB

     Dynamical RAM for               rhoin:       3.44 MB

     Dynamical RAM for            rho*nmix:      26.92 MB

     Dynamical RAM for           G-vectors:       6.61 MB

     Dynamical RAM for          h,s,v(r/c):       3.00 MB

     Dynamical RAM for          <psi|beta>:       0.84 MB

     Dynamical RAM for                 psi:      19.03 MB

     Dynamical RAM for                hpsi:      19.03 MB

     Dynamical RAM for                spsi:      19.03 MB

     Dynamical RAM for      wfcinit/wfcrot:      27.19 MB

     Dynamical RAM for           addusdens:     353.27 MB

     Dynamical RAM for          addusforce:     431.59 MB

     Dynamical RAM for         addusstress:     338.13 MB

     Estimated static dynamical RAM per process >     304.63 MB

     Estimated max dynamical RAM per process >     763.13 MB

     Estimated total dynamical RAM >       4.47 GB

     Check: negative core charge=   -0.000003

     Initial potential from superposition of free atoms

     starting charge     255.9488, renormalised to     256.0000
     Starting wfcs are  178 randomized atomic wfcs
     Checking if some PAW data can be deallocated... 
       PAW data deallocated on    5 nodes for type:  1
       PAW data deallocated on    5 nodes for type:  2
       PAW data deallocated on    5 nodes for type:  3
       PAW data deallocated on    5 nodes for type:  4
       PAW data deallocated on    2 nodes for type:  5
       PAW data deallocated on    5 nodes for type:  6

     total cpu time spent up to now is       89.3 secs

     Self-consistent Calculation

     iteration #  1     ecut=    65.00 Ry     beta= 0.70
     Davidson diagonalization with overlap

---- Real-time Memory Report at c_bands before calling an iterative solver
           436 MiB given to the printing process from OS
             0 MiB allocation reported by mallinfo(arena+hblkhd)
          1971 MiB available memory on the node where the printing process lives
------------------
     ethr =  1.00E-02,  avg # of iterations =  2.0

     total cpu time spent up to now is      283.7 secs

     total energy              =   -2435.66388377 Ry
     estimated scf accuracy    <      12.78840025 Ry

     iteration #  2     ecut=    65.00 Ry     beta= 0.70
     Davidson diagonalization with overlap

---- Real-time Memory Report at c_bands before calling an iterative solver
           687 MiB given to the printing process from OS
             0 MiB allocation reported by mallinfo(arena+hblkhd)
          1866 MiB available memory on the node where the printing process lives
------------------
     ethr =  5.00E-03,  avg # of iterations =  5.0

     total cpu time spent up to now is      628.7 secs

     total energy              =   -2442.12656726 Ry
     estimated scf accuracy    <       9.99746880 Ry

     iteration #  3     ecut=    65.00 Ry     beta= 0.70
     Davidson diagonalization with overlap

---- Real-time Memory Report at c_bands before calling an iterative solver
           689 MiB given to the printing process from OS
             0 MiB allocation reported by mallinfo(arena+hblkhd)
          1817 MiB available memory on the node where the printing process lives
------------------
     ethr =  3.91E-03,  avg # of iterations =  2.0

     total cpu time spent up to now is      813.0 secs

     total energy              =   -2441.30592439 Ry
     estimated scf accuracy    <       2.33064166 Ry

     iteration #  4     ecut=    65.00 Ry     beta= 0.70
     Davidson diagonalization with overlap

---- Real-time Memory Report at c_bands before calling an iterative solver
           690 MiB given to the printing process from OS
             0 MiB allocation reported by mallinfo(arena+hblkhd)
          1818 MiB available memory on the node where the printing process lives
------------------
     ethr =  9.10E-04,  avg # of iterations =  7.7

     total cpu time spent up to now is     1300.0 secs

     total energy              =   -2443.86217159 Ry
     estimated scf accuracy    <       2.74391788 Ry

     iteration #  5     ecut=    65.00 Ry     beta= 0.70
     Davidson diagonalization with overlap

---- Real-time Memory Report at c_bands before calling an iterative solver
           691 MiB given to the printing process from OS
             0 MiB allocation reported by mallinfo(arena+hblkhd)
          1768 MiB available memory on the node where the printing process lives
------------------
     ethr =  9.10E-04,  avg # of iterations =  1.0

     total cpu time spent up to now is     1452.4 secs

     total energy              =   -2443.25232378 Ry
     estimated scf accuracy    <       1.49593453 Ry

     iteration #  6     ecut=    65.00 Ry     beta= 0.70
     Davidson diagonalization with overlap

---- Real-time Memory Report at c_bands before calling an iterative solver
           693 MiB given to the printing process from OS
             0 MiB allocation reported by mallinfo(arena+hblkhd)
          1949 MiB available memory on the node where the printing process lives
------------------
     ethr =  5.84E-04,  avg # of iterations =  4.3

     total cpu time spent up to now is     1686.9 secs

     total energy              =   -2443.56596053 Ry
     estimated scf accuracy    <       0.09884574 Ry

     iteration #  7     ecut=    65.00 Ry     beta= 0.70
     Davidson diagonalization with overlap

---- Real-time Memory Report at c_bands before calling an iterative solver
           694 MiB given to the printing process from OS
             0 MiB allocation reported by mallinfo(arena+hblkhd)
          2054 MiB available memory on the node where the printing process lives
------------------
     ethr =  3.86E-05,  avg # of iterations =  7.2

     total cpu time spent up to now is     2112.0 secs

     total energy              =   -2443.71449664 Ry
     estimated scf accuracy    <       0.00899177 Ry

     iteration #  8     ecut=    65.00 Ry     beta= 0.70
     Davidson diagonalization with overlap

---- Real-time Memory Report at c_bands before calling an iterative solver
           695 MiB given to the printing process from OS
             0 MiB allocation reported by mallinfo(arena+hblkhd)
          1967 MiB available memory on the node where the printing process lives
------------------
     ethr =  3.51E-06,  avg # of iterations =  7.9

     total cpu time spent up to now is     2474.3 secs

     total energy              =   -2443.71405722 Ry
     estimated scf accuracy    <       0.01526609 Ry

     iteration #  9     ecut=    65.00 Ry     beta= 0.70
     Davidson diagonalization with overlap

---- Real-time Memory Report at c_bands before calling an iterative solver
           696 MiB given to the printing process from OS
             0 MiB allocation reported by mallinfo(arena+hblkhd)
          1624 MiB available memory on the node where the printing process lives
------------------
     ethr =  3.51E-06,  avg # of iterations =  2.1

     total cpu time spent up to now is     2669.8 secs

     total energy              =   -2443.71187255 Ry
     estimated scf accuracy    <       0.00469147 Ry

     iteration # 10     ecut=    65.00 Ry     beta= 0.70
     Davidson diagonalization with overlap

---- Real-time Memory Report at c_bands before calling an iterative solver
           698 MiB given to the printing process from OS
             0 MiB allocation reported by mallinfo(arena+hblkhd)
          1944 MiB available memory on the node where the printing process lives
------------------
     ethr =  1.83E-06,  avg # of iterations =  7.6

     total cpu time spent up to now is     3150.3 secs

     total energy              =   -2443.71627361 Ry
     estimated scf accuracy    <       0.00493618 Ry

     iteration # 11     ecut=    65.00 Ry     beta= 0.70
     Davidson diagonalization with overlap

---- Real-time Memory Report at c_bands before calling an iterative solver
           698 MiB given to the printing process from OS
             0 MiB allocation reported by mallinfo(arena+hblkhd)
          1795 MiB available memory on the node where the printing process lives
------------------
     ethr =  1.83E-06,  avg # of iterations =  1.1

     total cpu time spent up to now is     3306.2 secs

     total energy              =   -2443.71447727 Ry
     estimated scf accuracy    <       0.00259329 Ry

     iteration # 12     ecut=    65.00 Ry     beta= 0.70
     Davidson diagonalization with overlap

---- Real-time Memory Report at c_bands before calling an iterative solver
           698 MiB given to the printing process from OS
             0 MiB allocation reported by mallinfo(arena+hblkhd)
          1915 MiB available memory on the node where the printing process lives
------------------
     ethr =  1.01E-06,  avg # of iterations =  6.5

     total cpu time spent up to now is     3709.6 secs

     total energy              =   -2443.71580671 Ry
     estimated scf accuracy    <       0.00250436 Ry

     iteration # 13     ecut=    65.00 Ry     beta= 0.70
     Davidson diagonalization with overlap

---- Real-time Memory Report at c_bands before calling an iterative solver
           698 MiB given to the printing process from OS
             0 MiB allocation reported by mallinfo(arena+hblkhd)
          1981 MiB available memory on the node where the printing process lives
------------------
     ethr =  9.78E-07,  avg # of iterations =  2.0

     total cpu time spent up to now is     3891.5 secs

     total energy              =   -2443.71571369 Ry
     estimated scf accuracy    <       0.00060490 Ry

     iteration # 14     ecut=    65.00 Ry     beta= 0.70
     Davidson diagonalization with overlap

---- Real-time Memory Report at c_bands before calling an iterative solver
           698 MiB given to the printing process from OS
             0 MiB allocation reported by mallinfo(arena+hblkhd)
          1825 MiB available memory on the node where the printing process lives
------------------
     ethr =  2.36E-07,  avg # of iterations =  5.3

     total cpu time spent up to now is     4228.1 secs

     total energy              =   -2443.71623543 Ry
     estimated scf accuracy    <       0.00007431 Ry

     iteration # 15     ecut=    65.00 Ry     beta= 0.70
     Davidson diagonalization with overlap

---- Real-time Memory Report at c_bands before calling an iterative solver
           698 MiB given to the printing process from OS
             0 MiB allocation reported by mallinfo(arena+hblkhd)
          1994 MiB available memory on the node where the printing process lives
------------------
     ethr =  2.90E-08,  avg # of iterations =  8.5

     total cpu time spent up to now is     4602.8 secs

     total energy              =   -2443.71612575 Ry
     estimated scf accuracy    <       0.00024724 Ry

     iteration # 16     ecut=    65.00 Ry     beta= 0.70
     Davidson diagonalization with overlap

---- Real-time Memory Report at c_bands before calling an iterative solver
           698 MiB given to the printing process from OS
             0 MiB allocation reported by mallinfo(arena+hblkhd)
          1730 MiB available memory on the node where the printing process lives
------------------
     ethr =  2.90E-08,  avg # of iterations =  8.2

     total cpu time spent up to now is     5107.1 secs

     total energy              =   -2443.71620610 Ry
     estimated scf accuracy    <       0.00002370 Ry

     iteration # 17     ecut=    65.00 Ry     beta= 0.70
     Davidson diagonalization with overlap

---- Real-time Memory Report at c_bands before calling an iterative solver
           698 MiB given to the printing process from OS
             0 MiB allocation reported by mallinfo(arena+hblkhd)
          1800 MiB available memory on the node where the printing process lives
------------------
     ethr =  9.26E-09,  avg # of iterations =  3.8

     total cpu time spent up to now is     5301.3 secs

     total energy              =   -2443.71620209 Ry
     estimated scf accuracy    <       0.00001539 Ry

     iteration # 18     ecut=    65.00 Ry     beta= 0.70
     Davidson diagonalization with overlap

---- Real-time Memory Report at c_bands before calling an iterative solver
           698 MiB given to the printing process from OS
             0 MiB allocation reported by mallinfo(arena+hblkhd)
          1842 MiB available memory on the node where the printing process lives
------------------
     ethr =  6.01E-09,  avg # of iterations =  4.5

     total cpu time spent up to now is     5526.0 secs

     total energy              =   -2443.71620535 Ry
     estimated scf accuracy    <       0.00000155 Ry

     iteration # 19     ecut=    65.00 Ry     beta= 0.70
     Davidson diagonalization with overlap

---- Real-time Memory Report at c_bands before calling an iterative solver
           698 MiB given to the printing process from OS
             0 MiB allocation reported by mallinfo(arena+hblkhd)
          1929 MiB available memory on the node where the printing process lives
------------------
     ethr =  6.04E-10,  avg # of iterations = 12.4

     total cpu time spent up to now is     6128.1 secs

     total energy              =   -2443.71620810 Ry
     estimated scf accuracy    <       0.00000013 Ry

     iteration # 20     ecut=    65.00 Ry     beta= 0.70
     Davidson diagonalization with overlap

---- Real-time Memory Report at c_bands before calling an iterative solver
           698 MiB given to the printing process from OS
             0 MiB allocation reported by mallinfo(arena+hblkhd)
          1753 MiB available memory on the node where the printing process lives
------------------
     ethr =  5.23E-11,  avg # of iterations = 10.8

     total cpu time spent up to now is     6616.1 secs

     total energy              =   -2443.71620837 Ry
     estimated scf accuracy    <       0.00000025 Ry

     iteration # 21     ecut=    65.00 Ry     beta= 0.70
     Davidson diagonalization with overlap

---- Real-time Memory Report at c_bands before calling an iterative solver
           698 MiB given to the printing process from OS
             0 MiB allocation reported by mallinfo(arena+hblkhd)
          1723 MiB available memory on the node where the printing process lives
------------------
     ethr =  5.23E-11,  avg # of iterations =  5.7

     total cpu time spent up to now is     6918.8 secs

     total energy              =   -2443.71620827 Ry
     estimated scf accuracy    <       0.00000064 Ry

     iteration # 22     ecut=    65.00 Ry     beta= 0.70
     Davidson diagonalization with overlap

---- Real-time Memory Report at c_bands before calling an iterative solver
           698 MiB given to the printing process from OS
             0 MiB allocation reported by mallinfo(arena+hblkhd)
          1954 MiB available memory on the node where the printing process lives
------------------
     ethr =  5.23E-11,  avg # of iterations =  1.9

     total cpu time spent up to now is     7095.6 secs

     total energy              =   -2443.71620810 Ry
     estimated scf accuracy    <       0.00000042 Ry

     iteration # 23     ecut=    65.00 Ry     beta= 0.70
     Davidson diagonalization with overlap

---- Real-time Memory Report at c_bands before calling an iterative solver
           698 MiB given to the printing process from OS
             0 MiB allocation reported by mallinfo(arena+hblkhd)
          1835 MiB available memory on the node where the printing process lives
------------------
     ethr =  5.23E-11,  avg # of iterations =  5.4

     total cpu time spent up to now is     7399.4 secs

     total energy              =   -2443.71620815 Ry
     estimated scf accuracy    <       0.00000004 Ry

     iteration # 24     ecut=    65.00 Ry     beta= 0.70
     Davidson diagonalization with overlap

---- Real-time Memory Report at c_bands before calling an iterative solver
           698 MiB given to the printing process from OS
             0 MiB allocation reported by mallinfo(arena+hblkhd)
          1770 MiB available memory on the node where the printing process lives
------------------
     ethr =  1.73E-11,  avg # of iterations =  4.9

     total cpu time spent up to now is     7674.5 secs

     End of self-consistent calculation

          k = 0.0000 0.0000 0.0000 ( 29219 PWs)   bands (ev):

   -67.7098 -67.7048 -67.5872 -67.2149 -67.1228 -67.1120 -34.4895 -34.4696
   -34.4644 -34.4591 -34.4513 -34.4470 -34.3539 -34.3509 -34.3240 -33.9761
   -33.9709 -33.9682 -33.8995 -33.8967 -33.8831 -33.8638 -33.8547 -33.8399
   -23.1273 -23.1031 -15.2033 -15.1494 -14.2591 -14.2131 -13.7505 -13.7265
   -13.5094 -13.3990 -13.3642 -13.1755 -12.9592 -12.9470 -12.9318 -12.9254
   -12.8664 -12.7727 -12.6136 -12.5405 -12.4020 -12.3811 -12.3383 -12.2148
   -11.2225 -10.9806  -6.7002  -6.6717  -6.6245  -6.6164  -6.5840  -6.5800
    -4.3975  -4.3378  -2.5221  -2.4228  -1.9252  -1.4228  -1.2610  -1.2514
    -1.2067  -1.1129  -0.7561  -0.6888  -0.5711  -0.4776  -0.4680  -0.2776
    -0.0839  -0.0125   0.1281   0.3644   0.4737   0.4942   0.5677   0.7590
     0.7769   1.0202   1.1956   1.2261   1.2776   1.4046   1.4315   1.5545
     1.7352   1.7584   1.8793   1.9678   1.9928   2.1256   2.1297   2.2121
     2.3267   2.3703   2.5117   2.5513   2.6032   2.6330   2.7409   2.7846
     2.7937   2.8857   2.9051   2.9870   3.1128   3.1688   3.2205   3.2954
     3.3374   3.3753   3.4636   3.4686   3.5493   3.6432   3.6943   3.7069
     3.7635   3.8155   3.8165   4.0024   4.0107   4.1907   4.3607   4.4648

     occupation numbers 
     1.0000   1.0000   1.0000   1.0000   1.0000   1.0000   1.0000   1.0000
     1.0000   1.0000   1.0000   1.0000   1.0000   1.0000   1.0000   1.0000
     1.0000   1.0000   1.0000   1.0000   1.0000   1.0000   1.0000   1.0000
     1.0000   1.0000   1.0000   1.0000   1.0000   1.0000   1.0000   1.0000
     1.0000   1.0000   1.0000   1.0000   1.0000   1.0000   1.0000   1.0000
     1.0000   1.0000   1.0000   1.0000   1.0000   1.0000   1.0000   1.0000
     1.0000   1.0000   1.0000   1.0000   1.0000   1.0000   1.0000   1.0000
     1.0000   1.0000   1.0000   1.0000   1.0000   1.0000   1.0000   1.0000
     1.0000   1.0000   1.0000   1.0000   1.0000   1.0000   1.0000   1.0000
     1.0000   1.0000   1.0000   1.0000   1.0000   1.0000   1.0000   1.0000
     1.0000   1.0000   1.0000   1.0000   1.0000   1.0000   1.0000   1.0000
     1.0000   1.0000   1.0000   1.0000   1.0000   1.0000   1.0000   1.0000
     1.0000   1.0000   1.0000   1.0000   1.0000   1.0000   1.0000   1.0000
     1.0000   1.0000   1.0000   1.0000   1.0000   1.0000   1.0000   1.0000
     1.0000   1.0000   1.0000   1.0000   1.0000   1.0000   1.0000   1.0000
     1.0000   1.0000   1.0000   1.0000   1.0000   1.0000   1.0000   1.0000

          k = 0.0000 0.0000 0.1758 ( 29216 PWs)   bands (ev):

   -67.7098 -67.7048 -67.5872 -67.2149 -67.1228 -67.1120 -34.4895 -34.4696
   -34.4644 -34.4591 -34.4513 -34.4470 -34.3540 -34.3509 -34.3240 -33.9761
   -33.9709 -33.9681 -33.8996 -33.8967 -33.8831 -33.8638 -33.8548 -33.8399
   -23.1273 -23.1031 -15.1904 -15.1632 -14.2482 -14.2246 -13.7509 -13.7261
   -13.4973 -13.4194 -13.3564 -13.1717 -12.9679 -12.9423 -12.9314 -12.9267
   -12.8597 -12.7769 -12.6059 -12.5478 -12.4075 -12.3722 -12.3345 -12.2219
   -11.2222 -10.9814  -6.7002  -6.6718  -6.6245  -6.6163  -6.5838  -6.5800
    -4.3929  -4.3429  -2.4993  -2.4499  -1.8915  -1.4079  -1.2838  -1.2259
    -1.1973  -1.1383  -0.7326  -0.7012  -0.6062  -0.4777  -0.4522  -0.3709
    -0.0609   0.0206   0.0771   0.3079   0.4649   0.4684   0.5955   0.7779
     0.8232   1.0967   1.1256   1.2370   1.3140   1.3656   1.4768   1.5991
     1.7556   1.7788   1.9669   1.9818   2.0052   2.1331   2.1364   2.2095
     2.2895   2.3374   2.4938   2.5399   2.5680   2.6207   2.6853   2.7257
     2.7557   2.9589   2.9853   2.9930   3.0145   3.1926   3.2322   3.2875
     3.3080   3.3351   3.4470   3.5577   3.5916   3.6391   3.6835   3.7175
     3.7444   3.7651   3.7918   4.0147   4.0268   4.1970   4.3579   4.4669

     occupation numbers 
     1.0000   1.0000   1.0000   1.0000   1.0000   1.0000   1.0000   1.0000
     1.0000   1.0000   1.0000   1.0000   1.0000   1.0000   1.0000   1.0000
     1.0000   1.0000   1.0000   1.0000   1.0000   1.0000   1.0000   1.0000
     1.0000   1.0000   1.0000   1.0000   1.0000   1.0000   1.0000   1.0000
     1.0000   1.0000   1.0000   1.0000   1.0000   1.0000   1.0000   1.0000
     1.0000   1.0000   1.0000   1.0000   1.0000   1.0000   1.0000   1.0000
     1.0000   1.0000   1.0000   1.0000   1.0000   1.0000   1.0000   1.0000
     1.0000   1.0000   1.0000   1.0000   1.0000   1.0000   1.0000   1.0000
     1.0000   1.0000   1.0000   1.0000   1.0000   1.0000   1.0000   1.0000
     1.0000   1.0000   1.0000   1.0000   1.0000   1.0000   1.0000   1.0000
     1.0000   1.0000   1.0000   1.0000   1.0000   1.0000   1.0000   1.0000
     1.0000   1.0000   1.0000   1.0000   1.0000   1.0000   1.0000   1.0000
     1.0000   1.0000   1.0000   1.0000   1.0000   1.0000   1.0000   1.0000
     1.0000   1.0000   1.0000   1.0000   1.0000   1.0000   1.0000   1.0000
     1.0000   1.0000   1.0000   1.0000   1.0000   1.0000   1.0000   1.0000
     1.0000   1.0000   1.0000   1.0000   1.0000   1.0000   1.0000   1.0000

          k = 0.0000 0.1921 0.0000 ( 29220 PWs)   bands (ev):

   -67.7098 -67.7048 -67.5872 -67.2149 -67.1228 -67.1120 -34.4895 -34.4696
   -34.4644 -34.4591 -34.4513 -34.4470 -34.3539 -34.3509 -34.3240 -33.9761
   -33.9708 -33.9681 -33.8996 -33.8967 -33.8831 -33.8638 -33.8548 -33.8399
   -23.1273 -23.1031 -15.1985 -15.1446 -14.2921 -14.2427 -13.7505 -13.7266
   -13.4230 -13.3451 -13.2955 -13.2039 -13.0527 -13.0085 -12.9498 -12.9010
   -12.8714 -12.7731 -12.6039 -12.5370 -12.4017 -12.3801 -12.3336 -12.2113
   -11.2212 -10.9801  -6.6968  -6.6754  -6.6241  -6.6145  -6.5853  -6.5808
    -4.3598  -4.2993  -2.6645  -2.5573  -1.8746  -1.4708  -1.2018  -1.1957
    -1.0847  -1.0387  -0.8299  -0.7532  -0.5881  -0.4179  -0.3861  -0.2579
    -0.1765   0.0298   0.1091   0.3468   0.4277   0.4601   0.5741   0.7529
     0.7985   1.0293   1.0855   1.2109   1.2852   1.4356   1.4583   1.5962
     1.7808   1.8045   1.8577   1.9721   2.0333   2.0998   2.2288   2.2899
     2.3042   2.3771   2.4456   2.5489   2.5846   2.6752   2.7391   2.7798
     2.8288   2.8903   2.9445   3.0010   3.1395   3.1770   3.2694   3.2847
     3.3293   3.3546   3.3711   3.4779   3.5479   3.5702   3.6727   3.7095
     3.7741   3.7913   3.8152   3.9835   4.0215   4.1627   4.1789   4.4614

     occupation numbers 
     1.0000   1.0000   1.0000   1.0000   1.0000   1.0000   1.0000   1.0000
     1.0000   1.0000   1.0000   1.0000   1.0000   1.0000   1.0000   1.0000
     1.0000   1.0000   1.0000   1.0000   1.0000   1.0000   1.0000   1.0000
     1.0000   1.0000   1.0000   1.0000   1.0000   1.0000   1.0000   1.0000
     1.0000   1.0000   1.0000   1.0000   1.0000   1.0000   1.0000   1.0000
     1.0000   1.0000   1.0000   1.0000   1.0000   1.0000   1.0000   1.0000
     1.0000   1.0000   1.0000   1.0000   1.0000   1.0000   1.0000   1.0000
     1.0000   1.0000   1.0000   1.0000   1.0000   1.0000   1.0000   1.0000
     1.0000   1.0000   1.0000   1.0000   1.0000   1.0000   1.0000   1.0000
     1.0000   1.0000   1.0000   1.0000   1.0000   1.0000   1.0000   1.0000
     1.0000   1.0000   1.0000   1.0000   1.0000   1.0000   1.0000   1.0000
     1.0000   1.0000   1.0000   1.0000   1.0000   1.0000   1.0000   1.0000
     1.0000   1.0000   1.0000   1.0000   1.0000   1.0000   1.0000   1.0000
     1.0000   1.0000   1.0000   1.0000   1.0000   1.0000   1.0000   1.0000
     1.0000   1.0000   1.0000   1.0000   1.0000   1.0000   1.0000   1.0000
     1.0000   1.0000   1.0000   1.0000   1.0000   1.0000   1.0000   1.0000

          k = 0.0000 0.1921 0.1758 ( 29224 PWs)   bands (ev):

   -67.7098 -67.7048 -67.5872 -67.2149 -67.1228 -67.1120 -34.4895 -34.4696
   -34.4644 -34.4591 -34.4513 -34.4470 -34.3539 -34.3509 -34.3240 -33.9761
   -33.9708 -33.9681 -33.8995 -33.8967 -33.8831 -33.8638 -33.8548 -33.8399
   -23.1273 -23.1031 -15.1855 -15.1585 -14.2801 -14.2555 -13.7511 -13.7261
   -13.4155 -13.3377 -13.3134 -13.1952 -13.0680 -12.9932 -12.9508 -12.9037
   -12.8681 -12.7773 -12.5967 -12.5441 -12.4070 -12.3718 -12.3290 -12.2183
   -11.2209 -10.9808  -6.6968  -6.6754  -6.6241  -6.6144  -6.5852  -6.5808
    -4.3526  -4.3070  -2.6402  -2.5843  -1.8455  -1.4584  -1.1993  -1.1946
    -1.0852  -1.0442  -0.8145  -0.7731  -0.6045  -0.4392  -0.3792  -0.3304
    -0.1328   0.0321   0.0467   0.3240   0.4238   0.4317   0.6144   0.7499
     0.8544   0.9925   1.0708   1.2648   1.3492   1.4291   1.5565   1.6137
     1.7536   1.8228   1.9014   1.9477   2.0090   2.1501   2.2196   2.2724
     2.3153   2.3615   2.4242   2.5107   2.5880   2.6451   2.7006   2.7470
     2.8221   2.9215   2.9479   3.0542   3.0869   3.1363   3.2429   3.2941
     3.3036   3.3470   3.4156   3.4969   3.5433   3.6194   3.6623   3.6998
     3.7372   3.7820   3.8140   3.9688   4.0323   4.1795   4.1964   4.4641

     occupation numbers 
     1.0000   1.0000   1.0000   1.0000   1.0000   1.0000   1.0000   1.0000
     1.0000   1.0000   1.0000   1.0000   1.0000   1.0000   1.0000   1.0000
     1.0000   1.0000   1.0000   1.0000   1.0000   1.0000   1.0000   1.0000
     1.0000   1.0000   1.0000   1.0000   1.0000   1.0000   1.0000   1.0000
     1.0000   1.0000   1.0000   1.0000   1.0000   1.0000   1.0000   1.0000
     1.0000   1.0000   1.0000   1.0000   1.0000   1.0000   1.0000   1.0000
     1.0000   1.0000   1.0000   1.0000   1.0000   1.0000   1.0000   1.0000
     1.0000   1.0000   1.0000   1.0000   1.0000   1.0000   1.0000   1.0000
     1.0000   1.0000   1.0000   1.0000   1.0000   1.0000   1.0000   1.0000
     1.0000   1.0000   1.0000   1.0000   1.0000   1.0000   1.0000   1.0000
     1.0000   1.0000   1.0000   1.0000   1.0000   1.0000   1.0000   1.0000
     1.0000   1.0000   1.0000   1.0000   1.0000   1.0000   1.0000   1.0000
     1.0000   1.0000   1.0000   1.0000   1.0000   1.0000   1.0000   1.0000
     1.0000   1.0000   1.0000   1.0000   1.0000   1.0000   1.0000   1.0000
     1.0000   1.0000   1.0000   1.0000   1.0000   1.0000   1.0000   1.0000
     1.0000   1.0000   1.0000   1.0000   1.0000   1.0000   1.0000   1.0000

          k = 0.1667 0.0000 0.0301 ( 29224 PWs)   bands (ev):

   -67.7098 -67.7048 -67.5872 -67.2149 -67.1227 -67.1120 -34.4888 -34.4716
   -34.4632 -34.4589 -34.4513 -34.4470 -34.3539 -34.3509 -34.3240 -33.9760
   -33.9711 -33.9681 -33.9012 -33.8944 -33.8836 -33.8632 -33.8552 -33.8403
   -23.1271 -23.1029 -15.1450 -15.0922 -14.2787 -14.2354 -13.8620 -13.8308
   -13.4416 -13.3384 -13.3060 -13.1611 -12.9754 -12.9638 -12.9420 -12.9099
   -12.8569 -12.7810 -12.6295 -12.5551 -12.4676 -12.4176 -12.3206 -12.2021
   -11.2195 -10.9854  -6.6999  -6.6759  -6.6231  -6.6148  -6.5840  -6.5765
    -4.2406  -4.1777  -2.4944  -2.3942  -1.9250  -1.5453  -1.4961  -1.3891
    -0.9988  -0.9139  -0.7669  -0.7412  -0.5634  -0.4595  -0.4241  -0.2732
    -0.0904   0.0117   0.1112   0.3483   0.4074   0.5214   0.5394   0.6508
     0.9402   1.0604   1.1550   1.2268   1.2382   1.3480   1.4401   1.5268
     1.6241   1.8051   1.8292   1.9118   1.9708   2.1601   2.1893   2.2603
     2.3203   2.3946   2.5234   2.5534   2.5847   2.6073   2.7397   2.7579
     2.8253   2.8624   2.9474   3.0253   3.0796   3.1174   3.2270   3.2335
     3.3114   3.3786   3.4372   3.5210   3.5595   3.6192   3.6579   3.7136
     3.7255   3.7829   3.8223   3.9282   3.9918   4.1942   4.3491   4.3722

     occupation numbers 
     1.0000   1.0000   1.0000   1.0000   1.0000   1.0000   1.0000   1.0000
     1.0000   1.0000   1.0000   1.0000   1.0000   1.0000   1.0000   1.0000
     1.0000   1.0000   1.0000   1.0000   1.0000   1.0000   1.0000   1.0000
     1.0000   1.0000   1.0000   1.0000   1.0000   1.0000   1.0000   1.0000
     1.0000   1.0000   1.0000   1.0000   1.0000   1.0000   1.0000   1.0000
     1.0000   1.0000   1.0000   1.0000   1.0000   1.0000   1.0000   1.0000
     1.0000   1.0000   1.0000   1.0000   1.0000   1.0000   1.0000   1.0000
     1.0000   1.0000   1.0000   1.0000   1.0000   1.0000   1.0000   1.0000
     1.0000   1.0000   1.0000   1.0000   1.0000   1.0000   1.0000   1.0000
     1.0000   1.0000   1.0000   1.0000   1.0000   1.0000   1.0000   1.0000
     1.0000   1.0000   1.0000   1.0000   1.0000   1.0000   1.0000   1.0000
     1.0000   1.0000   1.0000   1.0000   1.0000   1.0000   1.0000   1.0000
     1.0000   1.0000   1.0000   1.0000   1.0000   1.0000   1.0000   1.0000
     1.0000   1.0000   1.0000   1.0000   1.0000   1.0000   1.0000   1.0000
     1.0000   1.0000   1.0000   1.0000   1.0000   1.0000   1.0000   1.0000
     1.0000   1.0000   1.0000   1.0000   1.0000   1.0000   1.0000   1.0000

          k = 0.1667 0.0000 0.2059 ( 29222 PWs)   bands (ev):

   -67.7098 -67.7048 -67.5872 -67.2149 -67.1227 -67.1120 -34.4889 -34.4716
   -34.4632 -34.4589 -34.4513 -34.4470 -34.3539 -34.3509 -34.3240 -33.9760
   -33.9711 -33.9681 -33.9011 -33.8943 -33.8836 -33.8632 -33.8552 -33.8404
   -23.1271 -23.1029 -15.1287 -15.1094 -14.2694 -14.2453 -13.8584 -13.8345
   -13.4300 -13.3546 -13.3022 -13.1567 -12.9738 -12.9654 -12.9497 -12.9068
   -12.8513 -12.7845 -12.6231 -12.5626 -12.4614 -12.4234 -12.3105 -12.2109
   -11.2190 -10.9862  -6.7000  -6.6759  -6.6231  -6.6148  -6.5839  -6.5765
    -4.2414  -4.1772  -2.4743  -2.4191  -1.8887  -1.5857  -1.4617  -1.3758
    -0.9977  -0.9165  -0.7777  -0.7324  -0.5694  -0.4499  -0.4244  -0.3817
    -0.0507   0.0520   0.0584   0.2797   0.3905   0.5010   0.5324   0.7093
     1.0034   1.0720   1.1285   1.2226   1.2586   1.3636   1.4755   1.5360
     1.6780   1.7852   1.8580   1.9151   2.0616   2.1655   2.2073   2.2600
     2.2992   2.3882   2.4585   2.4906   2.5607   2.6142   2.7032   2.7209
     2.7990   2.8931   2.9879   3.0437   3.0747   3.1184   3.1517   3.2278
     3.3278   3.3589   3.4312   3.5735   3.5881   3.6274   3.6685   3.6924
     3.7273   3.7415   3.7845   3.9354   4.0284   4.1864   4.3486   4.3913

     occupation numbers 
     1.0000   1.0000   1.0000   1.0000   1.0000   1.0000   1.0000   1.0000
     1.0000   1.0000   1.0000   1.0000   1.0000   1.0000   1.0000   1.0000
     1.0000   1.0000   1.0000   1.0000   1.0000   1.0000   1.0000   1.0000
     1.0000   1.0000   1.0000   1.0000   1.0000   1.0000   1.0000   1.0000
     1.0000   1.0000   1.0000   1.0000   1.0000   1.0000   1.0000   1.0000
     1.0000   1.0000   1.0000   1.0000   1.0000   1.0000   1.0000   1.0000
     1.0000   1.0000   1.0000   1.0000   1.0000   1.0000   1.0000   1.0000
     1.0000   1.0000   1.0000   1.0000   1.0000   1.0000   1.0000   1.0000
     1.0000   1.0000   1.0000   1.0000   1.0000   1.0000   1.0000   1.0000
     1.0000   1.0000   1.0000   1.0000   1.0000   1.0000   1.0000   1.0000
     1.0000   1.0000   1.0000   1.0000   1.0000   1.0000   1.0000   1.0000
     1.0000   1.0000   1.0000   1.0000   1.0000   1.0000   1.0000   1.0000
     1.0000   1.0000   1.0000   1.0000   1.0000   1.0000   1.0000   1.0000
     1.0000   1.0000   1.0000   1.0000   1.0000   1.0000   1.0000   1.0000
     1.0000   1.0000   1.0000   1.0000   1.0000   1.0000   1.0000   1.0000
     1.0000   1.0000   1.0000   1.0000   1.0000   1.0000   1.0000   1.0000

          k = 0.1667 0.0000-0.1457 ( 29244 PWs)   bands (ev):

   -67.7098 -67.7048 -67.5872 -67.2149 -67.1227 -67.1120 -34.4889 -34.4716
   -34.4632 -34.4589 -34.4513 -34.4471 -34.3539 -34.3509 -34.3240 -33.9760
   -33.9711 -33.9681 -33.9012 -33.8944 -33.8836 -33.8632 -33.8552 -33.8404
   -23.1271 -23.1029 -15.1357 -15.1021 -14.2702 -14.2445 -13.8572 -13.8357
   -13.4347 -13.3399 -13.3134 -13.1576 -12.9703 -12.9619 -12.9552 -12.9038
   -12.8545 -12.7859 -12.6186 -12.5662 -12.4484 -12.4371 -12.3103 -12.2097
   -11.2189 -10.9862  -6.7001  -6.6760  -6.6231  -6.6148  -6.5839  -6.5765
    -4.2244  -4.1946  -2.4709  -2.4207  -1.9032  -1.5794  -1.4646  -1.3794
    -0.9824  -0.9367  -0.7530  -0.7204  -0.5870  -0.4586  -0.4342  -0.3519
    -0.0883   0.0485   0.0772   0.2907   0.4241   0.5159   0.5650   0.6941
     0.9505   1.0598   1.1068   1.2192   1.2914   1.3921   1.4757   1.4938
     1.6818   1.7741   1.8671   1.8977   2.0060   2.1419   2.2114   2.2312
     2.3100   2.3953   2.4737   2.5346   2.5625   2.6335   2.6827   2.7741
     2.8055   2.8841   2.9892   3.0445   3.0914   3.1185   3.1639   3.2896
     3.3339   3.3613   3.4548   3.5118   3.5716   3.5841   3.6181   3.6957
     3.7376   3.7505   3.8007   3.9201   4.0523   4.1837   4.3539   4.3832

     occupation numbers 
     1.0000   1.0000   1.0000   1.0000   1.0000   1.0000   1.0000   1.0000
     1.0000   1.0000   1.0000   1.0000   1.0000   1.0000   1.0000   1.0000
     1.0000   1.0000   1.0000   1.0000   1.0000   1.0000   1.0000   1.0000
     1.0000   1.0000   1.0000   1.0000   1.0000   1.0000   1.0000   1.0000
     1.0000   1.0000   1.0000   1.0000   1.0000   1.0000   1.0000   1.0000
     1.0000   1.0000   1.0000   1.0000   1.0000   1.0000   1.0000   1.0000
     1.0000   1.0000   1.0000   1.0000   1.0000   1.0000   1.0000   1.0000
     1.0000   1.0000   1.0000   1.0000   1.0000   1.0000   1.0000   1.0000
     1.0000   1.0000   1.0000   1.0000   1.0000   1.0000   1.0000   1.0000
     1.0000   1.0000   1.0000   1.0000   1.0000   1.0000   1.0000   1.0000
     1.0000   1.0000   1.0000   1.0000   1.0000   1.0000   1.0000   1.0000
     1.0000   1.0000   1.0000   1.0000   1.0000   1.0000   1.0000   1.0000
     1.0000   1.0000   1.0000   1.0000   1.0000   1.0000   1.0000   1.0000
     1.0000   1.0000   1.0000   1.0000   1.0000   1.0000   1.0000   1.0000
     1.0000   1.0000   1.0000   1.0000   1.0000   1.0000   1.0000   1.0000
     1.0000   1.0000   1.0000   1.0000   1.0000   1.0000   1.0000   1.0000

          k = 0.1667 0.1921 0.0301 ( 29221 PWs)   bands (ev):

   -67.7098 -67.7048 -67.5872 -67.2149 -67.1227 -67.1120 -34.4889 -34.4716
   -34.4632 -34.4589 -34.4513 -34.4470 -34.3539 -34.3509 -34.3240 -33.9760
   -33.9710 -33.9681 -33.9012 -33.8943 -33.8836 -33.8632 -33.8552 -33.8404
   -23.1271 -23.1029 -15.1404 -15.0876 -14.3075 -14.2609 -13.8501 -13.8221
   -13.3853 -13.3150 -13.2429 -13.1696 -13.0366 -13.0090 -12.9628 -12.9019
   -12.8737 -12.7810 -12.6237 -12.5441 -12.4624 -12.4201 -12.3181 -12.2002
   -11.2185 -10.9850  -6.6974  -6.6789  -6.6230  -6.6134  -6.5849  -6.5770
    -4.2058  -4.1423  -2.6489  -2.5428  -1.8525  -1.4442  -1.4107  -1.3734
    -0.9909  -0.9172  -0.8557  -0.7045  -0.5663  -0.3966  -0.3694  -0.2372
    -0.1268   0.0045   0.0834   0.3227   0.3797   0.4999   0.5426   0.6279
     0.9544   0.9894   1.1463   1.2085   1.2610   1.3484   1.4392   1.5448
     1.6527   1.7867   1.7988   1.9525   2.0364   2.1550   2.2166   2.2680
     2.3520   2.4000   2.4520   2.5936   2.5978   2.7064   2.7271   2.7936
     2.8451   2.8918   2.9842   3.0289   3.0839   3.1448   3.2063   3.2619
     3.3076   3.3375   3.3995   3.4931   3.5420   3.5653   3.6194   3.6842
     3.7147   3.7460   3.8424   3.9454   3.9703   4.1507   4.2353   4.4071

     occupation numbers 
     1.0000   1.0000   1.0000   1.0000   1.0000   1.0000   1.0000   1.0000
     1.0000   1.0000   1.0000   1.0000   1.0000   1.0000   1.0000   1.0000
     1.0000   1.0000   1.0000   1.0000   1.0000   1.0000   1.0000   1.0000
     1.0000   1.0000   1.0000   1.0000   1.0000   1.0000   1.0000   1.0000
     1.0000   1.0000   1.0000   1.0000   1.0000   1.0000   1.0000   1.0000
     1.0000   1.0000   1.0000   1.0000   1.0000   1.0000   1.0000   1.0000
     1.0000   1.0000   1.0000   1.0000   1.0000   1.0000   1.0000   1.0000
     1.0000   1.0000   1.0000   1.0000   1.0000   1.0000   1.0000   1.0000
     1.0000   1.0000   1.0000   1.0000   1.0000   1.0000   1.0000   1.0000
     1.0000   1.0000   1.0000   1.0000   1.0000   1.0000   1.0000   1.0000
     1.0000   1.0000   1.0000   1.0000   1.0000   1.0000   1.0000   1.0000
     1.0000   1.0000   1.0000   1.0000   1.0000   1.0000   1.0000   1.0000
     1.0000   1.0000   1.0000   1.0000   1.0000   1.0000   1.0000   1.0000
     1.0000   1.0000   1.0000   1.0000   1.0000   1.0000   1.0000   1.0000
     1.0000   1.0000   1.0000   1.0000   1.0000   1.0000   1.0000   1.0000
     1.0000   1.0000   1.0000   1.0000   1.0000   1.0000   1.0000   1.0000

          k = 0.1667 0.1921 0.2059 ( 29189 PWs)   bands (ev):

   -67.7098 -67.7048 -67.5872 -67.2149 -67.1227 -67.1120 -34.4888 -34.4716
   -34.4632 -34.4588 -34.4513 -34.4470 -34.3538 -34.3509 -34.3240 -33.9760
   -33.9710 -33.9681 -33.9011 -33.8943 -33.8836 -33.8632 -33.8552 -33.8403
   -23.1271 -23.1029 -15.1241 -15.1048 -14.2956 -14.2736 -13.8484 -13.8239
   -13.3783 -13.3075 -13.2624 -13.1583 -13.0539 -12.9932 -12.9634 -12.9025
   -12.8717 -12.7851 -12.6186 -12.5508 -12.4592 -12.4228 -12.3082 -12.2089
   -11.2181 -10.9858  -6.6974  -6.6790  -6.6230  -6.6133  -6.5848  -6.5770
    -4.2036  -4.1447  -2.6235  -2.5712  -1.8242  -1.4366  -1.4284  -1.3514
    -0.9954  -0.9138  -0.8577  -0.7001  -0.5720  -0.4525  -0.3499  -0.2925
    -0.0887  -0.0053   0.0613   0.2822   0.3614   0.4831   0.5344   0.6719
     0.9588   0.9948   1.1256   1.2786   1.2847   1.3779   1.4821   1.6016
     1.6835   1.7374   1.8032   1.9353   2.0720   2.1609   2.2454   2.2810
     2.3525   2.4011   2.4089   2.5159   2.5954   2.6760   2.7150   2.7562
     2.8424   2.9071   3.0034   3.0294   3.0862   3.1154   3.1829   3.2418
     3.2898   3.3534   3.4402   3.4847   3.5330   3.5882   3.6195   3.6732
     3.6964   3.7709   3.8088   3.9533   3.9911   4.1564   4.2430   4.4185

     occupation numbers 
     1.0000   1.0000   1.0000   1.0000   1.0000   1.0000   1.0000   1.0000
     1.0000   1.0000   1.0000   1.0000   1.0000   1.0000   1.0000   1.0000
     1.0000   1.0000   1.0000   1.0000   1.0000   1.0000   1.0000   1.0000
     1.0000   1.0000   1.0000   1.0000   1.0000   1.0000   1.0000   1.0000
     1.0000   1.0000   1.0000   1.0000   1.0000   1.0000   1.0000   1.0000
     1.0000   1.0000   1.0000   1.0000   1.0000   1.0000   1.0000   1.0000
     1.0000   1.0000   1.0000   1.0000   1.0000   1.0000   1.0000   1.0000
     1.0000   1.0000   1.0000   1.0000   1.0000   1.0000   1.0000   1.0000
     1.0000   1.0000   1.0000   1.0000   1.0000   1.0000   1.0000   1.0000
     1.0000   1.0000   1.0000   1.0000   1.0000   1.0000   1.0000   1.0000
     1.0000   1.0000   1.0000   1.0000   1.0000   1.0000   1.0000   1.0000
     1.0000   1.0000   1.0000   1.0000   1.0000   1.0000   1.0000   1.0000
     1.0000   1.0000   1.0000   1.0000   1.0000   1.0000   1.0000   1.0000
     1.0000   1.0000   1.0000   1.0000   1.0000   1.0000   1.0000   1.0000
     1.0000   1.0000   1.0000   1.0000   1.0000   1.0000   1.0000   1.0000
     1.0000   1.0000   1.0000   1.0000   1.0000   1.0000   1.0000   1.0000

          k = 0.1667 0.1921-0.1457 ( 29213 PWs)   bands (ev):

   -67.7098 -67.7048 -67.5872 -67.2149 -67.1227 -67.1120 -34.4889 -34.4716
   -34.4632 -34.4589 -34.4513 -34.4470 -34.3539 -34.3509 -34.3240 -33.9760
   -33.9710 -33.9681 -33.9011 -33.8944 -33.8836 -33.8632 -33.8552 -33.8403
   -23.1271 -23.1029 -15.1310 -15.0975 -14.2980 -14.2711 -13.8459 -13.8265
   -13.3812 -13.3071 -13.2573 -13.1630 -13.0500 -12.9973 -12.9632 -12.9029
   -12.8707 -12.7856 -12.6135 -12.5543 -12.4478 -12.4355 -12.3079 -12.2079
   -11.2178 -10.9858  -6.6975  -6.6791  -6.6230  -6.6133  -6.5848  -6.5770
    -4.1879  -4.1608  -2.6243  -2.5698  -1.8348  -1.4437  -1.4267  -1.3494
    -0.9715  -0.9402  -0.8249  -0.7108  -0.5968  -0.4147  -0.3614  -0.2850
    -0.1200   0.0069   0.0460   0.3122   0.3873   0.4815   0.5781   0.6620
     0.9429   0.9600   1.1159   1.2439   1.2973   1.3961   1.4761   1.5727
     1.6826   1.7523   1.7904   1.9627   2.0479   2.1189   2.2289   2.2794
     2.3229   2.4002   2.4394   2.5408   2.6434   2.6621   2.6868   2.7816
     2.8689   2.9278   2.9879   3.0542   3.0799   3.1116   3.2016   3.2798
     3.3128   3.3454   3.4268   3.4864   3.5318   3.5774   3.6103   3.6527
     3.7077   3.7454   3.7816   3.9438   4.0197   4.1484   4.2427   4.4118

     occupation numbers 
     1.0000   1.0000   1.0000   1.0000   1.0000   1.0000   1.0000   1.0000
     1.0000   1.0000   1.0000   1.0000   1.0000   1.0000   1.0000   1.0000
     1.0000   1.0000   1.0000   1.0000   1.0000   1.0000   1.0000   1.0000
     1.0000   1.0000   1.0000   1.0000   1.0000   1.0000   1.0000   1.0000
     1.0000   1.0000   1.0000   1.0000   1.0000   1.0000   1.0000   1.0000
     1.0000   1.0000   1.0000   1.0000   1.0000   1.0000   1.0000   1.0000
     1.0000   1.0000   1.0000   1.0000   1.0000   1.0000   1.0000   1.0000
     1.0000   1.0000   1.0000   1.0000   1.0000   1.0000   1.0000   1.0000
     1.0000   1.0000   1.0000   1.0000   1.0000   1.0000   1.0000   1.0000
     1.0000   1.0000   1.0000   1.0000   1.0000   1.0000   1.0000   1.0000
     1.0000   1.0000   1.0000   1.0000   1.0000   1.0000   1.0000   1.0000
     1.0000   1.0000   1.0000   1.0000   1.0000   1.0000   1.0000   1.0000
     1.0000   1.0000   1.0000   1.0000   1.0000   1.0000   1.0000   1.0000
     1.0000   1.0000   1.0000   1.0000   1.0000   1.0000   1.0000   1.0000
     1.0000   1.0000   1.0000   1.0000   1.0000   1.0000   1.0000   1.0000
     1.0000   1.0000   1.0000   1.0000   1.0000   1.0000   1.0000   1.0000

          k = 0.3333 0.0000 0.0601 ( 29248 PWs)   bands (ev):

   -67.7097 -67.7049 -67.5872 -67.2149 -67.1227 -67.1121 -34.4873 -34.4748
   -34.4617 -34.4583 -34.4514 -34.4473 -34.3538 -34.3511 -34.3241 -33.9757
   -33.9715 -33.9681 -33.9023 -33.8916 -33.8847 -33.8616 -33.8567 -33.8412
   -23.1268 -23.1026 -14.9845 -14.9353 -14.4039 -14.3654 -13.9787 -13.9427
   -13.3368 -13.2379 -13.1742 -13.1391 -13.0364 -12.9977 -12.9536 -12.9118
   -12.8685 -12.7818 -12.6803 -12.6115 -12.5449 -12.4679 -12.3032 -12.1930
   -11.2144 -10.9954  -6.6999  -6.6844  -6.6200  -6.6118  -6.5843  -6.5693
    -3.8311  -3.7577  -2.6396  -2.5262  -1.9201  -1.7648  -1.4936  -1.3331
    -0.9684  -0.8297  -0.8246  -0.7746  -0.4820  -0.4164  -0.3242  -0.2414
    -0.1876   0.0266   0.1462   0.3199   0.3916   0.5111   0.5481   0.5958
     0.8944   1.0192   1.1084   1.1716   1.3042   1.3411   1.4690   1.4869
     1.5453   1.5638   1.6908   1.8679   1.9608   2.1981   2.2223   2.2786
     2.3352   2.4407   2.5647   2.5860   2.6403   2.6519   2.7232   2.8015
     2.8481   2.8714   2.9800   3.0432   3.0486   3.0982   3.1162   3.1488
     3.3336   3.3581   3.4244   3.4659   3.4946   3.5574   3.6162   3.6435
     3.6647   3.7318   3.8624   3.8930   3.9419   4.2013   4.2816   4.3186

     occupation numbers 
     1.0000   1.0000   1.0000   1.0000   1.0000   1.0000   1.0000   1.0000
     1.0000   1.0000   1.0000   1.0000   1.0000   1.0000   1.0000   1.0000
     1.0000   1.0000   1.0000   1.0000   1.0000   1.0000   1.0000   1.0000
     1.0000   1.0000   1.0000   1.0000   1.0000   1.0000   1.0000   1.0000
     1.0000   1.0000   1.0000   1.0000   1.0000   1.0000   1.0000   1.0000
     1.0000   1.0000   1.0000   1.0000   1.0000   1.0000   1.0000   1.0000
     1.0000   1.0000   1.0000   1.0000   1.0000   1.0000   1.0000   1.0000
     1.0000   1.0000   1.0000   1.0000   1.0000   1.0000   1.0000   1.0000
     1.0000   1.0000   1.0000   1.0000   1.0000   1.0000   1.0000   1.0000
     1.0000   1.0000   1.0000   1.0000   1.0000   1.0000   1.0000   1.0000
     1.0000   1.0000   1.0000   1.0000   1.0000   1.0000   1.0000   1.0000
     1.0000   1.0000   1.0000   1.0000   1.0000   1.0000   1.0000   1.0000
     1.0000   1.0000   1.0000   1.0000   1.0000   1.0000   1.0000   1.0000
     1.0000   1.0000   1.0000   1.0000   1.0000   1.0000   1.0000   1.0000
     1.0000   1.0000   1.0000   1.0000   1.0000   1.0000   1.0000   1.0000
     1.0000   1.0000   1.0000   1.0000   1.0000   1.0000   1.0000   1.0000

          k = 0.3333 0.0000 0.2360 ( 29246 PWs)   bands (ev):

   -67.7097 -67.7049 -67.5872 -67.2149 -67.1227 -67.1121 -34.4873 -34.4749
   -34.4617 -34.4583 -34.4514 -34.4473 -34.3538 -34.3511 -34.3241 -33.9757
   -33.9715 -33.9681 -33.9023 -33.8916 -33.8847 -33.8616 -33.8567 -33.8412
   -23.1268 -23.1026 -14.9664 -14.9542 -14.4018 -14.3675 -13.9723 -13.9495
   -13.3289 -13.2407 -13.1836 -13.1356 -13.0295 -12.9928 -12.9706 -12.9055
   -12.8671 -12.7842 -12.6738 -12.6213 -12.5288 -12.4801 -12.2927 -12.2025
   -11.2135 -10.9963  -6.7000  -6.6845  -6.6199  -6.6118  -6.5842  -6.5693
    -3.8322  -3.7567  -2.6132  -2.5562  -1.8914  -1.8021  -1.4634  -1.3234
    -0.9709  -0.8389  -0.8181  -0.7604  -0.4546  -0.4135  -0.3638  -0.3248
    -0.1343  -0.0210   0.1563   0.2809   0.3987   0.4877   0.5316   0.6542
     0.9405   1.0336   1.0885   1.1785   1.2197   1.3943   1.4797   1.5256
     1.5764   1.6120   1.6353   1.9222   2.0034   2.1436   2.2425   2.2858
     2.3126   2.3805   2.5373   2.6065   2.6502   2.6608   2.7061   2.7686
     2.8059   2.9170   2.9333   3.0238   3.0403   3.0859   3.1690   3.1969
     3.3435   3.3808   3.4236   3.4620   3.4870   3.5515   3.5671   3.6378
     3.6893   3.7391   3.7832   3.8837   4.0218   4.1814   4.3041   4.3299

     occupation numbers 
     1.0000   1.0000   1.0000   1.0000   1.0000   1.0000   1.0000   1.0000
     1.0000   1.0000   1.0000   1.0000   1.0000   1.0000   1.0000   1.0000
     1.0000   1.0000   1.0000   1.0000   1.0000   1.0000   1.0000   1.0000
     1.0000   1.0000   1.0000   1.0000   1.0000   1.0000   1.0000   1.0000
     1.0000   1.0000   1.0000   1.0000   1.0000   1.0000   1.0000   1.0000
     1.0000   1.0000   1.0000   1.0000   1.0000   1.0000   1.0000   1.0000
     1.0000   1.0000   1.0000   1.0000   1.0000   1.0000   1.0000   1.0000
     1.0000   1.0000   1.0000   1.0000   1.0000   1.0000   1.0000   1.0000
     1.0000   1.0000   1.0000   1.0000   1.0000   1.0000   1.0000   1.0000
     1.0000   1.0000   1.0000   1.0000   1.0000   1.0000   1.0000   1.0000
     1.0000   1.0000   1.0000   1.0000   1.0000   1.0000   1.0000   1.0000
     1.0000   1.0000   1.0000   1.0000   1.0000   1.0000   1.0000   1.0000
     1.0000   1.0000   1.0000   1.0000   1.0000   1.0000   1.0000   1.0000
     1.0000   1.0000   1.0000   1.0000   1.0000   1.0000   1.0000   1.0000
     1.0000   1.0000   1.0000   1.0000   1.0000   1.0000   1.0000   1.0000
     1.0000   1.0000   1.0000   1.0000   1.0000   1.0000   1.0000   1.0000

          k = 0.3333 0.0000-0.1157 ( 29244 PWs)   bands (ev):

   -67.7097 -67.7049 -67.5872 -67.2149 -67.1227 -67.1121 -34.4873 -34.4748
   -34.4617 -34.4583 -34.4514 -34.4473 -34.3538 -34.3511 -34.3241 -33.9757
   -33.9715 -33.9680 -33.9023 -33.8916 -33.8847 -33.8616 -33.8567 -33.8412
   -23.1268 -23.1026 -14.9790 -14.9412 -14.3958 -14.3739 -13.9736 -13.9481
   -13.3353 -13.2237 -13.1955 -13.1372 -13.0263 -12.9951 -12.9696 -12.9020
   -12.8677 -12.7878 -12.6682 -12.6267 -12.5245 -12.4835 -12.2938 -12.2009
   -11.2134 -10.9963  -6.7000  -6.6846  -6.6199  -6.6117  -6.5842  -6.5693
    -3.7977  -3.7922  -2.6280  -2.5402  -1.9049  -1.7827  -1.4868  -1.3272
    -0.9565  -0.8286  -0.8050  -0.7688  -0.4913  -0.4028  -0.3571  -0.2845
    -0.1933  -0.0014   0.1819   0.2781   0.4198   0.4934   0.5772   0.6105
     0.9373   1.0014   1.1009   1.1974   1.2442   1.3597   1.4821   1.5098
     1.5331   1.5711   1.7025   1.8797   1.9686   2.1541   2.2177   2.2558
     2.3201   2.4489   2.5730   2.6007   2.6140   2.6819   2.7075   2.7946
     2.8296   2.8773   2.9556   3.0074   3.0516   3.1334   3.1893   3.2404
     3.3368   3.3543   3.4278   3.4658   3.4913   3.5276   3.5388   3.6129
     3.6772   3.7224   3.8265   3.8604   4.0186   4.1915   4.2940   4.3325

     occupation numbers 
     1.0000   1.0000   1.0000   1.0000   1.0000   1.0000   1.0000   1.0000
     1.0000   1.0000   1.0000   1.0000   1.0000   1.0000   1.0000   1.0000
     1.0000   1.0000   1.0000   1.0000   1.0000   1.0000   1.0000   1.0000
     1.0000   1.0000   1.0000   1.0000   1.0000   1.0000   1.0000   1.0000
     1.0000   1.0000   1.0000   1.0000   1.0000   1.0000   1.0000   1.0000
     1.0000   1.0000   1.0000   1.0000   1.0000   1.0000   1.0000   1.0000
     1.0000   1.0000   1.0000   1.0000   1.0000   1.0000   1.0000   1.0000
     1.0000   1.0000   1.0000   1.0000   1.0000   1.0000   1.0000   1.0000
     1.0000   1.0000   1.0000   1.0000   1.0000   1.0000   1.0000   1.0000
     1.0000   1.0000   1.0000   1.0000   1.0000   1.0000   1.0000   1.0000
     1.0000   1.0000   1.0000   1.0000   1.0000   1.0000   1.0000   1.0000
     1.0000   1.0000   1.0000   1.0000   1.0000   1.0000   1.0000   1.0000
     1.0000   1.0000   1.0000   1.0000   1.0000   1.0000   1.0000   1.0000
     1.0000   1.0000   1.0000   1.0000   1.0000   1.0000   1.0000   1.0000
     1.0000   1.0000   1.0000   1.0000   1.0000   1.0000   1.0000   1.0000
     1.0000   1.0000   1.0000   1.0000   1.0000   1.0000   1.0000   1.0000

          k = 0.3333 0.1921 0.0601 ( 29237 PWs)   bands (ev):

   -67.7097 -67.7049 -67.5872 -67.2149 -67.1227 -67.1121 -34.4873 -34.4748
   -34.4617 -34.4583 -34.4514 -34.4473 -34.3537 -34.3511 -34.3241 -33.9757
   -33.9714 -33.9680 -33.9023 -33.8916 -33.8847 -33.8616 -33.8567 -33.8411
   -23.1268 -23.1026 -14.9810 -14.9317 -14.4150 -14.3749 -13.9754 -13.9419
   -13.3061 -13.2465 -13.1543 -13.1052 -13.0519 -13.0129 -12.9974 -12.9094
   -12.8725 -12.7906 -12.6734 -12.5954 -12.5443 -12.4753 -12.3020 -12.1927
   -11.2139 -10.9954  -6.6992  -6.6864  -6.6202  -6.6110  -6.5840  -6.5694
    -3.8097  -3.7365  -2.7387  -2.6347  -1.8416  -1.6613  -1.4408  -1.3589
    -0.9828  -0.8677  -0.8128  -0.7335  -0.4832  -0.3729  -0.3146  -0.2166
    -0.1563  -0.0144   0.1321   0.3097   0.3955   0.4842   0.5242   0.5539
     0.8616   0.9372   1.1686   1.2276   1.2819   1.3664   1.4126   1.4914
     1.5240   1.5938   1.6955   1.8136   2.0128   2.1698   2.2353   2.2851
     2.3432   2.4549   2.5120   2.5821   2.6395   2.7036   2.7635   2.8226
     2.8510   2.9346   2.9831   3.0215   3.0939   3.1137   3.1860   3.2168
     3.2781   3.3302   3.3667   3.4517   3.4713   3.5112   3.5729   3.6116
     3.7134   3.7572   3.8363   3.9112   3.9396   4.1706   4.2495   4.3029

     occupation numbers 
     1.0000   1.0000   1.0000   1.0000   1.0000   1.0000   1.0000   1.0000
     1.0000   1.0000   1.0000   1.0000   1.0000   1.0000   1.0000   1.0000
     1.0000   1.0000   1.0000   1.0000   1.0000   1.0000   1.0000   1.0000
     1.0000   1.0000   1.0000   1.0000   1.0000   1.0000   1.0000   1.0000
     1.0000   1.0000   1.0000   1.0000   1.0000   1.0000   1.0000   1.0000
     1.0000   1.0000   1.0000   1.0000   1.0000   1.0000   1.0000   1.0000
     1.0000   1.0000   1.0000   1.0000   1.0000   1.0000   1.0000   1.0000
     1.0000   1.0000   1.0000   1.0000   1.0000   1.0000   1.0000   1.0000
     1.0000   1.0000   1.0000   1.0000   1.0000   1.0000   1.0000   1.0000
     1.0000   1.0000   1.0000   1.0000   1.0000   1.0000   1.0000   1.0000
     1.0000   1.0000   1.0000   1.0000   1.0000   1.0000   1.0000   1.0000
     1.0000   1.0000   1.0000   1.0000   1.0000   1.0000   1.0000   1.0000
     1.0000   1.0000   1.0000   1.0000   1.0000   1.0000   1.0000   1.0000
     1.0000   1.0000   1.0000   1.0000   1.0000   1.0000   1.0000   1.0000
     1.0000   1.0000   1.0000   1.0000   1.0000   1.0000   1.0000   1.0000
     1.0000   1.0000   1.0000   1.0000   1.0000   1.0000   1.0000   1.0000

          k = 0.3333 0.1921 0.2360 ( 29239 PWs)   bands (ev):

   -67.7097 -67.7049 -67.5872 -67.2149 -67.1227 -67.1121 -34.4873 -34.4748
   -34.4617 -34.4583 -34.4514 -34.4473 -34.3537 -34.3511 -34.3241 -33.9757
   -33.9714 -33.9680 -33.9023 -33.8916 -33.8847 -33.8616 -33.8567 -33.8412
   -23.1268 -23.1026 -14.9632 -14.9503 -14.4111 -14.3790 -13.9695 -13.9483
   -13.3011 -13.2382 -13.1728 -13.0980 -13.0559 -13.0086 -12.9991 -12.9060
   -12.8719 -12.7943 -12.6657 -12.6092 -12.5292 -12.4848 -12.2916 -12.2020
   -11.2131 -10.9962  -6.6992  -6.6865  -6.6201  -6.6110  -6.5839  -6.5694
    -3.8080  -3.7381  -2.7043  -2.6729  -1.8220  -1.6886  -1.4148  -1.3471
    -0.9773  -0.8925  -0.7679  -0.7491  -0.4562  -0.4195  -0.3295  -0.2411
    -0.1365  -0.0586   0.1672   0.2602   0.3808   0.4628   0.5202   0.5969
     0.8583   0.9629   1.1710   1.2111   1.2928   1.3496   1.4685   1.5080
     1.5679   1.6381   1.6697   1.8181   2.0526   2.1152   2.2551   2.2786
     2.3134   2.4482   2.4875   2.5967   2.6471   2.6720   2.7322   2.7996
     2.8486   2.9141   2.9832   3.0341   3.0682   3.1189   3.1932   3.2448
     3.2855   3.3687   3.4065   3.4452   3.4620   3.5075   3.5402   3.5909
     3.7298   3.7752   3.7910   3.8640   4.0162   4.1438   4.2630   4.3235

     occupation numbers 
     1.0000   1.0000   1.0000   1.0000   1.0000   1.0000   1.0000   1.0000
     1.0000   1.0000   1.0000   1.0000   1.0000   1.0000   1.0000   1.0000
     1.0000   1.0000   1.0000   1.0000   1.0000   1.0000   1.0000   1.0000
     1.0000   1.0000   1.0000   1.0000   1.0000   1.0000   1.0000   1.0000
     1.0000   1.0000   1.0000   1.0000   1.0000   1.0000   1.0000   1.0000
     1.0000   1.0000   1.0000   1.0000   1.0000   1.0000   1.0000   1.0000
     1.0000   1.0000   1.0000   1.0000   1.0000   1.0000   1.0000   1.0000
     1.0000   1.0000   1.0000   1.0000   1.0000   1.0000   1.0000   1.0000
     1.0000   1.0000   1.0000   1.0000   1.0000   1.0000   1.0000   1.0000
     1.0000   1.0000   1.0000   1.0000   1.0000   1.0000   1.0000   1.0000
     1.0000   1.0000   1.0000   1.0000   1.0000   1.0000   1.0000   1.0000
     1.0000   1.0000   1.0000   1.0000   1.0000   1.0000   1.0000   1.0000
     1.0000   1.0000   1.0000   1.0000   1.0000   1.0000   1.0000   1.0000
     1.0000   1.0000   1.0000   1.0000   1.0000   1.0000   1.0000   1.0000
     1.0000   1.0000   1.0000   1.0000   1.0000   1.0000   1.0000   1.0000
     1.0000   1.0000   1.0000   1.0000   1.0000   1.0000   1.0000   1.0000

          k = 0.3333 0.1921-0.1157 ( 29244 PWs)   bands (ev):

   -67.7097 -67.7049 -67.5872 -67.2149 -67.1227 -67.1121 -34.4873 -34.4748
   -34.4617 -34.4583 -34.4514 -34.4473 -34.3537 -34.3511 -34.3241 -33.9757
   -33.9714 -33.9681 -33.9023 -33.8917 -33.8847 -33.8616 -33.8567 -33.8411
   -23.1268 -23.1026 -14.9754 -14.9376 -14.4070 -14.3833 -13.9694 -13.9483
   -13.3054 -13.2403 -13.1610 -13.1054 -13.0443 -13.0179 -13.0032 -12.9043
   -12.8719 -12.7947 -12.6619 -12.6109 -12.5224 -12.4920 -12.2927 -12.2006
   -11.2130 -10.9962  -6.6993  -6.6865  -6.6201  -6.6110  -6.5839  -6.5694
    -3.7779  -3.7695  -2.7252  -2.6502  -1.8330  -1.6711  -1.4363  -1.3541
    -0.9624  -0.8700  -0.7916  -0.7347  -0.4948  -0.3599  -0.3470  -0.2187
    -0.1945  -0.0399   0.1358   0.3128   0.4143   0.4785   0.5358   0.5585
     0.8855   0.9266   1.1598   1.2122   1.3024   1.3573   1.4683   1.4729
     1.5364   1.5889   1.7125   1.8414   1.9855   2.1481   2.2401   2.2490
     2.3195   2.4782   2.5018   2.5765   2.6378   2.6775   2.7314   2.8380
     2.8914   2.8995   2.9943   3.0344   3.1078   3.1299   3.1827   3.2747
     3.2965   3.3321   3.3899   3.4332   3.4819   3.5207   3.5415   3.5985
     3.6920   3.7520   3.8135   3.8191   4.0262   4.1511   4.2606   4.3174

     occupation numbers 
     1.0000   1.0000   1.0000   1.0000   1.0000   1.0000   1.0000   1.0000
     1.0000   1.0000   1.0000   1.0000   1.0000   1.0000   1.0000   1.0000
     1.0000   1.0000   1.0000   1.0000   1.0000   1.0000   1.0000   1.0000
     1.0000   1.0000   1.0000   1.0000   1.0000   1.0000   1.0000   1.0000
     1.0000   1.0000   1.0000   1.0000   1.0000   1.0000   1.0000   1.0000
     1.0000   1.0000   1.0000   1.0000   1.0000   1.0000   1.0000   1.0000
     1.0000   1.0000   1.0000   1.0000   1.0000   1.0000   1.0000   1.0000
     1.0000   1.0000   1.0000   1.0000   1.0000   1.0000   1.0000   1.0000
     1.0000   1.0000   1.0000   1.0000   1.0000   1.0000   1.0000   1.0000
     1.0000   1.0000   1.0000   1.0000   1.0000   1.0000   1.0000   1.0000
     1.0000   1.0000   1.0000   1.0000   1.0000   1.0000   1.0000   1.0000
     1.0000   1.0000   1.0000   1.0000   1.0000   1.0000   1.0000   1.0000
     1.0000   1.0000   1.0000   1.0000   1.0000   1.0000   1.0000   1.0000
     1.0000   1.0000   1.0000   1.0000   1.0000   1.0000   1.0000   1.0000
     1.0000   1.0000   1.0000   1.0000   1.0000   1.0000   1.0000   1.0000
     1.0000   1.0000   1.0000   1.0000   1.0000   1.0000   1.0000   1.0000

          k =-0.5000 0.0000-0.0902 ( 29248 PWs)   bands (ev):

   -67.7096 -67.7050 -67.5872 -67.2149 -67.1227 -67.1121 -34.4863 -34.4765
   -34.4612 -34.4580 -34.4515 -34.4475 -34.3537 -34.3511 -34.3241 -33.9754
   -33.9717 -33.9681 -33.9025 -33.8905 -33.8853 -33.8594 -33.8589 -33.8415
   -23.1266 -23.1025 -14.8316 -14.7880 -14.5632 -14.5234 -14.0002 -13.9637
   -13.2425 -13.1868 -13.1383 -13.1072 -13.0457 -13.0300 -12.9824 -12.9500
   -12.8891 -12.7730 -12.7113 -12.6525 -12.5679 -12.4798 -12.2973 -12.1923
   -11.2123 -11.0006  -6.6999  -6.6890  -6.6182  -6.6104  -6.5845  -6.5656
    -3.4567  -3.3853  -2.9310  -2.8566  -1.8548  -1.7534  -1.3569  -1.3481
    -1.0398  -0.9095  -0.8214  -0.7440  -0.4389  -0.3558  -0.3221  -0.2585
    -0.1010  -0.0791   0.2912   0.3092   0.3616   0.4839   0.5362   0.5456
[...]
     atom    8 type  4   force =     0.00000000    0.00042651   -0.00000000
     atom    9 type  6   force =     0.00222384    0.01055133    0.00595412
     atom   10 type  6   force =    -0.00222388    0.01055134   -0.00595403
     atom   11 type  6   force =     0.00037894    0.00326418   -0.01356733
     atom   12 type  6   force =    -0.00037890    0.00326418    0.01356729
     atom   13 type  6   force =    -0.00151077   -0.01165217    0.01079206
     atom   14 type  6   force =     0.00151081   -0.01165217   -0.01079211
     atom   15 type  1   force =    -0.00057596   -0.00230737   -0.01035010
     atom   16 type  1   force =     0.00057595   -0.00230737    0.01035014
     atom   17 type  5   force =    -0.00014378    0.00021141    0.00648254
     atom   18 type  5   force =     0.00014376    0.00021141   -0.00648253
     atom   19 type  5   force =    -0.00009715    0.00008036   -0.00698666
     atom   20 type  5   force =     0.00009715    0.00008036    0.00698665
     atom   21 type  5   force =     0.00006057   -0.00021745    0.00684685
     atom   22 type  5   force =    -0.00006059   -0.00021745   -0.00684685
     atom   23 type  5   force =     0.00007894    0.00005994   -0.00322260
     atom   24 type  5   force =    -0.00007894    0.00005994    0.00322260
     atom   25 type  5   force =     0.00459671   -0.00174154   -0.00580823
     atom   26 type  5   force =    -0.00459671   -0.00174154    0.00580821
     atom   27 type  5   force =    -0.00344491    0.00079405   -0.00709769
     atom   28 type  5   force =     0.00344492    0.00079405    0.00709766
     atom   29 type  5   force =    -0.00163794    0.00235096    0.00728209
     atom   30 type  5   force =     0.00163794    0.00235097   -0.00728211
     atom   31 type  5   force =     0.00090688   -0.00218384   -0.00745626
     atom   32 type  5   force =    -0.00090688   -0.00218385    0.00745626
     atom   33 type  5   force =    -0.00243799   -0.00349176   -0.00646997
     atom   34 type  5   force =     0.00243798   -0.00349177    0.00646997
     atom   35 type  5   force =     0.00110458    0.00410111    0.00642153
     atom   36 type  5   force =    -0.00110458    0.00410111   -0.00642155
     atom   37 type  5   force =    -0.00008874    0.00049356    0.01132299
     atom   38 type  5   force =     0.00008876    0.00049356   -0.01132296
     atom   39 type  5   force =    -0.00004893   -0.00133449    0.01109257
     atom   40 type  5   force =     0.00004895   -0.00133447   -0.01109253
     atom   41 type  2   force =     0.00000000    0.00000000    0.00000000
     atom   42 type  2   force =     0.00000000    0.00000000    0.00000000
     atom   43 type  2   force =     0.00000000    0.00000000    0.00000000
     atom   44 type  2   force =     0.00000000    0.00000000    0.00000000
     The Hubbard contrib.    to forces
     atom    1 type  3   force =     0.00000000    0.00000000    0.00000000
     atom    2 type  3   force =     0.00000000    0.00000000    0.00000000
     atom    3 type  4   force =     0.00000000    0.00000000    0.00000000
     atom    4 type  4   force =     0.00000000    0.00000000    0.00000000
     atom    5 type  4   force =     0.00000000    0.00000000    0.00000000
     atom    6 type  4   force =     0.00000000    0.00000000    0.00000000
     atom    7 type  4   force =     0.00000000    0.00000000    0.00000000
     atom    8 type  4   force =     0.00000000    0.00000000    0.00000000
     atom    9 type  6   force =     0.00000000    0.00000000    0.00000000
     atom   10 type  6   force =     0.00000000    0.00000000    0.00000000
     atom   11 type  6   force =     0.00000000    0.00000000    0.00000000
     atom   12 type  6   force =     0.00000000    0.00000000    0.00000000
     atom   13 type  6   force =     0.00000000    0.00000000    0.00000000
     atom   14 type  6   force =     0.00000000    0.00000000    0.00000000
     atom   15 type  1   force =     0.00000000    0.00000000    0.00000000
     atom   16 type  1   force =     0.00000000    0.00000000    0.00000000
     atom   17 type  5   force =     0.00000000    0.00000000    0.00000000
     atom   18 type  5   force =     0.00000000    0.00000000    0.00000000
     atom   19 type  5   force =     0.00000000    0.00000000    0.00000000
     atom   20 type  5   force =     0.00000000    0.00000000    0.00000000
     atom   21 type  5   force =     0.00000000    0.00000000    0.00000000
     atom   22 type  5   force =     0.00000000    0.00000000    0.00000000
     atom   23 type  5   force =     0.00000000    0.00000000    0.00000000
     atom   24 type  5   force =     0.00000000    0.00000000    0.00000000
     atom   25 type  5   force =     0.00000000    0.00000000    0.00000000
     atom   26 type  5   force =     0.00000000    0.00000000    0.00000000
     atom   27 type  5   force =     0.00000000    0.00000000    0.00000000
     atom   28 type  5   force =     0.00000000    0.00000000    0.00000000
     atom   29 type  5   force =     0.00000000    0.00000000    0.00000000
     atom   30 type  5   force =     0.00000000    0.00000000    0.00000000
     atom   31 type  5   force =     0.00000000    0.00000000    0.00000000
     atom   32 type  5   force =     0.00000000    0.00000000    0.00000000
     atom   33 type  5   force =     0.00000000    0.00000000    0.00000000
     atom   34 type  5   force =     0.00000000    0.00000000    0.00000000
     atom   35 type  5   force =     0.00000000    0.00000000    0.00000000
     atom   36 type  5   force =     0.00000000    0.00000000    0.00000000
     atom   37 type  5   force =     0.00000000    0.00000000    0.00000000
     atom   38 type  5   force =     0.00000000    0.00000000    0.00000000
     atom   39 type  5   force =     0.00000000    0.00000000    0.00000000
     atom   40 type  5   force =     0.00000000    0.00000000    0.00000000
     atom   41 type  2   force =     0.00000000    0.00000000    0.00000000
     atom   42 type  2   force =     0.00000000    0.00000000    0.00000000
     atom   43 type  2   force =     0.00000000    0.00000000    0.00000000
     atom   44 type  2   force =     0.00000000    0.00000000    0.00000000
     The SCF correction term to forces
     atom    1 type  3   force =    -0.00000000   -0.00000093    0.00000000
     atom    2 type  3   force =    -0.00000000    0.00000117    0.00000000
     atom    3 type  4   force =    -0.00000000    0.00000243   -0.00000000
     atom    4 type  4   force =     0.00000000   -0.00000104   -0.00000000
     atom    5 type  4   force =     0.00000000   -0.00000215   -0.00000000
     atom    6 type  4   force =    -0.00000000   -0.00000373   -0.00000000
     atom    7 type  4   force =     0.00000000    0.00000040    0.00000000
     atom    8 type  4   force =     0.00000000    0.00000411    0.00000000
     atom    9 type  6   force =    -0.00000020   -0.00000006   -0.00000265
     atom   10 type  6   force =     0.00000020   -0.00000006    0.00000265
     atom   11 type  6   force =     0.00000018    0.00000011    0.00000421
     atom   12 type  6   force =    -0.00000018    0.00000011   -0.00000421
     atom   13 type  6   force =     0.00000020    0.00000002   -0.00000307
     atom   14 type  6   force =    -0.00000020    0.00000002    0.00000307
     atom   15 type  1   force =    -0.00000008   -0.00000008    0.00000179
     atom   16 type  1   force =     0.00000008   -0.00000008   -0.00000179
     atom   17 type  5   force =    -0.00000005    0.00000081   -0.00000096
     atom   18 type  5   force =     0.00000005    0.00000081    0.00000096
     atom   19 type  5   force =    -0.00000015   -0.00000017    0.00000245
     atom   20 type  5   force =     0.00000015   -0.00000017   -0.00000245
     atom   21 type  5   force =     0.00000008   -0.00000102   -0.00000140
     atom   22 type  5   force =    -0.00000008   -0.00000102    0.00000140
     atom   23 type  5   force =     0.00000009   -0.00000030    0.00000198
     atom   24 type  5   force =    -0.00000009   -0.00000030   -0.00000198
     atom   25 type  5   force =     0.00000307    0.00000107   -0.00000335
     atom   26 type  5   force =    -0.00000307    0.00000107    0.00000335
     atom   27 type  5   force =    -0.00000104   -0.00000052   -0.00000488
     atom   28 type  5   force =     0.00000104   -0.00000052    0.00000488
     atom   29 type  5   force =     0.00000028    0.00000067    0.00000459
     atom   30 type  5   force =    -0.00000028    0.00000067   -0.00000459
     atom   31 type  5   force =     0.00000056   -0.00000009   -0.00000417
     atom   32 type  5   force =    -0.00000056   -0.00000009    0.00000417
     atom   33 type  5   force =     0.00000012   -0.00000285   -0.00000349
     atom   34 type  5   force =    -0.00000012   -0.00000285    0.00000349
     atom   35 type  5   force =     0.00000261    0.00000175    0.00000312
     atom   36 type  5   force =    -0.00000261    0.00000175   -0.00000312
     atom   37 type  5   force =    -0.00000018   -0.00000090   -0.00000288
     atom   38 type  5   force =     0.00000018   -0.00000090    0.00000288
     atom   39 type  5   force =    -0.00000020    0.00000126   -0.00000291
     atom   40 type  5   force =     0.00000020    0.00000126    0.00000291
     atom   41 type  2   force =    -0.00000003   -0.00000012   -0.00000063
     atom   42 type  2   force =     0.00000003   -0.00000012    0.00000063
     atom   43 type  2   force =     0.00000002    0.00000017   -0.00000065
     atom   44 type  2   force =    -0.00000002    0.00000017    0.00000065

     DFT-D3 dispersion contribution to forces:
     atom    1 type  3   force =    -0.00000000    0.00104162    0.00000000
     atom    2 type  3   force =    -0.00000000   -0.00091722   -0.00000000
     atom    3 type  4   force =     0.00000000    0.00032281   -0.00000000
     atom    4 type  4   force =    -0.00000000    0.00073409    0.00000000
     atom    5 type  4   force =    -0.00000000   -0.00110983    0.00000000
     atom    6 type  4   force =     0.00000000   -0.00063709    0.00000000
     atom    7 type  4   force =    -0.00000000    0.00111001    0.00000000
     atom    8 type  4   force =    -0.00000000   -0.00020427   -0.00000000
     atom    9 type  6   force =     0.00003689   -0.00007264   -0.00023302
     atom   10 type  6   force =    -0.00003689   -0.00007264    0.00023302
     atom   11 type  6   force =     0.00004303    0.00005453    0.00016267
     atom   12 type  6   force =    -0.00004303    0.00005453   -0.00016267
     atom   13 type  6   force =    -0.00003067    0.00015659   -0.00014736
     atom   14 type  6   force =     0.00003067    0.00015659    0.00014736
     atom   15 type  1   force =     0.00002193    0.00009625   -0.00101754
     atom   16 type  1   force =    -0.00002193    0.00009625    0.00101754
     atom   17 type  5   force =    -0.00000785    0.00005015    0.00046811
     atom   18 type  5   force =     0.00000785    0.00005015   -0.00046811
     atom   19 type  5   force =     0.00000139    0.00000929   -0.00040876
     atom   20 type  5   force =    -0.00000139    0.00000929    0.00040876
     atom   21 type  5   force =    -0.00001425   -0.00005063    0.00043615
     atom   22 type  5   force =     0.00001425   -0.00005063   -0.00043615
     atom   23 type  5   force =    -0.00002309   -0.00002465    0.00006792
     atom   24 type  5   force =     0.00002309   -0.00002465   -0.00006792
     atom   25 type  5   force =    -0.00018766    0.00098299    0.00030262
     atom   26 type  5   force =     0.00018766    0.00098299   -0.00030262
     atom   27 type  5   force =     0.00087263    0.00007741    0.00020519
     atom   28 type  5   force =    -0.00087263    0.00007741   -0.00020519
     atom   29 type  5   force =     0.00035525   -0.00053715    0.00001584
     atom   30 type  5   force =    -0.00035525   -0.00053715   -0.00001584
     atom   31 type  5   force =    -0.00020310    0.00032658   -0.00007614
     atom   32 type  5   force =     0.00020310    0.00032658    0.00007614
     atom   33 type  5   force =     0.00096817   -0.00043702    0.00041840
     atom   34 type  5   force =    -0.00096817   -0.00043702   -0.00041840
     atom   35 type  5   force =     0.00065296   -0.00049371   -0.00046833
     atom   36 type  5   force =    -0.00065296   -0.00049371    0.00046833
     atom   37 type  5   force =    -0.00000870   -0.00004253   -0.00048031
     atom   38 type  5   force =     0.00000870   -0.00004253    0.00048031
     atom   39 type  5   force =     0.00002270    0.00004731   -0.00050994
     atom   40 type  5   force =    -0.00002270    0.00004731    0.00050994
     atom   41 type  2   force =    -0.00000539    0.00006986   -0.00027375
     atom   42 type  2   force =     0.00000539    0.00006986    0.00027375
     atom   43 type  2   force =     0.00003986   -0.00038270   -0.00029124
     atom   44 type  2   force =    -0.00003986   -0.00038270    0.00029124

     Total force =     0.000595     Total SCF correction =     0.000021

     DFT-D3 dispersion Force =     0.004469


     Computing stress (Cartesian axis) and pressure

          total   stress  (Ry/bohr**3)                   (kbar)     P=       -0.09
  -0.00000034   0.00000000   0.00000002           -0.05        0.00        0.00
   0.00000000  -0.00000059   0.00000000            0.00       -0.09        0.00
   0.00000002   0.00000000  -0.00000092            0.00        0.00       -0.14

     kinetic stress (kbar)  18794.67      0.00     -2.79
                                0.00  18791.71      0.00
                               -2.79      0.00  18477.07

     local   stress (kbar) -36564.80      0.00    -62.62
                                0.00 -36301.14      0.00
                              -62.62      0.00  14079.55

     nonloc. stress (kbar)   4992.63      0.00     -0.42
                                0.00   4992.60      0.00
                               -0.42      0.00   4984.06

     hartree stress (kbar)  20102.06      0.00     24.59
                                0.00  19987.73      0.00
                               24.59      0.00  -4696.76

     exc-cor stress (kbar)  -2736.07     -0.00      0.02
                               -0.00  -2736.16      0.00
                                0.02      0.00  -2732.87

     corecor stress (kbar)  -1824.00      0.00      0.11
                                0.00  -1824.03     -0.00
                                0.11     -0.00  -1825.57

     ewald   stress (kbar)  -2749.49     -0.00     41.02
                               -0.00  -2895.61     -0.00
                               41.02     -0.00 -28274.51

     hubbard stress (kbar)      0.00      0.00      0.00
                                0.00      0.00      0.00
                                0.00      0.00      0.00

     DFT-D   stress (kbar)    -15.04      0.00      0.10
                                0.00    -15.20     -0.00
                                0.10     -0.00    -11.10

     XDM     stress (kbar)      0.00      0.00      0.00
                                0.00      0.00      0.00
                                0.00      0.00      0.00

     dft-nl  stress (kbar)      0.00      0.00      0.00
                                0.00      0.00      0.00
                                0.00      0.00      0.00

     TS-vdW  stress (kbar)      0.00      0.00      0.00
                                0.00      0.00      0.00
                                0.00      0.00      0.00

     MDB     stress (kbar)      0.00      0.00      0.00
                                0.00      0.00      0.00
                                0.00      0.00      0.00

     3D-RISM stress (kbar)      0.00      0.00      0.00
                                0.00      0.00      0.00
                                0.00      0.00      0.00


     Writing all to output data dir ./temp/phl-fe0-dftd3.save/ :
     XML data file, charge density, pseudopotentials, collected wavefunctions

     init_run     :    178.15s CPU    180.18s WALL (       2 calls)
     electrons    : 178769.96s CPU 179990.38s WALL (      40 calls)
     update_pot   :     52.42s CPU     53.09s WALL (      38 calls)
     forces       :   2403.36s CPU   2424.35s WALL (      40 calls)
     force_dftd3  :    163.66s CPU    163.98s WALL (      40 calls)
     stress       :   7897.98s CPU   7991.39s WALL (      40 calls)
     stres_dftd3  :    163.49s CPU    163.80s WALL (      40 calls)

     Called by init_run:
     wfcinit      :    168.76s CPU    169.85s WALL (       2 calls)
     wfcinit:atom :      0.28s CPU      0.28s WALL (      40 calls)
     wfcinit:wfcr :    166.11s CPU    167.18s WALL (      40 calls)
     potinit      :      2.77s CPU      2.82s WALL (       2 calls)
     hinit0       :      1.30s CPU      1.34s WALL (       2 calls)

     Called by electrons:
     c_bands      : 167014.19s CPU 167734.21s WALL (     484 calls)
     sum_band     :   9980.63s CPU  10291.76s WALL (     484 calls)
     v_of_rho     :     91.51s CPU     95.00s WALL (     490 calls)
     v_h          :      6.53s CPU      6.93s WALL (     490 calls)
     v_xc         :     98.95s CPU    102.49s WALL (     570 calls)
     newd         :   1173.34s CPU   1373.69s WALL (     490 calls)
     PAW_pot      :    543.98s CPU    544.15s WALL (     528 calls)
     mix_rho      :     13.92s CPU     14.58s WALL (     484 calls)
     energy_dftd3 :    125.99s CPU    126.02s WALL (      40 calls)

     Called by c_bands:
     init_us_2    :    386.79s CPU    387.62s WALL (   21760 calls)
     cegterg      : 166239.87s CPU 166958.64s WALL (    9720 calls)

     Called by sum_band:
     sum_band:wei :      0.01s CPU      0.01s WALL (     484 calls)
     sum_band:loo :   8371.27s CPU   8444.04s WALL (     484 calls)
     sum_band:buf :     38.22s CPU     38.36s WALL (    9680 calls)
     sum_band:ini :    173.79s CPU    174.06s WALL (    9680 calls)
     sum_band:cal :   6419.42s CPU   6425.04s WALL (   10440 calls)
     sum_band:bec :     14.08s CPU     14.13s WALL (   10440 calls)
     addusdens    :   1576.13s CPU   1813.27s WALL (     484 calls)
                                        0.00s GPU  (     484 calls)
     addusd:skk   :     12.43s CPU     19.31s WALL (    2904 calls)
                                        0.00s GPU  (    2904 calls)

     Called by *egterg:
     cdiaghg      :   5138.25s CPU   5139.43s WALL (   76811 calls)
     cegterg:over :  20546.67s CPU  20571.32s WALL (   68571 calls)
     cegterg:upda :  12224.93s CPU  12238.92s WALL (   68571 calls)
     cegterg:last :  34647.60s CPU  34658.89s WALL (   41117 calls)
     h_psi        :  64136.37s CPU  64754.38s WALL (   78331 calls)
     s_psi        :  25303.04s CPU  25312.24s WALL (   78331 calls)
     g_psi        :    139.83s CPU    140.15s WALL (   68571 calls)

     Called by h_psi:
     h_psi:calbec :  25082.30s CPU  25106.29s WALL (   78331 calls)
     vloc_psi     :  13609.17s CPU  14180.45s WALL (   78331 calls)
     add_vuspsi   :  25287.09s CPU  25296.35s WALL (   78331 calls)

     General routines
     calbec       :  33976.90s CPU  34008.67s WALL (   92771 calls)
     fft          :     60.60s CPU     66.35s WALL (    7362 calls)
     ffts         :      1.60s CPU      1.77s WALL (     974 calls)
     fftw         :  10924.83s CPU  11314.47s WALL (11790630 calls)
     interpolate  :      6.03s CPU      6.47s WALL (     490 calls)

     Parallel routines

     PAW routines
     PAW_pot      :    543.98s CPU    544.15s WALL (     528 calls)
     PAW_symme    :      0.25s CPU      0.26s WALL (    1012 calls)

     PWSCF        :   2d 4h45m CPU   2d 5h 7m WALL


   This run was terminated on:  16:56:27  26May2025            

=------------------------------------------------------------------------------=
   JOB DONE.
=------------------------------------------------------------------------------=
