
     Program PWSCF v.7.3.1 starts on 15Dec2025 at 11: 5:53 

     This program is part of the open-source Quantum ESPRESSO suite
     for quantum simulation of materials; please cite
         "P. Giannozzi et al., J. Phys.:Condens. Matter 21 395502 (2009);
         "P. Giannozzi et al., J. Phys.:Condens. Matter 29 465901 (2017);
         "P. Giannozzi et al., J. Chem. Phys. 152 154105 (2020);
          URL http://www.quantum-espresso.org", 
     in publications or presentations arising from this work. More details at
     http://www.quantum-espresso.org/quote

     Parallel version (MPI), running on    14 processors

     MPI processes distributed on     1 nodes
     27745 MiB available memory on the printing compute node when the environment starts

     Reading input from vc_relax.in

     Current dimensions of program PWSCF are:
     Max number of different atomic species (ntypx) = 10
     Max number of k-points (npk) =  40000
     Max angular momentum in pseudopotentials (lmaxx) =  4
     file Al.pbe-n-kjpaw_psl.1.0.0.UPF: wavefunction(s)  3S 3P renormalized
     file H.pbe-kjpaw_psl.1.0.0.UPF: wavefunction(s)  1S renormalized
     file K.pbe-spn-kjpaw_psl.1.0.0.UPF: wavefunction(s)  3S renormalized
     file Mg.pbe-spnl-kjpaw_psl.1.0.0.UPF: wavefunction(s)  2P renormalized
     file O.pbe-n-kjpaw_psl.1.0.0.UPF: wavefunction(s)  2S 2P renormalized
     file Si.pbe-n-kjpaw_psl.1.0.0.UPF: wavefunction(s)  3S 3P renormalized

     K-points division:     npool     =       2
     R & G space division:  proc/nbgrp/npool/nimage =       7
     Subspace diagonalization in iterative solution of the eigenvalue problem:
     a serial algorithm will be used


     Parallelization info
     --------------------
     sticks:   dense  smooth     PW     G-vecs:    dense   smooth      PW
     Min        1425     712    191               153973    54439    7571
     Max        1426     713    192               153974    54443    7575
     Sum        9981    4989   1341              1077817   381081   53011

     Using Slab Decomposition



     bravais-lattice index     =          -12
     lattice parameter (alat)  =      10.0136  a.u.
     unit-cell volume          =    3303.4414 (a.u.)^3
     number of atoms/cell      =           44
     number of atomic types    =            6
     number of electrons       =       256.00
     number of Kohn-Sham states=          128
     kinetic-energy cutoff     =      90.0000  Ry
     charge density cutoff     =     720.0000  Ry
     scf convergence threshold =      1.0E-08
     mixing beta               =       0.7000
     number of iterations used =            8  plain     mixing
     energy convergence thresh.=      1.0E-05
     force convergence thresh. =      1.0E-04
     press convergence thresh. =      5.0E-02
     Exchange-correlation= SLA  PW   PBX  PBC
                           (   1   4   3   4   0   0   0)
     nstep                     =          100


     celldm(1)=  10.013640  celldm(2)=   1.735306  celldm(3)=   1.926511
     celldm(4)=   0.000000  celldm(5)=  -0.177565  celldm(6)=   0.000000

     crystal axes: (cart. coord. in units of alat)
               a(1) = (   1.000000   0.000000   0.000000 )  
               a(2) = (   0.000000   1.735306   0.000000 )  
               a(3) = (  -0.342081   0.000000   1.895896 )  

     reciprocal axes: (cart. coord. in units 2 pi/alat)
               b(1) = (  1.000000 -0.000000  0.180432 )  
               b(2) = (  0.000000  0.576267 -0.000000 )  
               b(3) = (  0.000000  0.000000  0.527455 )  


     PseudoPot. # 1 for Al read from file:
     ./../../pseudos/Al.pbe-n-kjpaw_psl.1.0.0.UPF
     MD5 check sum: 502b6b27b9c6270cab5dd1084b96fa6d
     Pseudo is Projector augmented-wave + core cor, Zval =  3.0
     Generated using &quot;atomic&quot; code by A. Dal Corso  v.6.3
     Shape of augmentation charge: PSQ
     Using radial grid of 1135 points,  6 beta functions with: 
                l(1) =   0
                l(2) =   0
                l(3) =   1
                l(4) =   1
                l(5) =   2
                l(6) =   2
     Q(r) pseudized with 0 coefficients 


     PseudoPot. # 2 for H  read from file:
     ./../../pseudos/H.pbe-kjpaw_psl.1.0.0.UPF
     MD5 check sum: d81a744832360e4a8af0b0b5b123bc2a
     Pseudo is Projector augmented-wave, Zval =  1.0
     Generated using &quot;atomic&quot; code by A. Dal Corso  v.6.3MaX
     Shape of augmentation charge: PSQ
     Using radial grid of  929 points,  2 beta functions with: 
                l(1) =   0
                l(2) =   0
     Q(r) pseudized with 0 coefficients 


     PseudoPot. # 3 for K  read from file:
     ./../../pseudos/K.pbe-spn-kjpaw_psl.1.0.0.UPF
     MD5 check sum: 34cc42130a09071ebe376fd42eb21491
     Pseudo is Projector augmented-wave + core cor, Zval =  9.0
     Generated using &quot;atomic&quot; code by A. Dal Corso  v.6.2.2
     Shape of augmentation charge: PSQ
     Using radial grid of 1165 points,  6 beta functions with: 
                l(1) =   0
                l(2) =   0
                l(3) =   1
                l(4) =   1
                l(5) =   2
                l(6) =   2
     Q(r) pseudized with 0 coefficients 


     PseudoPot. # 4 for Mg read from file:
     ./../../pseudos/Mg.pbe-spnl-kjpaw_psl.1.0.0.UPF
     MD5 check sum: fda14e0d92a6a9a5ebed782e5a4b3067
     Pseudo is Projector augmented-wave + core cor, Zval = 10.0
     Generated using &quot;atomic&quot; code by A. Dal Corso  v.6.3
     Shape of augmentation charge: PSQ
     Using radial grid of 1129 points,  4 beta functions with: 
                l(1) =   0
                l(2) =   0
                l(3) =   1
                l(4) =   1
     Q(r) pseudized with 0 coefficients 


     PseudoPot. # 5 for O  read from file:
     ./../../pseudos/O.pbe-n-kjpaw_psl.1.0.0.UPF
     MD5 check sum: e99d9cef9b487d1ca56f5b95ecd0fd7a
     Pseudo is Projector augmented-wave + core cor, Zval =  6.0
     Generated using &quot;atomic&quot; code by A. Dal Corso  v.6.3
     Shape of augmentation charge: PSQ
     Using radial grid of 1095 points,  4 beta functions with: 
                l(1) =   0
                l(2) =   0
                l(3) =   1
                l(4) =   1
     Q(r) pseudized with 0 coefficients 


     PseudoPot. # 6 for Si read from file:
     ./../../pseudos/Si.pbe-n-kjpaw_psl.1.0.0.UPF
     MD5 check sum: c39c59da582df4a0d9f10159256ea34e
     Pseudo is Projector augmented-wave + core cor, Zval =  4.0
     Generated using &quot;atomic&quot; code by A. Dal Corso  v.6.3
     Shape of augmentation charge: PSQ
     Using radial grid of 1141 points,  6 beta functions with: 
                l(1) =   0
                l(2) =   0
                l(3) =   1
                l(4) =   1
                l(5) =   2
                l(6) =   2
     Q(r) pseudized with 0 coefficients 


     atomic species   valence    mass     pseudopotential
     Al                3.00    26.98154     Al( 1.00)
     H                 1.00     1.00794     H ( 1.00)
     K                 9.00    39.09830     K ( 1.00)
     Mg               10.00    24.30500     Mg( 1.00)
     O                 6.00    15.99940     O ( 1.00)
     Si                4.00    28.08550     Si( 1.00)

      2 Sym. Ops. (no inversion) found


                                    s                        frac. trans.

      isym =  1     identity                                     

 cryst.   s( 1) = (     1          0          0      )
                  (     0          1          0      )
                  (     0          0          1      )

 cart.    s( 1) = (  1.0000000  0.0000000 -0.0000000 )
                  (  0.0000000  1.0000000  0.0000000 )
                  (  0.0000000  0.0000000  1.0000000 )


      isym =  2     180 deg rotation - cart. axis [0,1,0]        

 cryst.   s( 2) = (    -1          0          0      )
                  (     0          1          0      )
                  (     0          0         -1      )

 cart.    s( 2) = ( -1.0000000  0.0000000  0.0000000 )
                  (  0.0000000  1.0000000  0.0000000 )
                  (  0.0000000  0.0000000 -1.0000000 )


     point group C_2  (2)   
     there are  2 classes
     the character table:

       E     C2   
A      1.00  1.00
B      1.00 -1.00

     the symmetry operations in each class and the name of the first element:

     E        1
          identity                                               
     C2       2
          180 deg rotation - cart. axis [0,1,0]                  

   Cartesian axes

     site n.     atom                  positions (alat units)
         1        K      tau(   1) = (   0.0000000   0.8604261   0.0000000  )
         2        K      tau(   2) = (   0.5000000   0.0018876   0.0000000  )
         3        Mg     tau(   3) = (  -0.1710407   0.0079099   0.9479482  )
         4        Mg     tau(   4) = (  -0.1710407   0.5782898   0.9479482  )
         5        Mg     tau(   5) = (  -0.1710407   1.1542312   0.9479482  )
         6        Mg     tau(   6) = (   0.3289593   0.8554459   0.9479482  )
         7        Mg     tau(   7) = (   0.3289593   1.4487216   0.9479482  )
         8        Mg     tau(   8) = (   0.3289593   0.2991675   0.9479482  )
         9        Si     tau(   9) = (   0.0090284   0.2864872   0.4210733  )
        10        Si     tau(  10) = (   0.6488903   0.2864872   1.4748231  )
        11        Si     tau(  11) = (   0.6722282   1.4479930   1.4623905  )
        12        Si     tau(  12) = (  -0.0143095   1.4479930   0.4335059  )
        13        Si     tau(  13) = (   0.4850803   1.1562008   0.4295193  )
        14        Si     tau(  14) = (   0.1728384   1.1562008   1.4663770  )
        15        Al     tau(  15) = (   0.1481899   0.5740439   1.4716789  )
        16        Al     tau(  16) = (   0.5097288   0.5740439   0.4242175  )
        17        O      tau(  17) = (  -0.0036923   0.2841580   0.7290322  )
        18        O      tau(  18) = (   0.6616110   0.2841580   1.1668643  )
        19        O      tau(  19) = (   0.6663604   1.4460068   1.1570578  )
        20        O      tau(  20) = (  -0.0084417   1.4460068   0.7388386  )
        21        O      tau(  21) = (   0.4918288   1.1609006   0.7361657  )
        22        O      tau(  22) = (   0.1660899   1.1609006   1.1597307  )
        23        O      tau(  23) = (   0.1543760   0.5776314   1.1451517  )
        24        O      tau(  24) = (   0.5035427   0.5776314   0.7507447  )
        25        O      tau(  25) = (   0.2896626   0.3488295   0.3130254  )
        26        O      tau(  26) = (   0.3682561   0.3488295   1.5828710  )
        27        O      tau(  27) = (   0.9379949   1.7308830   0.3168095  )
        28        O      tau(  28) = (  -0.2800762   1.7308830   1.5790869  )
        29        O      tau(  29) = (   0.4011279   1.3435021   1.5763300  )
        30        O      tau(  30) = (   0.2567907   1.3435021   0.3195664  )
        31        O      tau(  31) = (   0.7559692   1.2714172   0.3178259  )
        32        O      tau(  32) = (  -0.0980505   1.2714172   1.5780704  )
        33        O      tau(  33) = (   0.4406887   0.8806118   0.3062977  )
        34        O      tau(  34) = (   0.2172300   0.8806118   1.5895988  )
        35        O      tau(  35) = (  -0.1480607   0.4826304   1.5948965  )
        36        O      tau(  36) = (   0.8059795   0.4826304   0.3009999  )
        37        O      tau(  37) = (  -0.0043157   0.8748496   0.7468216  )
        38        O      tau(  38) = (   0.6622345   0.8748496   1.1490747  )
        39        O      tau(  39) = (   0.4965493   1.7344061   0.7532279  )
        40        O      tau(  40) = (   0.1613694   1.7344061   1.1426685  )
        41        H      tau(  41) = (  -0.0029877   0.8558354   0.5656768  )
        42        H      tau(  42) = (   0.6609064   0.8558354   1.3302197  )
        43        H      tau(  43) = (   0.4902250   0.0289369   0.5734113  )
        44        H      tau(  44) = (   0.1676937   0.0289369   1.3224850  )

     --------------------------------------------
     DFT-D3 Dispersion Correction (3-body terms):
     --------------------------------------------
       Reference C6 values for interpolation: 

         atom   Coordination number   C6
         H          0.912             6.05
         H          0.000            15.18
         O          0.000            31.01
         O          0.993            25.63
         O          1.989            20.74
         Mg         0.000          1366.75
         Mg         0.963           902.54
         Mg         1.950           351.12
         Al         0.000          1081.08
         Al         0.965           875.51
         Al         1.931           513.50
         Al         2.915           307.19
         Si         0.000           635.71
         Si         0.951           540.53
         Si         1.944           466.25
         Si         2.941           443.01
         Si         3.868           299.55
         K          0.000          9967.00
         K          0.977           676.04

       Values used:

         atom   Coordination number  R0_AB[au]  C6      C8
         K         13.670            4.007    676.04 129074.98
         K         13.886            4.007    676.04 129074.98
         Mg        11.853            3.292    351.12  31436.69
         Mg        12.228            3.292    351.12  31436.69
         Mg        11.781            3.292    351.12  31436.69
         Mg        12.069            3.292    351.12  31436.69
         Mg        11.739            3.292    351.12  31436.69
         Mg        12.250            3.292    351.12  31436.69
         Si         6.921            3.583    299.55  21425.58
         Si         6.921            3.583    299.55  21425.58
         Si         6.590            3.583    299.55  21425.58
         Si         6.590            3.583    299.55  21425.58
         Si         6.639            3.583    299.55  21425.58
         Si         6.639            3.583    299.55  21425.58
         Al         7.819            3.789    307.19  29441.29
         Al         7.819            3.789    307.19  29441.29
         O          3.929            2.345     20.74    418.58
         O          3.929            2.345     20.74    418.58
         O          3.930            2.345     20.74    418.58
         O          3.930            2.345     20.74    418.58
         O          3.913            2.345     20.74    418.58
         O          3.913            2.345     20.74    418.58
         O          3.993            2.345     20.74    418.58
         O          3.993            2.345     20.74    418.58
         O          3.162            2.345     20.74    418.58
         O          3.162            2.345     20.74    418.58
         O          3.159            2.345     20.74    418.58
         O          3.159            2.345     20.74    418.58
         O          3.107            2.345     20.74    418.58
         O          3.107            2.345     20.74    418.58
         O          3.116            2.345     20.74    418.58
         O          3.116            2.345     20.74    418.58
         O          3.198            2.345     20.74    418.58
         O          3.198            2.345     20.74    418.58
         O          3.221            2.345     20.74    418.58
         O          3.221            2.345     20.74    418.58
         O          4.004            2.345     20.74    418.58
         O          4.004            2.345     20.74    418.58
         O          4.003            2.345     20.74    418.58
         O          4.003            2.345     20.74    418.58
         H          1.327            2.062      6.07     73.32
         H          1.327            2.062      6.07     73.32
         H          1.302            2.062      6.07     73.35
         H          1.302            2.062      6.07     73.35

         Molecular C6 ( Ry / a.u.^6 ) =    168240.91


   Crystallographic axes

     site n.     atom                  positions (cryst. coord.)
         1        K      tau(   1) = (  0.0000000  0.4958353  0.0000000  )
         2        K      tau(   2) = (  0.5000000  0.0010877  0.0000000  )
         3        Mg     tau(   3) = (  0.0000000  0.0045582  0.5000000  )
         4        Mg     tau(   4) = (  0.0000000  0.3332494  0.5000000  )
         5        Mg     tau(   5) = (  0.0000000  0.6651456  0.5000000  )
         6        Mg     tau(   6) = (  0.5000000  0.4929654  0.5000000  )
         7        Mg     tau(   7) = (  0.5000000  0.8348507  0.5000000  )
         8        Mg     tau(   8) = (  0.5000000  0.1724004  0.5000000  )
         9        Si     tau(   9) = (  0.0850037  0.1650932  0.2220972  )
        10        Si     tau(  10) = (  0.9149963  0.1650932  0.7779028  )
        11        Si     tau(  11) = (  0.9360909  0.8344309  0.7713451  )
        12        Si     tau(  12) = (  0.0639091  0.8344309  0.2286549  )
        13        Si     tau(  13) = (  0.5625796  0.6662806  0.2265521  )
        14        Si     tau(  14) = (  0.4374205  0.6662806  0.7734479  )
        15        Al     tau(  15) = (  0.4137285  0.3308027  0.7762443  )
        16        Al     tau(  16) = (  0.5862715  0.3308027  0.2237557  )
        17        O      tau(  17) = (  0.1278488  0.1637509  0.3845317  )
        18        O      tau(  18) = (  0.8721512  0.1637509  0.6154684  )
        19        O      tau(  19) = (  0.8751312  0.8332863  0.6102959  )
        20        O      tau(  20) = (  0.1248688  0.8332863  0.3897041  )
        21        O      tau(  21) = (  0.6246570  0.6689889  0.3882943  )
        22        O      tau(  22) = (  0.3753430  0.6689889  0.6117057  )
        23        O      tau(  23) = (  0.3609986  0.3328700  0.6040159  )
        24        O      tau(  24) = (  0.6390014  0.3328700  0.3959841  )
        25        O      tau(  25) = (  0.3461426  0.2010190  0.1651068  )
        26        O      tau(  26) = (  0.6538574  0.2010190  0.8348932  )
        27        O      tau(  27) = (  0.9951577  0.9974511  0.1671028  )
        28        O      tau(  28) = (  0.0048424  0.9974511  0.8328972  )
        29        O      tau(  29) = (  0.6855491  0.7742162  0.8314431  )
        30        O      tau(  30) = (  0.3144509  0.7742162  0.1685569  )
        31        O      tau(  31) = (  0.8133153  0.7326760  0.1676389  )
        32        O      tau(  32) = (  0.1866847  0.7326760  0.8323611  )
        33        O      tau(  33) = (  0.4959547  0.5074677  0.1615582  )
        34        O      tau(  34) = (  0.5040452  0.5074677  0.8384418  )
        35        O      tau(  35) = (  0.1397104  0.2781241  0.8412361  )
        36        O      tau(  36) = (  0.8602896  0.2781241  0.1587639  )
        37        O      tau(  37) = (  0.1304351  0.5041471  0.3939148  )
        38        O      tau(  38) = (  0.8695649  0.5041471  0.6060852  )
        39        O      tau(  39) = (  0.6324561  0.9994813  0.3972938  )
        40        O      tau(  40) = (  0.3675439  0.9994813  0.6027062  )
        41        H      tau(  41) = (  0.0990788  0.4931899  0.2983690  )
        42        H      tau(  42) = (  0.9009212  0.4931899  0.7016310  )
        43        H      tau(  43) = (  0.5936871  0.0166754  0.3024487  )
        44        H      tau(  44) = (  0.4063129  0.0166754  0.6975513  )

     number of k points=    20
                       cart. coord. in units 2pi/alat
        k(    1) = (   0.0000000   0.0000000   0.0000000), wk =   0.0370370
        k(    2) = (   0.0000000   0.0000000   0.1758183), wk =   0.0740741
        k(    3) = (   0.0000000   0.1920891   0.0000000), wk =   0.0740741
        k(    4) = (   0.0000000   0.1920891   0.1758183), wk =   0.1481481
        k(    5) = (   0.1666667   0.0000000   0.0300721), wk =   0.0740741
        k(    6) = (   0.1666667   0.0000000   0.2058904), wk =   0.0740741
        k(    7) = (   0.1666667   0.0000000  -0.1457462), wk =   0.0740741
        k(    8) = (   0.1666667   0.1920891   0.0300721), wk =   0.1481481
        k(    9) = (   0.1666667   0.1920891   0.2058904), wk =   0.1481481
        k(   10) = (   0.1666667   0.1920891  -0.1457462), wk =   0.1481481
        k(   11) = (   0.3333333   0.0000000   0.0601442), wk =   0.0740741
        k(   12) = (   0.3333333   0.0000000   0.2359625), wk =   0.0740741
        k(   13) = (   0.3333333   0.0000000  -0.1156742), wk =   0.0740741
        k(   14) = (   0.3333333   0.1920891   0.0601442), wk =   0.1481481
        k(   15) = (   0.3333333   0.1920891   0.2359625), wk =   0.1481481
        k(   16) = (   0.3333333   0.1920891  -0.1156742), wk =   0.1481481
        k(   17) = (  -0.5000000   0.0000000  -0.0902162), wk =   0.0370370
        k(   18) = (  -0.5000000   0.0000000   0.0856021), wk =   0.0740741
        k(   19) = (  -0.5000000   0.1920891  -0.0902162), wk =   0.0740741
        k(   20) = (  -0.5000000   0.1920891   0.0856021), wk =   0.1481481

                       cryst. coord.
        k(    1) = (   0.0000000   0.0000000   0.0000000), wk =   0.0370370
        k(    2) = (   0.0000000   0.0000000   0.3333333), wk =   0.0740741
        k(    3) = (   0.0000000   0.3333333   0.0000000), wk =   0.0740741
        k(    4) = (   0.0000000   0.3333333   0.3333333), wk =   0.1481481
        k(    5) = (   0.1666667   0.0000000  -0.0000000), wk =   0.0740741
        k(    6) = (   0.1666667   0.0000000   0.3333333), wk =   0.0740741
        k(    7) = (   0.1666667   0.0000000  -0.3333333), wk =   0.0740741
        k(    8) = (   0.1666667   0.3333333  -0.0000000), wk =   0.1481481
        k(    9) = (   0.1666667   0.3333333   0.3333333), wk =   0.1481481
        k(   10) = (   0.1666667   0.3333333  -0.3333333), wk =   0.1481481
        k(   11) = (   0.3333333   0.0000000  -0.0000000), wk =   0.0740741
        k(   12) = (   0.3333333   0.0000000   0.3333333), wk =   0.0740741
        k(   13) = (   0.3333333   0.0000000  -0.3333333), wk =   0.0740741
        k(   14) = (   0.3333333   0.3333333  -0.0000000), wk =   0.1481481
        k(   15) = (   0.3333333   0.3333333   0.3333333), wk =   0.1481481
        k(   16) = (   0.3333333   0.3333333  -0.3333333), wk =   0.1481481
        k(   17) = (  -0.5000000   0.0000000   0.0000000), wk =   0.0370370
        k(   18) = (  -0.5000000   0.0000000   0.3333333), wk =   0.0740741
        k(   19) = (  -0.5000000   0.3333333   0.0000000), wk =   0.0740741
        k(   20) = (  -0.5000000   0.3333333   0.3333333), wk =   0.1481481

     Dense  grid:  1077817 G-vectors     FFT dimensions: (  90, 150, 180)

     Smooth grid:   381081 G-vectors     FFT dimensions: (  64, 108, 120)

     Dynamical RAM for                 wfc:      13.29 MB

     Dynamical RAM for     wfc (w. buffer):     146.18 MB

     Dynamical RAM for           str. fact:      14.10 MB

     Dynamical RAM for           local pot:       0.00 MB

     Dynamical RAM for          nlocal pot:      44.44 MB

     Dynamical RAM for                qrad:      25.83 MB

     Dynamical RAM for          rho,v,vnew:      15.08 MB

     Dynamical RAM for               rhoin:       5.03 MB

     Dynamical RAM for            rho*nmix:      37.59 MB

     Dynamical RAM for           G-vectors:       9.23 MB

     Dynamical RAM for          h,s,v(r/c):       3.00 MB

     Dynamical RAM for          <psi|beta>:       0.84 MB

     Dynamical RAM for                 psi:      26.58 MB

     Dynamical RAM for                hpsi:      26.58 MB

     Dynamical RAM for                spsi:      26.58 MB

     Dynamical RAM for      wfcinit/wfcrot:      26.95 MB

     Dynamical RAM for           addusdens:     247.86 MB

     Dynamical RAM for          addusforce:     302.00 MB

     Dynamical RAM for         addusstress:     236.70 MB

     Estimated static dynamical RAM per process >     289.71 MB

     Estimated max dynamical RAM per process >     629.30 MB

     Estimated total dynamical RAM >       8.35 GB

     Atomic positions and unit cell read from directory:
     ./temp/phl-fe0-dftd3.save/
     Atomic positions from file used, from input discarded


     Check: negative core charge=   -0.000002

     The initial density is read from file :
     ./temp/phl-fe0-dftd3.save/charge-density


     starting charge     255.9983, renormalised to     256.0000
     Cannot read wfcs: file not found
     Starting wfcs are  178 randomized atomic wfcs
     Checking if some PAW data can be deallocated... 
       PAW data deallocated on   13 nodes for type:  1
       PAW data deallocated on   12 nodes for type:  2
       PAW data deallocated on   13 nodes for type:  3
       PAW data deallocated on   12 nodes for type:  4
       PAW data deallocated on    5 nodes for type:  5
       PAW data deallocated on   12 nodes for type:  6

     total cpu time spent up to now is      105.9 secs

     Self-consistent Calculation

     iteration #  1     ecut=    90.00 Ry     beta= 0.70
     Davidson diagonalization with overlap

---- Real-time Memory Report at c_bands before calling an iterative solver
           363 MiB given to the printing process from OS
             0 MiB allocation reported by mallinfo(arena+hblkhd)
         22912 MiB available memory on the node where the printing process lives
------------------
     c_bands:  4 eigenvalues not converged
     c_bands:  2 eigenvalues not converged
     c_bands:  1 eigenvalues not converged
     c_bands:  2 eigenvalues not converged
     c_bands:  1 eigenvalues not converged
     ethr =  1.00E-05,  avg # of iterations = 19.9

     Threshold (ethr) on eigenvalues was too large:
     Diagonalizing with lowered threshold

     Davidson diagonalization with overlap

---- Real-time Memory Report at c_bands before calling an iterative solver
           589 MiB given to the printing process from OS
             0 MiB allocation reported by mallinfo(arena+hblkhd)
         20891 MiB available memory on the node where the printing process lives
------------------
     c_bands:  1 eigenvalues not converged
     ethr =  2.53E-07,  avg # of iterations = 18.2

     total cpu time spent up to now is     4649.3 secs

     total energy              =   -2443.75722268 Ry
     estimated scf accuracy    <       0.00062667 Ry

     iteration #  2     ecut=    90.00 Ry     beta= 0.70
     Davidson diagonalization with overlap

---- Real-time Memory Report at c_bands before calling an iterative solver
           602 MiB given to the printing process from OS
             0 MiB allocation reported by mallinfo(arena+hblkhd)
         20331 MiB available memory on the node where the printing process lives
------------------
     ethr =  2.45E-07,  avg # of iterations =  2.0

     total cpu time spent up to now is     5142.3 secs

     total energy              =   -2443.75733509 Ry
     estimated scf accuracy    <       0.00000897 Ry

     iteration #  3     ecut=    90.00 Ry     beta= 0.70
     Davidson diagonalization with overlap

---- Real-time Memory Report at c_bands before calling an iterative solver
           604 MiB given to the printing process from OS
             0 MiB allocation reported by mallinfo(arena+hblkhd)
         20697 MiB available memory on the node where the printing process lives
------------------
     c_bands:  1 eigenvalues not converged
     c_bands:  2 eigenvalues not converged
     ethr =  3.51E-09,  avg # of iterations = 18.6

     total cpu time spent up to now is     7952.8 secs

     total energy              =   -2443.75739663 Ry
     estimated scf accuracy    <       0.00000744 Ry

     iteration #  4     ecut=    90.00 Ry     beta= 0.70
     Davidson diagonalization with overlap

---- Real-time Memory Report at c_bands before calling an iterative solver
           605 MiB given to the printing process from OS
             0 MiB allocation reported by mallinfo(arena+hblkhd)
         20282 MiB available memory on the node where the printing process lives
------------------
     ethr =  2.91E-09,  avg # of iterations =  2.2

     total cpu time spent up to now is     8444.5 secs

     total energy              =   -2443.75739680 Ry
     estimated scf accuracy    <       0.00000109 Ry

     iteration #  5     ecut=    90.00 Ry     beta= 0.70
     Davidson diagonalization with overlap

---- Real-time Memory Report at c_bands before calling an iterative solver
           607 MiB given to the printing process from OS
             0 MiB allocation reported by mallinfo(arena+hblkhd)
         20507 MiB available memory on the node where the printing process lives
------------------
     ethr =  4.27E-10,  avg # of iterations =  8.8

     total cpu time spent up to now is     9709.1 secs

     total energy              =   -2443.75739803 Ry
     estimated scf accuracy    <       0.00000066 Ry

     iteration #  6     ecut=    90.00 Ry     beta= 0.70
     Davidson diagonalization with overlap

---- Real-time Memory Report at c_bands before calling an iterative solver
           609 MiB given to the printing process from OS
             0 MiB allocation reported by mallinfo(arena+hblkhd)
         20315 MiB available memory on the node where the printing process lives
------------------
     ethr =  2.58E-10,  avg # of iterations =  2.0

     total cpu time spent up to now is    10149.0 secs

     total energy              =   -2443.75739784 Ry
     estimated scf accuracy    <       0.00000030 Ry

     iteration #  7     ecut=    90.00 Ry     beta= 0.70
     Davidson diagonalization with overlap

---- Real-time Memory Report at c_bands before calling an iterative solver
           611 MiB given to the printing process from OS
             0 MiB allocation reported by mallinfo(arena+hblkhd)
         20428 MiB available memory on the node where the printing process lives
------------------
     ethr =  1.17E-10,  avg # of iterations =  9.1

     total cpu time spent up to now is    11546.8 secs

     total energy              =   -2443.75739799 Ry
     estimated scf accuracy    <       0.00000118 Ry

     iteration #  8     ecut=    90.00 Ry     beta= 0.70
     Davidson diagonalization with overlap

---- Real-time Memory Report at c_bands before calling an iterative solver
           613 MiB given to the printing process from OS
             0 MiB allocation reported by mallinfo(arena+hblkhd)
         20225 MiB available memory on the node where the printing process lives
------------------
     ethr =  1.17E-10,  avg # of iterations =  5.9

     total cpu time spent up to now is    12327.0 secs

     total energy              =   -2443.75739814 Ry
     estimated scf accuracy    <       0.00000005 Ry

     iteration #  9     ecut=    90.00 Ry     beta= 0.70
     Davidson diagonalization with overlap

---- Real-time Memory Report at c_bands before calling an iterative solver
           615 MiB given to the printing process from OS
             0 MiB allocation reported by mallinfo(arena+hblkhd)
         20167 MiB available memory on the node where the printing process lives
------------------
     ethr =  1.91E-11,  avg # of iterations =  8.9

     total cpu time spent up to now is    13523.5 secs

     total energy              =   -2443.75739819 Ry
     estimated scf accuracy    <       0.00000004 Ry

     iteration # 10     ecut=    90.00 Ry     beta= 0.70
     Davidson diagonalization with overlap

---- Real-time Memory Report at c_bands before calling an iterative solver
           616 MiB given to the printing process from OS
             0 MiB allocation reported by mallinfo(arena+hblkhd)
         20321 MiB available memory on the node where the printing process lives
------------------
     ethr =  1.75E-11,  avg # of iterations =  1.3

     total cpu time spent up to now is    13895.2 secs

     total energy              =   -2443.75739818 Ry
     estimated scf accuracy    <       0.00000003 Ry

     iteration # 11     ecut=    90.00 Ry     beta= 0.70
     Davidson diagonalization with overlap

---- Real-time Memory Report at c_bands before calling an iterative solver
           616 MiB given to the printing process from OS
             0 MiB allocation reported by mallinfo(arena+hblkhd)
         20217 MiB available memory on the node where the printing process lives
------------------
     ethr =  9.97E-12,  avg # of iterations =  3.0

     total cpu time spent up to now is    14375.5 secs

     End of self-consistent calculation

          k = 0.0000 0.0000 0.0000 ( 47593 PWs)   bands (ev):

   -68.1625 -68.1539 -68.0581 -67.6900 -67.6097 -67.5934 -34.9484 -34.9284
   -34.9224 -34.9171 -34.9133 -34.9057 -34.8330 -34.8298 -34.8031 -34.4588
   -34.4539 -34.4520 -34.3941 -34.3895 -34.3761 -34.3540 -34.3439 -34.3344
   -23.7601 -23.7298 -15.4872 -15.4460 -14.5762 -14.5439 -14.0489 -14.0371
   -13.8415 -13.7440 -13.7139 -13.5416 -13.3396 -13.2983 -13.2863 -13.2820
   -13.2202 -13.1171 -12.9426 -12.8758 -12.7528 -12.7390 -12.7060 -12.5890
   -11.6049 -11.3690  -7.2942  -7.2643  -7.2376  -7.2360  -7.2029  -7.1916
    -4.7354  -4.6993  -2.8903  -2.8120  -2.2459  -1.7735  -1.6157  -1.6084
    -1.5378  -1.4769  -1.0955  -1.0322  -0.9203  -0.8182  -0.8148  -0.6455
    -0.4177  -0.3483  -0.2177  -0.0038   0.1270   0.1374   0.2495   0.4498
     0.4506   0.7103   0.8338   0.8692   0.9667   1.0402   1.1232   1.1992
     1.3895   1.4047   1.5230   1.6239   1.6430   1.7743   1.7919   1.8608
     1.9579   2.0131   2.1653   2.1722   2.2446   2.2655   2.3866   2.4055
     2.4169   2.5524   2.5550   2.6128   2.7332   2.7977   2.8744   2.9129
     2.9782   2.9845   3.0699   3.0985   3.1576   3.2463   3.3268   3.3571
     3.3607   3.4605   3.4808   3.6007   3.6038   3.7777   3.9423   4.0479

     occupation numbers 
     1.0000   1.0000   1.0000   1.0000   1.0000   1.0000   1.0000   1.0000
     1.0000   1.0000   1.0000   1.0000   1.0000   1.0000   1.0000   1.0000
     1.0000   1.0000   1.0000   1.0000   1.0000   1.0000   1.0000   1.0000
     1.0000   1.0000   1.0000   1.0000   1.0000   1.0000   1.0000   1.0000
     1.0000   1.0000   1.0000   1.0000   1.0000   1.0000   1.0000   1.0000
     1.0000   1.0000   1.0000   1.0000   1.0000   1.0000   1.0000   1.0000
     1.0000   1.0000   1.0000   1.0000   1.0000   1.0000   1.0000   1.0000
     1.0000   1.0000   1.0000   1.0000   1.0000   1.0000   1.0000   1.0000
     1.0000   1.0000   1.0000   1.0000   1.0000   1.0000   1.0000   1.0000
     1.0000   1.0000   1.0000   1.0000   1.0000   1.0000   1.0000   1.0000
     1.0000   1.0000   1.0000   1.0000   1.0000   1.0000   1.0000   1.0000
     1.0000   1.0000   1.0000   1.0000   1.0000   1.0000   1.0000   1.0000
     1.0000   1.0000   1.0000   1.0000   1.0000   1.0000   1.0000   1.0000
     1.0000   1.0000   1.0000   1.0000   1.0000   1.0000   1.0000   1.0000
     1.0000   1.0000   1.0000   1.0000   1.0000   1.0000   1.0000   1.0000
     1.0000   1.0000   1.0000   1.0000   1.0000   1.0000   1.0000   1.0000

          k = 0.0000 0.0000 0.1711 ( 47610 PWs)   bands (ev):

   -68.1625 -68.1539 -68.0581 -67.6900 -67.6097 -67.5934 -34.9484 -34.9284
   -34.9224 -34.9171 -34.9133 -34.9057 -34.8330 -34.8298 -34.8031 -34.4588
   -34.4539 -34.4520 -34.3941 -34.3895 -34.3761 -34.3540 -34.3439 -34.3344
   -23.7601 -23.7298 -15.4790 -15.4546 -14.5686 -14.5518 -14.0493 -14.0367
   -13.8350 -13.7552 -13.7099 -13.5394 -13.3400 -13.2987 -13.2919 -13.2781
   -13.2165 -13.1196 -12.9386 -12.8795 -12.7568 -12.7324 -12.7042 -12.5931
   -11.6048 -11.3694  -7.2942  -7.2643  -7.2376  -7.2360  -7.2029  -7.1916
    -4.7313  -4.7037  -2.8729  -2.8320  -2.2244  -1.7645  -1.6293  -1.5930
    -1.5355  -1.4900  -1.0760  -1.0417  -0.9393  -0.8253  -0.7911  -0.7178
    -0.3943  -0.3300  -0.2530  -0.0504   0.1217   0.1253   0.2643   0.4559
     0.4845   0.7646   0.7857   0.8744   0.9811   1.0445   1.1258   1.2415
     1.4088   1.4222   1.6047   1.6366   1.6656   1.7629   1.7940   1.8469
     1.9415   1.9717   2.1492   2.1624   2.2162   2.2651   2.3451   2.3715
     2.3839   2.5959   2.6190   2.6234   2.6534   2.8260   2.8612   2.9032
     2.9381   2.9790   3.0749   3.1611   3.2038   3.2337   3.3104   3.3309
     3.3377   3.4456   3.4759   3.6074   3.6236   3.7823   3.9411   4.0499

     occupation numbers 
     1.0000   1.0000   1.0000   1.0000   1.0000   1.0000   1.0000   1.0000
     1.0000   1.0000   1.0000   1.0000   1.0000   1.0000   1.0000   1.0000
     1.0000   1.0000   1.0000   1.0000   1.0000   1.0000   1.0000   1.0000
     1.0000   1.0000   1.0000   1.0000   1.0000   1.0000   1.0000   1.0000
     1.0000   1.0000   1.0000   1.0000   1.0000   1.0000   1.0000   1.0000
     1.0000   1.0000   1.0000   1.0000   1.0000   1.0000   1.0000   1.0000
     1.0000   1.0000   1.0000   1.0000   1.0000   1.0000   1.0000   1.0000
     1.0000   1.0000   1.0000   1.0000   1.0000   1.0000   1.0000   1.0000
     1.0000   1.0000   1.0000   1.0000   1.0000   1.0000   1.0000   1.0000
     1.0000   1.0000   1.0000   1.0000   1.0000   1.0000   1.0000   1.0000
     1.0000   1.0000   1.0000   1.0000   1.0000   1.0000   1.0000   1.0000
     1.0000   1.0000   1.0000   1.0000   1.0000   1.0000   1.0000   1.0000
     1.0000   1.0000   1.0000   1.0000   1.0000   1.0000   1.0000   1.0000
     1.0000   1.0000   1.0000   1.0000   1.0000   1.0000   1.0000   1.0000
     1.0000   1.0000   1.0000   1.0000   1.0000   1.0000   1.0000   1.0000
     1.0000   1.0000   1.0000   1.0000   1.0000   1.0000   1.0000   1.0000

          k = 0.0000 0.1908 0.0000 ( 47636 PWs)   bands (ev):

   -68.1625 -68.1539 -68.0581 -67.6900 -67.6097 -67.5934 -34.9484 -34.9284
   -34.9224 -34.9171 -34.9133 -34.9057 -34.8329 -34.8298 -34.8031 -34.4588
   -34.4539 -34.4520 -34.3941 -34.3895 -34.3761 -34.3540 -34.3439 -34.3344
   -23.7601 -23.7298 -15.4821 -15.4411 -14.6093 -14.5733 -14.0490 -14.0373
   -13.7633 -13.6905 -13.6435 -13.5612 -13.3931 -13.3542 -13.3343 -13.2812
   -13.2225 -13.1138 -12.9347 -12.8715 -12.7526 -12.7378 -12.7009 -12.5855
   -11.6036 -11.3684  -7.2928  -7.2658  -7.2374  -7.2357  -7.2030  -7.1919
    -4.6950  -4.6573  -3.0389  -2.9578  -2.1969  -1.8192  -1.5328  -1.5253
    -1.4388  -1.4033  -1.1722  -1.1012  -0.9325  -0.7583  -0.7528  -0.6173
    -0.5172  -0.2987  -0.2513   0.0037   0.0850   0.0962   0.2623   0.4206
     0.4854   0.6961   0.7144   0.8657   0.9755   1.1045   1.1582   1.2365
     1.4392   1.4434   1.5206   1.6249   1.6765   1.7266   1.8723   1.9358
     1.9418   2.0254   2.0822   2.1788   2.2233   2.3046   2.3908   2.4205
     2.4570   2.5371   2.5739   2.6483   2.7425   2.7888   2.9338   2.9394
     2.9660   2.9779   2.9978   3.0894   3.1564   3.1799   3.3188   3.3379
     3.3625   3.4497   3.4554   3.5761   3.6141   3.7515   3.7622   4.0449

     occupation numbers 
     1.0000   1.0000   1.0000   1.0000   1.0000   1.0000   1.0000   1.0000
     1.0000   1.0000   1.0000   1.0000   1.0000   1.0000   1.0000   1.0000
     1.0000   1.0000   1.0000   1.0000   1.0000   1.0000   1.0000   1.0000
     1.0000   1.0000   1.0000   1.0000   1.0000   1.0000   1.0000   1.0000
     1.0000   1.0000   1.0000   1.0000   1.0000   1.0000   1.0000   1.0000
     1.0000   1.0000   1.0000   1.0000   1.0000   1.0000   1.0000   1.0000
     1.0000   1.0000   1.0000   1.0000   1.0000   1.0000   1.0000   1.0000
     1.0000   1.0000   1.0000   1.0000   1.0000   1.0000   1.0000   1.0000
     1.0000   1.0000   1.0000   1.0000   1.0000   1.0000   1.0000   1.0000
     1.0000   1.0000   1.0000   1.0000   1.0000   1.0000   1.0000   1.0000
     1.0000   1.0000   1.0000   1.0000   1.0000   1.0000   1.0000   1.0000
     1.0000   1.0000   1.0000   1.0000   1.0000   1.0000   1.0000   1.0000
     1.0000   1.0000   1.0000   1.0000   1.0000   1.0000   1.0000   1.0000
     1.0000   1.0000   1.0000   1.0000   1.0000   1.0000   1.0000   1.0000
     1.0000   1.0000   1.0000   1.0000   1.0000   1.0000   1.0000   1.0000
     1.0000   1.0000   1.0000   1.0000   1.0000   1.0000   1.0000   1.0000

          k = 0.0000 0.1908 0.1711 ( 47607 PWs)   bands (ev):

   -68.1625 -68.1539 -68.0581 -67.6900 -67.6097 -67.5934 -34.9484 -34.9284
   -34.9224 -34.9171 -34.9133 -34.9057 -34.8329 -34.8298 -34.8031 -34.4588
   -34.4539 -34.4520 -34.3941 -34.3895 -34.3761 -34.3540 -34.3439 -34.3344
   -23.7601 -23.7298 -15.4737 -15.4500 -14.6018 -14.5812 -14.0494 -14.0368
   -13.7598 -13.6855 -13.6546 -13.5559 -13.4004 -13.3462 -13.3350 -13.2827
   -13.2205 -13.1163 -12.9310 -12.8752 -12.7564 -12.7321 -12.6983 -12.5896
   -11.6035 -11.3688  -7.2928  -7.2658  -7.2375  -7.2357  -7.2029  -7.1919
    -4.6887  -4.6639  -3.0194  -2.9789  -2.1786  -1.8121  -1.5301  -1.5248
    -1.4356  -1.4112  -1.1555  -1.1182  -0.9432  -0.7831  -0.7283  -0.6740
    -0.4837  -0.3042  -0.2897  -0.0191   0.0759   0.0880   0.2861   0.4206
     0.5186   0.6500   0.7270   0.9035   1.0367   1.0938   1.2023   1.2693
     1.4063   1.4776   1.5548   1.6079   1.6587   1.7795   1.8474   1.9065
     1.9595   2.0155   2.0587   2.1590   2.2347   2.2739   2.3478   2.4017
     2.4618   2.5509   2.5838   2.6843   2.7137   2.7400   2.8940   2.9381
     2.9542   2.9878   3.0428   3.1000   3.1569   3.2286   3.2854   3.3145
     3.3680   3.4344   3.4520   3.5707   3.6221   3.7651   3.7775   4.0473

     occupation numbers 
     1.0000   1.0000   1.0000   1.0000   1.0000   1.0000   1.0000   1.0000
     1.0000   1.0000   1.0000   1.0000   1.0000   1.0000   1.0000   1.0000
     1.0000   1.0000   1.0000   1.0000   1.0000   1.0000   1.0000   1.0000
     1.0000   1.0000   1.0000   1.0000   1.0000   1.0000   1.0000   1.0000
     1.0000   1.0000   1.0000   1.0000   1.0000   1.0000   1.0000   1.0000
     1.0000   1.0000   1.0000   1.0000   1.0000   1.0000   1.0000   1.0000
     1.0000   1.0000   1.0000   1.0000   1.0000   1.0000   1.0000   1.0000
     1.0000   1.0000   1.0000   1.0000   1.0000   1.0000   1.0000   1.0000
     1.0000   1.0000   1.0000   1.0000   1.0000   1.0000   1.0000   1.0000
     1.0000   1.0000   1.0000   1.0000   1.0000   1.0000   1.0000   1.0000
     1.0000   1.0000   1.0000   1.0000   1.0000   1.0000   1.0000   1.0000
     1.0000   1.0000   1.0000   1.0000   1.0000   1.0000   1.0000   1.0000
     1.0000   1.0000   1.0000   1.0000   1.0000   1.0000   1.0000   1.0000
     1.0000   1.0000   1.0000   1.0000   1.0000   1.0000   1.0000   1.0000
     1.0000   1.0000   1.0000   1.0000   1.0000   1.0000   1.0000   1.0000
     1.0000   1.0000   1.0000   1.0000   1.0000   1.0000   1.0000   1.0000

          k = 0.1656 0.0000 0.0304 ( 47599 PWs)   bands (ev):

   -68.1625 -68.1539 -68.0581 -67.6900 -67.6097 -67.5935 -34.9479 -34.9298
   -34.9216 -34.9172 -34.9131 -34.9058 -34.8329 -34.8298 -34.8032 -34.4586
   -34.4541 -34.4519 -34.3950 -34.3881 -34.3763 -34.3535 -34.3445 -34.3347
   -23.7600 -23.7297 -15.4302 -15.3901 -14.5922 -14.5629 -14.1647 -14.1459
   -13.7767 -13.6819 -13.6541 -13.5263 -13.3512 -13.3256 -13.2834 -13.2691
   -13.2107 -13.1248 -12.9599 -12.8924 -12.8168 -12.7764 -12.6858 -12.5755
   -11.6018 -11.3733  -7.2940  -7.2670  -7.2380  -7.2347  -7.2028  -7.1903
    -4.5809  -4.5389  -2.8553  -2.7733  -2.2545  -1.9043  -1.8402  -1.7403
    -1.3426  -1.2746  -1.1148  -1.0817  -0.9139  -0.7958  -0.7673  -0.6420
    -0.4097  -0.3359  -0.2354  -0.0232   0.0720   0.1706   0.2058   0.3363
     0.6221   0.7202   0.8130   0.8633   0.9081   1.0230   1.1007   1.1708
     1.2821   1.4738   1.4823   1.5592   1.6212   1.8199   1.8459   1.8986
     1.9573   2.0443   2.1514   2.1877   2.2117   2.2392   2.3770   2.4028
     2.4787   2.4861   2.6170   2.6444   2.7211   2.7754   2.8402   2.8693
     2.9348   2.9828   3.0490   3.1310   3.1604   3.2537   3.3043   3.3300
     3.3694   3.3972   3.4227   3.5205   3.5953   3.7807   3.9331   3.9590

     occupation numbers 
     1.0000   1.0000   1.0000   1.0000   1.0000   1.0000   1.0000   1.0000
     1.0000   1.0000   1.0000   1.0000   1.0000   1.0000   1.0000   1.0000
     1.0000   1.0000   1.0000   1.0000   1.0000   1.0000   1.0000   1.0000
     1.0000   1.0000   1.0000   1.0000   1.0000   1.0000   1.0000   1.0000
     1.0000   1.0000   1.0000   1.0000   1.0000   1.0000   1.0000   1.0000
     1.0000   1.0000   1.0000   1.0000   1.0000   1.0000   1.0000   1.0000
     1.0000   1.0000   1.0000   1.0000   1.0000   1.0000   1.0000   1.0000
     1.0000   1.0000   1.0000   1.0000   1.0000   1.0000   1.0000   1.0000
     1.0000   1.0000   1.0000   1.0000   1.0000   1.0000   1.0000   1.0000
     1.0000   1.0000   1.0000   1.0000   1.0000   1.0000   1.0000   1.0000
     1.0000   1.0000   1.0000   1.0000   1.0000   1.0000   1.0000   1.0000
     1.0000   1.0000   1.0000   1.0000   1.0000   1.0000   1.0000   1.0000
     1.0000   1.0000   1.0000   1.0000   1.0000   1.0000   1.0000   1.0000
     1.0000   1.0000   1.0000   1.0000   1.0000   1.0000   1.0000   1.0000
     1.0000   1.0000   1.0000   1.0000   1.0000   1.0000   1.0000   1.0000
     1.0000   1.0000   1.0000   1.0000   1.0000   1.0000   1.0000   1.0000

          k = 0.1656 0.0000 0.2015 ( 47626 PWs)   bands (ev):

   -68.1625 -68.1539 -68.0581 -67.6900 -67.6097 -67.5935 -34.9479 -34.9298
   -34.9216 -34.9172 -34.9131 -34.9058 -34.8329 -34.8298 -34.8032 -34.4586
   -34.4541 -34.4519 -34.3950 -34.3881 -34.3763 -34.3535 -34.3445 -34.3347
   -23.7600 -23.7297 -15.4201 -15.4008 -14.5848 -14.5706 -14.1617 -14.1490
   -13.7712 -13.6881 -13.6546 -13.5234 -13.3509 -13.3243 -13.2921 -13.2641
   -13.2073 -13.1273 -12.9561 -12.8972 -12.8112 -12.7816 -12.6794 -12.5810
   -11.6015 -11.3738  -7.2940  -7.2670  -7.2380  -7.2347  -7.2027  -7.1903
    -4.5815  -4.5385  -2.8408  -2.7908  -2.2312  -1.9310  -1.8181  -1.7327
    -1.3406  -1.2772  -1.1187  -1.0752  -0.9144  -0.7854  -0.7642  -0.7249
    -0.3831  -0.3066  -0.2724  -0.0752   0.0615   0.1738   0.1840   0.3748
     0.6594   0.7261   0.7977   0.8669   0.9153   1.0415   1.1236   1.1727
     1.3264   1.4537   1.5179   1.5592   1.7173   1.8063   1.8576   1.8796
     1.9467   2.0347   2.1090   2.1260   2.1978   2.2571   2.3528   2.3758
     2.4362   2.5346   2.6219   2.6815   2.7117   2.7547   2.7958   2.8681
     2.9424   2.9672   3.0550   3.1852   3.1894   3.2566   3.2728   3.3052
     3.3720   3.3840   3.4015   3.5277   3.6233   3.7740   3.9336   3.9733

     occupation numbers 
     1.0000   1.0000   1.0000   1.0000   1.0000   1.0000   1.0000   1.0000
     1.0000   1.0000   1.0000   1.0000   1.0000   1.0000   1.0000   1.0000
     1.0000   1.0000   1.0000   1.0000   1.0000   1.0000   1.0000   1.0000
     1.0000   1.0000   1.0000   1.0000   1.0000   1.0000   1.0000   1.0000
     1.0000   1.0000   1.0000   1.0000   1.0000   1.0000   1.0000   1.0000
     1.0000   1.0000   1.0000   1.0000   1.0000   1.0000   1.0000   1.0000
     1.0000   1.0000   1.0000   1.0000   1.0000   1.0000   1.0000   1.0000
     1.0000   1.0000   1.0000   1.0000   1.0000   1.0000   1.0000   1.0000
     1.0000   1.0000   1.0000   1.0000   1.0000   1.0000   1.0000   1.0000
     1.0000   1.0000   1.0000   1.0000   1.0000   1.0000   1.0000   1.0000
     1.0000   1.0000   1.0000   1.0000   1.0000   1.0000   1.0000   1.0000
     1.0000   1.0000   1.0000   1.0000   1.0000   1.0000   1.0000   1.0000
     1.0000   1.0000   1.0000   1.0000   1.0000   1.0000   1.0000   1.0000
     1.0000   1.0000   1.0000   1.0000   1.0000   1.0000   1.0000   1.0000
     1.0000   1.0000   1.0000   1.0000   1.0000   1.0000   1.0000   1.0000
     1.0000   1.0000   1.0000   1.0000   1.0000   1.0000   1.0000   1.0000

          k = 0.1656 0.0000-0.1407 ( 47637 PWs)   bands (ev):

   -68.1625 -68.1539 -68.0581 -67.6900 -67.6097 -67.5935 -34.9479 -34.9298
   -34.9216 -34.9172 -34.9131 -34.9058 -34.8329 -34.8298 -34.8032 -34.4586
   -34.4541 -34.4519 -34.3950 -34.3881 -34.3763 -34.3535 -34.3445 -34.3347
   -23.7600 -23.7297 -15.4241 -15.3966 -14.5853 -14.5702 -14.1602 -14.1505
   -13.7734 -13.6788 -13.6619 -13.5240 -13.3509 -13.3232 -13.2917 -13.2631
   -13.2095 -13.1276 -12.9537 -12.8993 -12.8029 -12.7905 -12.6790 -12.5803
   -11.6014 -11.3738  -7.2941  -7.2670  -7.2380  -7.2347  -7.2027  -7.1902
    -4.5642  -4.5559  -2.8388  -2.7917  -2.2406  -1.9263  -1.8206  -1.7347
    -1.3327  -1.2875  -1.0985  -1.0748  -0.9263  -0.7904  -0.7744  -0.6990
    -0.4054  -0.3100  -0.2602  -0.0667   0.0819   0.1630   0.2272   0.3612
     0.6260   0.7208   0.7879   0.8576   0.9399   1.0568   1.1287   1.1398
     1.3305   1.4498   1.5171   1.5504   1.6496   1.8073   1.8562   1.8727
     1.9494   2.0403   2.1207   2.1794   2.1936   2.2602   2.3501   2.4013
     2.4457   2.5245   2.6257   2.6853   2.7254   2.7609   2.8051   2.8974
     2.9474   2.9627   3.0724   3.1109   3.1842   3.2113   3.2903   3.3167
     3.3600   3.3738   3.4230   3.5160   3.6441   3.7729   3.9369   3.9682

     occupation numbers 
     1.0000   1.0000   1.0000   1.0000   1.0000   1.0000   1.0000   1.0000
     1.0000   1.0000   1.0000   1.0000   1.0000   1.0000   1.0000   1.0000
     1.0000   1.0000   1.0000   1.0000   1.0000   1.0000   1.0000   1.0000
     1.0000   1.0000   1.0000   1.0000   1.0000   1.0000   1.0000   1.0000
     1.0000   1.0000   1.0000   1.0000   1.0000   1.0000   1.0000   1.0000
     1.0000   1.0000   1.0000   1.0000   1.0000   1.0000   1.0000   1.0000
     1.0000   1.0000   1.0000   1.0000   1.0000   1.0000   1.0000   1.0000
     1.0000   1.0000   1.0000   1.0000   1.0000   1.0000   1.0000   1.0000
     1.0000   1.0000   1.0000   1.0000   1.0000   1.0000   1.0000   1.0000
     1.0000   1.0000   1.0000   1.0000   1.0000   1.0000   1.0000   1.0000
     1.0000   1.0000   1.0000   1.0000   1.0000   1.0000   1.0000   1.0000
     1.0000   1.0000   1.0000   1.0000   1.0000   1.0000   1.0000   1.0000
     1.0000   1.0000   1.0000   1.0000   1.0000   1.0000   1.0000   1.0000
     1.0000   1.0000   1.0000   1.0000   1.0000   1.0000   1.0000   1.0000
     1.0000   1.0000   1.0000   1.0000   1.0000   1.0000   1.0000   1.0000
     1.0000   1.0000   1.0000   1.0000   1.0000   1.0000   1.0000   1.0000

          k = 0.1656 0.1908 0.0304 ( 47626 PWs)   bands (ev):

   -68.1625 -68.1539 -68.0581 -67.6900 -67.6097 -67.5935 -34.9479 -34.9298
   -34.9216 -34.9172 -34.9131 -34.9058 -34.8329 -34.8298 -34.8032 -34.4586
   -34.4541 -34.4519 -34.3950 -34.3881 -34.3763 -34.3535 -34.3445 -34.3347
   -23.7600 -23.7297 -15.4254 -15.3855 -14.6213 -14.5885 -14.1523 -14.1359
   -13.7297 -13.6589 -13.5897 -13.5259 -13.3790 -13.3544 -13.3452 -13.2791
   -13.2238 -13.1208 -12.9544 -12.8814 -12.8117 -12.7792 -12.6834 -12.5737
   -11.6008 -11.3730  -7.2930  -7.2683  -7.2380  -7.2345  -7.2027  -7.1904
    -4.5434  -4.5005  -3.0153  -2.9332  -2.1807  -1.7934  -1.7565  -1.7129
    -1.3318  -1.2754  -1.2027  -1.0499  -0.9143  -0.7415  -0.7266  -0.5947
    -0.4657  -0.3271  -0.2736  -0.0271   0.0376   0.1416   0.2209   0.3045
     0.6268   0.6394   0.7943   0.8783   0.9213   1.0346   1.1102   1.2098
     1.3135   1.4362   1.4552   1.5895   1.6749   1.7934   1.8743   1.9151
     1.9967   2.0432   2.0887   2.2213   2.2364   2.3388   2.3727   2.4342
     2.4767   2.5336   2.6238   2.6576   2.7088   2.7731   2.8380   2.9059
     2.9367   2.9822   3.0175   3.1067   3.1563   3.1778   3.2848   3.2934
     3.3327   3.3728   3.4363   3.5355   3.5705   3.7373   3.8210   3.9935

     occupation numbers 
     1.0000   1.0000   1.0000   1.0000   1.0000   1.0000   1.0000   1.0000
     1.0000   1.0000   1.0000   1.0000   1.0000   1.0000   1.0000   1.0000
     1.0000   1.0000   1.0000   1.0000   1.0000   1.0000   1.0000   1.0000
     1.0000   1.0000   1.0000   1.0000   1.0000   1.0000   1.0000   1.0000
     1.0000   1.0000   1.0000   1.0000   1.0000   1.0000   1.0000   1.0000
     1.0000   1.0000   1.0000   1.0000   1.0000   1.0000   1.0000   1.0000
     1.0000   1.0000   1.0000   1.0000   1.0000   1.0000   1.0000   1.0000
     1.0000   1.0000   1.0000   1.0000   1.0000   1.0000   1.0000   1.0000
     1.0000   1.0000   1.0000   1.0000   1.0000   1.0000   1.0000   1.0000
     1.0000   1.0000   1.0000   1.0000   1.0000   1.0000   1.0000   1.0000
     1.0000   1.0000   1.0000   1.0000   1.0000   1.0000   1.0000   1.0000
     1.0000   1.0000   1.0000   1.0000   1.0000   1.0000   1.0000   1.0000
     1.0000   1.0000   1.0000   1.0000   1.0000   1.0000   1.0000   1.0000
     1.0000   1.0000   1.0000   1.0000   1.0000   1.0000   1.0000   1.0000
     1.0000   1.0000   1.0000   1.0000   1.0000   1.0000   1.0000   1.0000
     1.0000   1.0000   1.0000   1.0000   1.0000   1.0000   1.0000   1.0000

          k = 0.1656 0.1908 0.2015 ( 47621 PWs)   bands (ev):

   -68.1625 -68.1539 -68.0581 -67.6900 -67.6097 -67.5935 -34.9479 -34.9298
   -34.9216 -34.9172 -34.9131 -34.9058 -34.8329 -34.8298 -34.8032 -34.4586
   -34.4541 -34.4519 -34.3950 -34.3881 -34.3763 -34.3535 -34.3445 -34.3347
   -23.7600 -23.7297 -15.4149 -15.3964 -14.6128 -14.5974 -14.1509 -14.1373
   -13.7267 -13.6541 -13.6019 -13.5186 -13.3865 -13.3493 -13.3448 -13.2784
   -13.2223 -13.1235 -12.9513 -12.8858 -12.8082 -12.7820 -12.6771 -12.5791
   -11.6005 -11.3734  -7.2930  -7.2683  -7.2379  -7.2344  -7.2026  -7.1904
    -4.5416  -4.5023  -2.9959  -2.9544  -2.1630  -1.7862  -1.7720  -1.6985
    -1.3344  -1.2718  -1.2020  -1.0459  -0.9171  -0.7865  -0.7024  -0.6367
    -0.4369  -0.3393  -0.2871  -0.0606   0.0277   0.1374   0.2073   0.3349
     0.6102   0.6578   0.7854   0.9234   0.9494   1.0517   1.1362   1.2422
     1.3489   1.3973   1.4565   1.5825   1.7285   1.7841   1.8911   1.9238
     1.9965   2.0346   2.0497   2.1683   2.2403   2.3180   2.3579   2.4043
     2.4807   2.5434   2.6357   2.6537   2.7092   2.7494   2.8143   2.8919
     2.9362   2.9842   3.0569   3.0958   3.1573   3.2057   3.2453   3.3033
     3.3408   3.3829   3.4020   3.5456   3.5866   3.7405   3.8281   4.0019

     occupation numbers 
     1.0000   1.0000   1.0000   1.0000   1.0000   1.0000   1.0000   1.0000
     1.0000   1.0000   1.0000   1.0000   1.0000   1.0000   1.0000   1.0000
     1.0000   1.0000   1.0000   1.0000   1.0000   1.0000   1.0000   1.0000
     1.0000   1.0000   1.0000   1.0000   1.0000   1.0000   1.0000   1.0000
     1.0000   1.0000   1.0000   1.0000   1.0000   1.0000   1.0000   1.0000
     1.0000   1.0000   1.0000   1.0000   1.0000   1.0000   1.0000   1.0000
     1.0000   1.0000   1.0000   1.0000   1.0000   1.0000   1.0000   1.0000
     1.0000   1.0000   1.0000   1.0000   1.0000   1.0000   1.0000   1.0000
     1.0000   1.0000   1.0000   1.0000   1.0000   1.0000   1.0000   1.0000
     1.0000   1.0000   1.0000   1.0000   1.0000   1.0000   1.0000   1.0000
     1.0000   1.0000   1.0000   1.0000   1.0000   1.0000   1.0000   1.0000
     1.0000   1.0000   1.0000   1.0000   1.0000   1.0000   1.0000   1.0000
     1.0000   1.0000   1.0000   1.0000   1.0000   1.0000   1.0000   1.0000
     1.0000   1.0000   1.0000   1.0000   1.0000   1.0000   1.0000   1.0000
     1.0000   1.0000   1.0000   1.0000   1.0000   1.0000   1.0000   1.0000
     1.0000   1.0000   1.0000   1.0000   1.0000   1.0000   1.0000   1.0000

          k = 0.1656 0.1908-0.1407 ( 47598 PWs)   bands (ev):

   -68.1625 -68.1539 -68.0581 -67.6900 -67.6097 -67.5935 -34.9479 -34.9298
   -34.9216 -34.9172 -34.9131 -34.9058 -34.8329 -34.8298 -34.8032 -34.4586
   -34.4541 -34.4519 -34.3950 -34.3881 -34.3763 -34.3535 -34.3445 -34.3347
   -23.7600 -23.7297 -15.4191 -15.3921 -14.6142 -14.5960 -14.1481 -14.1401
   -13.7280 -13.6543 -13.5981 -13.5220 -13.3838 -13.3525 -13.3433 -13.2797
   -13.2218 -13.1235 -12.9486 -12.8877 -12.7986 -12.7926 -12.6768 -12.5784
   -11.6004 -11.3734  -7.2931  -7.2683  -7.2379  -7.2344  -7.2027  -7.1904
    -4.5256  -4.5186  -2.9962  -2.9537  -2.1698  -1.7901  -1.7710  -1.6969
    -1.3194  -1.2895  -1.1813  -1.0536  -0.9329  -0.7615  -0.7115  -0.6277
    -0.4565  -0.3346  -0.2935  -0.0420   0.0437   0.1303   0.2439   0.3264
     0.6042   0.6314   0.7815   0.8977   0.9607   1.0475   1.1405   1.2321
     1.3395   1.4218   1.4380   1.6051   1.6863   1.7638   1.8778   1.9213
     1.9765   2.0445   2.0771   2.1863   2.2695   2.3140   2.3407   2.4204
     2.4977   2.5588   2.6187   2.6786   2.7168   2.7357   2.8345   2.9209
     2.9445   2.9767   3.0382   3.0952   3.1558   3.1932   3.2452   3.2852
     3.3459   3.3599   3.3945   3.5367   3.6136   3.7340   3.8268   3.9979

     occupation numbers 
     1.0000   1.0000   1.0000   1.0000   1.0000   1.0000   1.0000   1.0000
     1.0000   1.0000   1.0000   1.0000   1.0000   1.0000   1.0000   1.0000
     1.0000   1.0000   1.0000   1.0000   1.0000   1.0000   1.0000   1.0000
     1.0000   1.0000   1.0000   1.0000   1.0000   1.0000   1.0000   1.0000
     1.0000   1.0000   1.0000   1.0000   1.0000   1.0000   1.0000   1.0000
     1.0000   1.0000   1.0000   1.0000   1.0000   1.0000   1.0000   1.0000
     1.0000   1.0000   1.0000   1.0000   1.0000   1.0000   1.0000   1.0000
     1.0000   1.0000   1.0000   1.0000   1.0000   1.0000   1.0000   1.0000
     1.0000   1.0000   1.0000   1.0000   1.0000   1.0000   1.0000   1.0000
     1.0000   1.0000   1.0000   1.0000   1.0000   1.0000   1.0000   1.0000
     1.0000   1.0000   1.0000   1.0000   1.0000   1.0000   1.0000   1.0000
     1.0000   1.0000   1.0000   1.0000   1.0000   1.0000   1.0000   1.0000
     1.0000   1.0000   1.0000   1.0000   1.0000   1.0000   1.0000   1.0000
     1.0000   1.0000   1.0000   1.0000   1.0000   1.0000   1.0000   1.0000
     1.0000   1.0000   1.0000   1.0000   1.0000   1.0000   1.0000   1.0000
     1.0000   1.0000   1.0000   1.0000   1.0000   1.0000   1.0000   1.0000

          k = 0.3312 0.0000 0.0608 ( 47621 PWs)   bands (ev):

   -68.1625 -68.1540 -68.0581 -67.6899 -67.6097 -67.5935 -34.9466 -34.9323
   -34.9202 -34.9174 -34.9127 -34.9060 -34.8328 -34.8299 -34.8032 -34.4584
   -34.4545 -34.4518 -34.3957 -34.3865 -34.3766 -34.3519 -34.3465 -34.3350
   -23.7598 -23.7295 -15.2742 -15.2380 -14.7039 -14.6796 -14.2894 -14.2662
   -13.6841 -13.5837 -13.5249 -13.4989 -13.3830 -13.3736 -13.2979 -13.2721
   -13.2149 -13.1304 -13.0163 -12.9591 -12.8861 -12.8180 -12.6689 -12.5659
   -11.5964 -11.3825  -7.2939  -7.2724  -7.2379  -7.2332  -7.2023  -7.1875
    -4.1759  -4.1196  -2.9823  -2.8856  -2.2673  -2.1285  -1.8344  -1.6865
    -1.3059  -1.1763  -1.1695  -1.1348  -0.8320  -0.7537  -0.6753  -0.5990
    -0.5118  -0.3260  -0.2032  -0.0360   0.0458   0.1571   0.2110   0.2865
     0.5686   0.6642   0.7569   0.8136   0.9578   1.0228   1.1212   1.1396
     1.2186   1.2259   1.3473   1.5251   1.6121   1.8520   1.8753   1.9342
     1.9780   2.0855   2.2036   2.2360   2.2699   2.2819   2.3623   2.4455
     2.4881   2.5145   2.5944   2.6787   2.6946   2.7160   2.7555   2.7951
     2.9467   2.9866   3.0311   3.1021   3.1297   3.1799   3.2257   3.2355
     3.2712   3.3291   3.4438   3.4740   3.5465   3.7912   3.8723   3.9070

     occupation numbers 
     1.0000   1.0000   1.0000   1.0000   1.0000   1.0000   1.0000   1.0000
     1.0000   1.0000   1.0000   1.0000   1.0000   1.0000   1.0000   1.0000
     1.0000   1.0000   1.0000   1.0000   1.0000   1.0000   1.0000   1.0000
     1.0000   1.0000   1.0000   1.0000   1.0000   1.0000   1.0000   1.0000
     1.0000   1.0000   1.0000   1.0000   1.0000   1.0000   1.0000   1.0000
     1.0000   1.0000   1.0000   1.0000   1.0000   1.0000   1.0000   1.0000
     1.0000   1.0000   1.0000   1.0000   1.0000   1.0000   1.0000   1.0000
     1.0000   1.0000   1.0000   1.0000   1.0000   1.0000   1.0000   1.0000
     1.0000   1.0000   1.0000   1.0000   1.0000   1.0000   1.0000   1.0000
     1.0000   1.0000   1.0000   1.0000   1.0000   1.0000   1.0000   1.0000
     1.0000   1.0000   1.0000   1.0000   1.0000   1.0000   1.0000   1.0000
     1.0000   1.0000   1.0000   1.0000   1.0000   1.0000   1.0000   1.0000
     1.0000   1.0000   1.0000   1.0000   1.0000   1.0000   1.0000   1.0000
     1.0000   1.0000   1.0000   1.0000   1.0000   1.0000   1.0000   1.0000
     1.0000   1.0000   1.0000   1.0000   1.0000   1.0000   1.0000   1.0000
     1.0000   1.0000   1.0000   1.0000   1.0000   1.0000   1.0000   1.0000

          k = 0.3312 0.0000 0.2319 ( 47663 PWs)   bands (ev):

   -68.1625 -68.1540 -68.0581 -67.6899 -67.6097 -67.5935 -34.9466 -34.9323
   -34.9202 -34.9174 -34.9127 -34.9060 -34.8328 -34.8299 -34.8032 -34.4584
   -34.4545 -34.4518 -34.3957 -34.3865 -34.3766 -34.3519 -34.3465 -34.3350
   -23.7598 -23.7295 -15.2622 -15.2506 -14.7020 -14.6815 -14.2840 -14.2720
   -13.6809 -13.5822 -13.5346 -13.4945 -13.3810 -13.3707 -13.3067 -13.2674
   -13.2140 -13.1323 -13.0114 -12.9656 -12.8769 -12.8250 -12.6625 -12.5718
   -11.5958 -11.3831  -7.2940  -7.2725  -7.2378  -7.2332  -7.2023  -7.1875
    -4.1761  -4.1194  -2.9667  -2.9034  -2.2479  -2.1535  -1.8164  -1.6807
    -1.3061  -1.1862  -1.1574  -1.1286  -0.8117  -0.7467  -0.7048  -0.6574
    -0.4771  -0.3568  -0.1928  -0.0705   0.0535   0.1509   0.1896   0.3232
     0.6002   0.6764   0.7416   0.8268   0.8913   1.0558   1.1303   1.1806
     1.2257   1.2690   1.3020   1.5678   1.6468   1.7956   1.8994   1.9396
     1.9612   2.0423   2.1878   2.2456   2.2662   2.3077   2.3581   2.4241
     2.4510   2.5436   2.5669   2.6632   2.6707   2.7168   2.7929   2.8281
     2.9543   3.0034   3.0297   3.0949   3.1214   3.1742   3.1897   3.2559
     3.2851   3.3196   3.3823   3.4760   3.6030   3.7765   3.8893   3.9152

     occupation numbers 
     1.0000   1.0000   1.0000   1.0000   1.0000   1.0000   1.0000   1.0000
     1.0000   1.0000   1.0000   1.0000   1.0000   1.0000   1.0000   1.0000
     1.0000   1.0000   1.0000   1.0000   1.0000   1.0000   1.0000   1.0000
     1.0000   1.0000   1.0000   1.0000   1.0000   1.0000   1.0000   1.0000
     1.0000   1.0000   1.0000   1.0000   1.0000   1.0000   1.0000   1.0000
     1.0000   1.0000   1.0000   1.0000   1.0000   1.0000   1.0000   1.0000
     1.0000   1.0000   1.0000   1.0000   1.0000   1.0000   1.0000   1.0000
     1.0000   1.0000   1.0000   1.0000   1.0000   1.0000   1.0000   1.0000
     1.0000   1.0000   1.0000   1.0000   1.0000   1.0000   1.0000   1.0000
     1.0000   1.0000   1.0000   1.0000   1.0000   1.0000   1.0000   1.0000
     1.0000   1.0000   1.0000   1.0000   1.0000   1.0000   1.0000   1.0000
     1.0000   1.0000   1.0000   1.0000   1.0000   1.0000   1.0000   1.0000
     1.0000   1.0000   1.0000   1.0000   1.0000   1.0000   1.0000   1.0000
     1.0000   1.0000   1.0000   1.0000   1.0000   1.0000   1.0000   1.0000
     1.0000   1.0000   1.0000   1.0000   1.0000   1.0000   1.0000   1.0000
     1.0000   1.0000   1.0000   1.0000   1.0000   1.0000   1.0000   1.0000

          k = 0.3312 0.0000-0.1103 ( 47692 PWs)   bands (ev):

   -68.1625 -68.1540 -68.0581 -67.6899 -67.6097 -67.5935 -34.9466 -34.9323
   -34.9202 -34.9175 -34.9127 -34.9060 -34.8328 -34.8299 -34.8032 -34.4584
   -34.4545 -34.4518 -34.3957 -34.3865 -34.3766 -34.3519 -34.3465 -34.3350
   -23.7598 -23.7295 -15.2703 -15.2422 -14.6961 -14.6877 -14.2847 -14.2712
   -13.6836 -13.5769 -13.5358 -13.4971 -13.3803 -13.3698 -13.3092 -13.2641
   -13.2145 -13.1333 -13.0085 -12.9695 -12.8734 -12.8275 -12.6630 -12.5709
   -11.5958 -11.3830  -7.2940  -7.2725  -7.2378  -7.2332  -7.2023  -7.1875
    -4.1552  -4.1409  -2.9749  -2.8944  -2.2574  -2.1403  -1.8305  -1.6828
    -1.2979  -1.1776  -1.1483  -1.1390  -0.8333  -0.7431  -0.7014  -0.6270
    -0.5096  -0.3485  -0.1796  -0.0678   0.0658   0.1416   0.2338   0.2926
     0.5995   0.6494   0.7459   0.8632   0.9061   1.0133   1.1415   1.1734
     1.1948   1.2247   1.3597   1.5285   1.6232   1.8144   1.8736   1.9194
     1.9706   2.1023   2.2094   2.2365   2.2475   2.3190   2.3479   2.4418
     2.4660   2.5234   2.5820   2.6598   2.6972   2.7329   2.8090   2.8471
     2.9560   2.9811   3.0334   3.0789   3.1333   3.1447   3.1725   3.2488
     3.2712   3.3156   3.4178   3.4547   3.6037   3.7846   3.8825   3.9164

     occupation numbers 
     1.0000   1.0000   1.0000   1.0000   1.0000   1.0000   1.0000   1.0000
     1.0000   1.0000   1.0000   1.0000   1.0000   1.0000   1.0000   1.0000
     1.0000   1.0000   1.0000   1.0000   1.0000   1.0000   1.0000   1.0000
     1.0000   1.0000   1.0000   1.0000   1.0000   1.0000   1.0000   1.0000
     1.0000   1.0000   1.0000   1.0000   1.0000   1.0000   1.0000   1.0000
     1.0000   1.0000   1.0000   1.0000   1.0000   1.0000   1.0000   1.0000
     1.0000   1.0000   1.0000   1.0000   1.0000   1.0000   1.0000   1.0000
     1.0000   1.0000   1.0000   1.0000   1.0000   1.0000   1.0000   1.0000
     1.0000   1.0000   1.0000   1.0000   1.0000   1.0000   1.0000   1.0000
     1.0000   1.0000   1.0000   1.0000   1.0000   1.0000   1.0000   1.0000
     1.0000   1.0000   1.0000   1.0000   1.0000   1.0000   1.0000   1.0000
     1.0000   1.0000   1.0000   1.0000   1.0000   1.0000   1.0000   1.0000
     1.0000   1.0000   1.0000   1.0000   1.0000   1.0000   1.0000   1.0000
     1.0000   1.0000   1.0000   1.0000   1.0000   1.0000   1.0000   1.0000
     1.0000   1.0000   1.0000   1.0000   1.0000   1.0000   1.0000   1.0000
     1.0000   1.0000   1.0000   1.0000   1.0000   1.0000   1.0000   1.0000

          k = 0.3312 0.1908 0.0608 ( 47632 PWs)   bands (ev):

   -68.1625 -68.1540 -68.0581 -67.6899 -67.6097 -67.5935 -34.9466 -34.9323
   -34.9202 -34.9175 -34.9127 -34.9060 -34.8327 -34.8299 -34.8032 -34.4584
   -34.4545 -34.4518 -34.3957 -34.3865 -34.3766 -34.3519 -34.3465 -34.3350
   -23.7598 -23.7295 -15.2705 -15.2345 -14.7154 -14.6898 -14.2860 -14.2641
   -13.6604 -13.5923 -13.5007 -13.4587 -13.3958 -13.3878 -13.3417 -13.2795
   -13.2235 -13.1315 -13.0090 -12.9456 -12.8857 -12.8237 -12.6678 -12.5656
   -11.5959 -11.3824  -7.2938  -7.2733  -7.2379  -7.2329  -7.2020  -7.1876
    -4.1522  -4.0969  -3.0851  -3.0018  -2.1859  -2.0173  -1.7834  -1.7103
    -1.3158  -1.2196  -1.1611  -1.0868  -0.8315  -0.7134  -0.6698  -0.5641
    -0.4953  -0.3695  -0.2208  -0.0512   0.0567   0.1414   0.1831   0.2343
     0.5216   0.5924   0.8326   0.8871   0.9447   1.0267   1.0817   1.1550
     1.2007   1.2413   1.3417   1.4550   1.6620   1.8211   1.9041   1.9338
     1.9944   2.0859   2.1603   2.2359   2.2607   2.3339   2.3939   2.4578
     2.4895   2.5658   2.6176   2.6489   2.7215   2.7409   2.8157   2.8629
     2.9056   2.9526   2.9980   3.0624   3.1079   3.1577   3.1883   3.2160
     3.3136   3.3623   3.4193   3.4815   3.5427   3.7591   3.8393   3.8940

     occupation numbers 
     1.0000   1.0000   1.0000   1.0000   1.0000   1.0000   1.0000   1.0000
     1.0000   1.0000   1.0000   1.0000   1.0000   1.0000   1.0000   1.0000
     1.0000   1.0000   1.0000   1.0000   1.0000   1.0000   1.0000   1.0000
     1.0000   1.0000   1.0000   1.0000   1.0000   1.0000   1.0000   1.0000
     1.0000   1.0000   1.0000   1.0000   1.0000   1.0000   1.0000   1.0000
     1.0000   1.0000   1.0000   1.0000   1.0000   1.0000   1.0000   1.0000
     1.0000   1.0000   1.0000   1.0000   1.0000   1.0000   1.0000   1.0000
     1.0000   1.0000   1.0000   1.0000   1.0000   1.0000   1.0000   1.0000
     1.0000   1.0000   1.0000   1.0000   1.0000   1.0000   1.0000   1.0000
     1.0000   1.0000   1.0000   1.0000   1.0000   1.0000   1.0000   1.0000
     1.0000   1.0000   1.0000   1.0000   1.0000   1.0000   1.0000   1.0000
     1.0000   1.0000   1.0000   1.0000   1.0000   1.0000   1.0000   1.0000
     1.0000   1.0000   1.0000   1.0000   1.0000   1.0000   1.0000   1.0000
     1.0000   1.0000   1.0000   1.0000   1.0000   1.0000   1.0000   1.0000
     1.0000   1.0000   1.0000   1.0000   1.0000   1.0000   1.0000   1.0000
     1.0000   1.0000   1.0000   1.0000   1.0000   1.0000   1.0000   1.0000

          k = 0.3312 0.1908 0.2319 ( 47630 PWs)   bands (ev):

   -68.1625 -68.1540 -68.0581 -67.6899 -67.6097 -67.5935 -34.9466 -34.9323
   -34.9202 -34.9175 -34.9127 -34.9060 -34.8327 -34.8299 -34.8032 -34.4584
   -34.4545 -34.4518 -34.3957 -34.3865 -34.3766 -34.3519 -34.3465 -34.3350
   -23.7598 -23.7295 -15.2582 -15.2473 -14.7119 -14.6934 -14.2813 -14.2691
   -13.6584 -13.5880 -13.5115 -13.4536 -13.3956 -13.3858 -13.3463 -13.2760
   -13.2227 -13.1340 -13.0035 -12.9545 -12.8768 -12.8292 -12.6615 -12.5714
   -11.5954 -11.3830  -7.2938  -7.2734  -7.2378  -7.2329  -7.2020  -7.1876
    -4.1506  -4.0984  -3.0628  -3.0264  -2.1732  -2.0349  -1.7679  -1.7034
    -1.3110  -1.2354  -1.1272  -1.1005  -0.8120  -0.7433  -0.6800  -0.5862
    -0.4791  -0.3984  -0.1978  -0.0857   0.0495   0.1305   0.1724   0.2626
     0.5174   0.6125   0.8516   0.8799   0.9346   1.0089   1.1223   1.1705
     1.2241   1.2798   1.3192   1.4617   1.7059   1.7614   1.9134   1.9363
     1.9771   2.0884   2.1428   2.2306   2.2829   2.3013   2.3786   2.4371
     2.4871   2.5575   2.6111   2.6607   2.6985   2.7496   2.8202   2.8797
     2.9101   2.9890   3.0170   3.0628   3.0910   3.1457   3.1788   3.2059
     3.3250   3.3709   3.3883   3.4475   3.5988   3.7387   3.8490   3.9093

     occupation numbers 
     1.0000   1.0000   1.0000   1.0000   1.0000   1.0000   1.0000   1.0000
     1.0000   1.0000   1.0000   1.0000   1.0000   1.0000   1.0000   1.0000
     1.0000   1.0000   1.0000   1.0000   1.0000   1.0000   1.0000   1.0000
     1.0000   1.0000   1.0000   1.0000   1.0000   1.0000   1.0000   1.0000
     1.0000   1.0000   1.0000   1.0000   1.0000   1.0000   1.0000   1.0000
     1.0000   1.0000   1.0000   1.0000   1.0000   1.0000   1.0000   1.0000
     1.0000   1.0000   1.0000   1.0000   1.0000   1.0000   1.0000   1.0000
     1.0000   1.0000   1.0000   1.0000   1.0000   1.0000   1.0000   1.0000
     1.0000   1.0000   1.0000   1.0000   1.0000   1.0000   1.0000   1.0000
     1.0000   1.0000   1.0000   1.0000   1.0000   1.0000   1.0000   1.0000
     1.0000   1.0000   1.0000   1.0000   1.0000   1.0000   1.0000   1.0000
     1.0000   1.0000   1.0000   1.0000   1.0000   1.0000   1.0000   1.0000
     1.0000   1.0000   1.0000   1.0000   1.0000   1.0000   1.0000   1.0000
     1.0000   1.0000   1.0000   1.0000   1.0000   1.0000   1.0000   1.0000
     1.0000   1.0000   1.0000   1.0000   1.0000   1.0000   1.0000   1.0000
     1.0000   1.0000   1.0000   1.0000   1.0000   1.0000   1.0000   1.0000

          k = 0.3312 0.1908-0.1103 ( 47645 PWs)   bands (ev):

   -68.1625 -68.1540 -68.0581 -67.6899 -67.6097 -67.5935 -34.9466 -34.9323
   -34.9202 -34.9175 -34.9127 -34.9060 -34.8327 -34.8299 -34.8032 -34.4584
   -34.4545 -34.4518 -34.3957 -34.3865 -34.3766 -34.3519 -34.3465 -34.3350
   -23.7598 -23.7295 -15.2665 -15.2387 -14.7080 -14.6975 -14.2806 -14.2698
   -13.6603 -13.5893 -13.5039 -13.4596 -13.3898 -13.3855 -13.3526 -13.2760
   -13.2224 -13.1336 -13.0012 -12.9566 -12.8722 -12.8335 -12.6620 -12.5705
   -11.5953 -11.3830  -7.2938  -7.2734  -7.2378  -7.2329  -7.2020  -7.1876
    -4.1311  -4.1186  -3.0753  -3.0128  -2.1806  -2.0235  -1.7806  -1.7074
    -1.3025  -1.2202  -1.1503  -1.0866  -0.8368  -0.7042  -0.6917  -0.5692
    -0.5120  -0.3906  -0.2167  -0.0523   0.0675   0.1260   0.2038   0.2341
     0.5356   0.5859   0.8323   0.8947   0.9485   1.0012   1.1298   1.1692
     1.1876   1.2288   1.3551   1.4780   1.6422   1.8021   1.9011   1.9092
     1.9855   2.1234   2.1559   2.2012   2.2776   2.3072   2.3743   2.4629
     2.5192   2.5453   2.6363   2.6572   2.7251   2.7557   2.8176   2.9025
     2.9207   2.9500   3.0072   3.0477   3.1095   3.1461   3.1744   3.2159
     3.3048   3.3485   3.4029   3.4192   3.6093   3.7448   3.8464   3.9056

     occupation numbers 
     1.0000   1.0000   1.0000   1.0000   1.0000   1.0000   1.0000   1.0000
     1.0000   1.0000   1.0000   1.0000   1.0000   1.0000   1.0000   1.0000
     1.0000   1.0000   1.0000   1.0000   1.0000   1.0000   1.0000   1.0000
     1.0000   1.0000   1.0000   1.0000   1.0000   1.0000   1.0000   1.0000
     1.0000   1.0000   1.0000   1.0000   1.0000   1.0000   1.0000   1.0000
     1.0000   1.0000   1.0000   1.0000   1.0000   1.0000   1.0000   1.0000
     1.0000   1.0000   1.0000   1.0000   1.0000   1.0000   1.0000   1.0000
     1.0000   1.0000   1.0000   1.0000   1.0000   1.0000   1.0000   1.0000
     1.0000   1.0000   1.0000   1.0000   1.0000   1.0000   1.0000   1.0000
     1.0000   1.0000   1.0000   1.0000   1.0000   1.0000   1.0000   1.0000
     1.0000   1.0000   1.0000   1.0000   1.0000   1.0000   1.0000   1.0000
     1.0000   1.0000   1.0000   1.0000   1.0000   1.0000   1.0000   1.0000
     1.0000   1.0000   1.0000   1.0000   1.0000   1.0000   1.0000   1.0000
     1.0000   1.0000   1.0000   1.0000   1.0000   1.0000   1.0000   1.0000
     1.0000   1.0000   1.0000   1.0000   1.0000   1.0000   1.0000   1.0000
     1.0000   1.0000   1.0000   1.0000   1.0000   1.0000   1.0000   1.0000

          k =-0.4968 0.0000-0.0912 ( 47678 PWs)   bands (ev):

   -68.1625 -68.1540 -68.0581 -67.6899 -67.6097 -67.5935 -34.9459 -34.9335
   -34.9193 -34.9178 -34.9125 -34.9062 -34.8327 -34.8300 -34.8033 -34.4582
   -34.4547 -34.4518 -34.3958 -34.3860 -34.3767 -34.3497 -34.3489 -34.3352
   -23.7597 -23.7294 -15.1284 -15.0993 -14.8514 -14.8253 -14.3145 -14.2912
   -13.6076 -13.5466 -13.4791 -13.4411 -13.4027 -13.3746 -13.3566 -13.3053
   -13.2313 -13.1263 -13.0496 -13.0035 -12.9055 -12.8263 -12.6632 -12.5650
   -11.5941 -11.3873  -7.2940  -7.2752  -7.2375  -7.2327  -7.2021  -7.1861
    -3.8060  -3.7520  -3.2663  -3.2085  -2.2017  -2.1121  -1.7112  -1.6953
    -1.3745  -1.2444  -1.1661  -1.1091  -0.7859  -0.6908  -0.6743  -0.5982
    -0.4495  -0.4433  -0.0541  -0.0469   0.0271   0.1008   0.2160   0.2341
     0.5433   0.6313   0.7153   0.7397   1.0120   1.0233   1.0447   1.0576
     1.2395   1.2406   1.3738   1.4158   1.6342   1.7729   1.9177   1.9265
     1.9601   2.1302   2.1583   2.2044   2.3127   2.3376   2.4266   2.4726
     2.5320   2.5441   2.6185   2.6212   2.6597   2.6795   2.8160   2.8713
     2.8838   2.9284   2.9973   3.0263   3.0840   3.1178   3.1581   3.2468
     3.2601   3.3229   3.4453   3.4838   3.5276   3.8051   3.8429   3.8860

     occupation numbers 
     1.0000   1.0000   1.0000   1.0000   1.0000   1.0000   1.0000   1.0000
     1.0000   1.0000   1.0000   1.0000   1.0000   1.0000   1.0000   1.0000
     1.0000   1.0000   1.0000   1.0000   1.0000   1.0000   1.0000   1.0000
     1.0000   1.0000   1.0000   1.0000   1.0000   1.0000   1.0000   1.0000
     1.0000   1.0000   1.0000   1.0000   1.0000   1.0000   1.0000   1.0000
     1.0000   1.0000   1.0000   1.0000   1.0000   1.0000   1.0000   1.0000
     1.0000   1.0000   1.0000   1.0000   1.0000   1.0000   1.0000   1.0000
     1.0000   1.0000   1.0000   1.0000   1.0000   1.0000   1.0000   1.0000
     1.0000   1.0000   1.0000   1.0000   1.0000   1.0000   1.0000   1.0000
     1.0000   1.0000   1.0000   1.0000   1.0000   1.0000   1.0000   1.0000
     1.0000   1.0000   1.0000   1.0000   1.0000   1.0000   1.0000   1.0000
     1.0000   1.0000   1.0000   1.0000   1.0000   1.0000   1.0000   1.0000
     1.0000   1.0000   1.0000   1.0000   1.0000   1.0000   1.0000   1.0000
     1.0000   1.0000   1.0000   1.0000   1.0000   1.0000   1.0000   1.0000
     1.0000   1.0000   1.0000   1.0000   1.0000   1.0000   1.0000   1.0000
     1.0000   1.0000   1.0000   1.0000   1.0000   1.0000   1.0000   1.0000

          k =-0.4968 0.0000 0.0799 ( 47654 PWs)   bands (ev):

   -68.1624 -68.1540 -68.0581 -67.6899 -67.6097 -67.5935 -34.9459 -34.9335
   -34.9193 -34.9178 -34.9125 -34.9062 -34.8327 -34.8300 -34.8033 -34.4582
   -34.4547 -34.4518 -34.3958 -34.3860 -34.3767 -34.3497 -34.3489 -34.3352
   -23.7597 -23.7294 -15.1214 -15.1065 -14.8452 -14.8316 -14.3102 -14.2957
   -13.6081 -13.5459 -13.4752 -13.4338 -13.4100 -13.3846 -13.3573 -13.2991
   -13.2292 -13.1285 -13.0442 -13.0118 -12.8943 -12.8345 -12.6572 -12.5705
   -11.5934 -11.3879  -7.2941  -7.2753  -7.2374  -7.2327  -7.2020  -7.1861
    -3.7932  -3.7651  -3.2538  -3.2224  -2.1916  -2.1236  -1.7128  -1.6893
    -1.3694  -1.2332  -1.1544  -1.1151  -0.7762  -0.6989  -0.6696  -0.6023
    -0.4902  -0.4636  -0.0490  -0.0215   0.0258   0.0689   0.2125   0.2597
     0.5723   0.6394   0.6906   0.7819   0.9160   0.9832   1.0923   1.1223
     1.1965   1.2425   1.4224   1.4554   1.6143   1.7551   1.8797   1.9287
     1.9868   2.1127   2.1269   2.2144   2.3123   2.3256   2.4072   2.4821
     2.5357   2.5662   2.5959   2.6179   2.6650   2.7008   2.8706   2.8897
     2.9055   2.9308   2.9878   3.0090   3.0988   3.1281   3.1443   3.1992
     3.2429   3.2932   3.4212   3.4664   3.5843   3.8064   3.8514   3.8949

     occupation numbers 
     1.0000   1.0000   1.0000   1.0000   1.0000   1.0000   1.0000   1.0000
     1.0000   1.0000   1.0000   1.0000   1.0000   1.0000   1.0000   1.0000
     1.0000   1.0000   1.0000   1.0000   1.0000   1.0000   1.0000   1.0000
     1.0000   1.0000   1.0000   1.0000   1.0000   1.0000   1.0000   1.0000
     1.0000   1.0000   1.0000   1.0000   1.0000   1.0000   1.0000   1.0000
     1.0000   1.0000   1.0000   1.0000   1.0000   1.0000   1.0000   1.0000
     1.0000   1.0000   1.0000   1.0000   1.0000   1.0000   1.0000   1.0000
     1.0000   1.0000   1.0000   1.0000   1.0000   1.0000   1.0000   1.0000
     1.0000   1.0000   1.0000   1.0000   1.0000   1.0000   1.0000   1.0000
     1.0000   1.0000   1.0000   1.0000   1.0000   1.0000   1.0000   1.0000
     1.0000   1.0000   1.0000   1.0000   1.0000   1.0000   1.0000   1.0000
     1.0000   1.0000   1.0000   1.0000   1.0000   1.0000   1.0000   1.0000
     1.0000   1.0000   1.0000   1.0000   1.0000   1.0000   1.0000   1.0000
     1.0000   1.0000   1.0000   1.0000   1.0000   1.0000   1.0000   1.0000
     1.0000   1.0000   1.0000   1.0000   1.0000   1.0000   1.0000   1.0000
     1.0000   1.0000   1.0000   1.0000   1.0000   1.0000   1.0000   1.0000

          k =-0.4968 0.1908-0.0912 ( 47670 PWs)   bands (ev):

   -68.1624 -68.1540 -68.0581 -67.6899 -67.6097 -67.5935 -34.9459 -34.9335
   -34.9193 -34.9178 -34.9125 -34.9062 -34.8327 -34.8300 -34.8033 -34.4582
   -34.4547 -34.4518 -34.3958 -34.3860 -34.3767 -34.3497 -34.3489 -34.3352
   -23.7597 -23.7294 -15.1274 -15.0980 -14.8510 -14.8249 -14.3187 -14.2958
   -13.6043 -13.5446 -13.4624 -13.4619 -13.3914 -13.3856 -13.3705 -13.2870
   -13.2242 -13.1337 -13.0455 -12.9977 -12.9108 -12.8308 -12.6625 -12.5651
   -11.5938 -11.3874  -7.2942  -7.2759  -7.2375  -7.2324  -7.2017  -7.1861
    -3.8174  -3.7612  -3.2800  -3.2218  -2.1774  -2.0881  -1.7006  -1.6893
    -1.3797  -1.2649  -1.0941  -1.0569  -0.7723  -0.6924  -0.6847  -0.5976
    -0.4754  -0.4559  -0.1039  -0.0488   0.0762   0.1125   0.1607   0.2098
     0.4886   0.5278   0.8331   0.8353   0.9573   0.9992   1.0810   1.1184
     1.1987   1.2278   1.3140   1.3692   1.6694   1.7300   1.9291   1.9476
     1.9765   2.0835   2.1385   2.2051   2.3293   2.3660   2.3922   2.4561
     2.5229   2.5541   2.6225   2.6438   2.7128   2.7461   2.8000   2.8450
     2.9026   2.9538   3.0145   3.0159   3.0755   3.1013   3.1771   3.1819
     3.3143   3.3999   3.4089   3.4932   3.5155   3.7873   3.8172   3.8488

     occupation numbers 
     1.0000   1.0000   1.0000   1.0000   1.0000   1.0000   1.0000   1.0000
     1.0000   1.0000   1.0000   1.0000   1.0000   1.0000   1.0000   1.0000
     1.0000   1.0000   1.0000   1.0000   1.0000   1.0000   1.0000   1.0000
     1.0000   1.0000   1.0000   1.0000   1.0000   1.0000   1.0000   1.0000
     1.0000   1.0000   1.0000   1.0000   1.0000   1.0000   1.0000   1.0000
     1.0000   1.0000   1.0000   1.0000   1.0000   1.0000   1.0000   1.0000
     1.0000   1.0000   1.0000   1.0000   1.0000   1.0000   1.0000   1.0000
     1.0000   1.0000   1.0000   1.0000   1.0000   1.0000   1.0000   1.0000
     1.0000   1.0000   1.0000   1.0000   1.0000   1.0000   1.0000   1.0000
     1.0000   1.0000   1.0000   1.0000   1.0000   1.0000   1.0000   1.0000
     1.0000   1.0000   1.0000   1.0000   1.0000   1.0000   1.0000   1.0000
     1.0000   1.0000   1.0000   1.0000   1.0000   1.0000   1.0000   1.0000
     1.0000   1.0000   1.0000   1.0000   1.0000   1.0000   1.0000   1.0000
     1.0000   1.0000   1.0000   1.0000   1.0000   1.0000   1.0000   1.0000
     1.0000   1.0000   1.0000   1.0000   1.0000   1.0000   1.0000   1.0000
     1.0000   1.0000   1.0000   1.0000   1.0000   1.0000   1.0000   1.0000

          k =-0.4968 0.1908 0.0799 ( 47659 PWs)   bands (ev):

   -68.1624 -68.1540 -68.0581 -67.6899 -67.6097 -67.5935 -34.9459 -34.9335
   -34.9193 -34.9178 -34.9125 -34.9062 -34.8327 -34.8300 -34.8033 -34.4582
[...]
     atom    8 type  4   force =     0.00000000    0.00042919   -0.00000000
     atom    9 type  6   force =     0.00212736    0.01055287    0.00591371
     atom   10 type  6   force =    -0.00212736    0.01055288   -0.00591367
     atom   11 type  6   force =     0.00037119    0.00320702   -0.01368015
     atom   12 type  6   force =    -0.00037118    0.00320702    0.01368015
     atom   13 type  6   force =    -0.00146198   -0.01161094    0.01091121
     atom   14 type  6   force =     0.00146202   -0.01161093   -0.01091129
     atom   15 type  1   force =    -0.00054888   -0.00233037   -0.01024108
     atom   16 type  1   force =     0.00054888   -0.00233037    0.01024108
     atom   17 type  5   force =    -0.00012052    0.00021598    0.00647141
     atom   18 type  5   force =     0.00012051    0.00021598   -0.00647140
     atom   19 type  5   force =    -0.00009642    0.00008332   -0.00694950
     atom   20 type  5   force =     0.00009642    0.00008332    0.00694950
     atom   21 type  5   force =     0.00006068   -0.00022649    0.00681193
     atom   22 type  5   force =    -0.00006066   -0.00022649   -0.00681193
     atom   23 type  5   force =     0.00006289    0.00005256   -0.00322472
     atom   24 type  5   force =    -0.00006289    0.00005256    0.00322472
     atom   25 type  5   force =     0.00451185   -0.00160707   -0.00579281
     atom   26 type  5   force =    -0.00451186   -0.00160707    0.00579276
     atom   27 type  5   force =    -0.00330848    0.00076942   -0.00705194
     atom   28 type  5   force =     0.00330849    0.00076942    0.00705194
     atom   29 type  5   force =    -0.00158772    0.00227692    0.00726095
     atom   30 type  5   force =     0.00158772    0.00227691   -0.00726094
     atom   31 type  5   force =     0.00086144   -0.00210798   -0.00742265
     atom   32 type  5   force =    -0.00086144   -0.00210799    0.00742262
     atom   33 type  5   force =    -0.00233785   -0.00346126   -0.00641313
     atom   34 type  5   force =     0.00233782   -0.00346125    0.00641316
     atom   35 type  5   force =     0.00117645    0.00395111    0.00638506
     atom   36 type  5   force =    -0.00117643    0.00395112   -0.00638508
     atom   37 type  5   force =    -0.00008195    0.00037731    0.01132228
     atom   38 type  5   force =     0.00008198    0.00037731   -0.01132226
     atom   39 type  5   force =    -0.00010345   -0.00121337    0.01111384
     atom   40 type  5   force =     0.00010347   -0.00121337   -0.01111384
     atom   41 type  2   force =     0.00000000    0.00000000    0.00000000
     atom   42 type  2   force =     0.00000000    0.00000000    0.00000000
     atom   43 type  2   force =     0.00000000    0.00000000    0.00000000
     atom   44 type  2   force =     0.00000000    0.00000000    0.00000000
     The Hubbard contrib.    to forces
     atom    1 type  3   force =     0.00000000    0.00000000    0.00000000
     atom    2 type  3   force =     0.00000000    0.00000000    0.00000000
     atom    3 type  4   force =     0.00000000    0.00000000    0.00000000
     atom    4 type  4   force =     0.00000000    0.00000000    0.00000000
     atom    5 type  4   force =     0.00000000    0.00000000    0.00000000
     atom    6 type  4   force =     0.00000000    0.00000000    0.00000000
     atom    7 type  4   force =     0.00000000    0.00000000    0.00000000
     atom    8 type  4   force =     0.00000000    0.00000000    0.00000000
     atom    9 type  6   force =     0.00000000    0.00000000    0.00000000
     atom   10 type  6   force =     0.00000000    0.00000000    0.00000000
     atom   11 type  6   force =     0.00000000    0.00000000    0.00000000
     atom   12 type  6   force =     0.00000000    0.00000000    0.00000000
     atom   13 type  6   force =     0.00000000    0.00000000    0.00000000
     atom   14 type  6   force =     0.00000000    0.00000000    0.00000000
     atom   15 type  1   force =     0.00000000    0.00000000    0.00000000
     atom   16 type  1   force =     0.00000000    0.00000000    0.00000000
     atom   17 type  5   force =     0.00000000    0.00000000    0.00000000
     atom   18 type  5   force =     0.00000000    0.00000000    0.00000000
     atom   19 type  5   force =     0.00000000    0.00000000    0.00000000
     atom   20 type  5   force =     0.00000000    0.00000000    0.00000000
     atom   21 type  5   force =     0.00000000    0.00000000    0.00000000
     atom   22 type  5   force =     0.00000000    0.00000000    0.00000000
     atom   23 type  5   force =     0.00000000    0.00000000    0.00000000
     atom   24 type  5   force =     0.00000000    0.00000000    0.00000000
     atom   25 type  5   force =     0.00000000    0.00000000    0.00000000
     atom   26 type  5   force =     0.00000000    0.00000000    0.00000000
     atom   27 type  5   force =     0.00000000    0.00000000    0.00000000
     atom   28 type  5   force =     0.00000000    0.00000000    0.00000000
     atom   29 type  5   force =     0.00000000    0.00000000    0.00000000
     atom   30 type  5   force =     0.00000000    0.00000000    0.00000000
     atom   31 type  5   force =     0.00000000    0.00000000    0.00000000
     atom   32 type  5   force =     0.00000000    0.00000000    0.00000000
     atom   33 type  5   force =     0.00000000    0.00000000    0.00000000
     atom   34 type  5   force =     0.00000000    0.00000000    0.00000000
     atom   35 type  5   force =     0.00000000    0.00000000    0.00000000
     atom   36 type  5   force =     0.00000000    0.00000000    0.00000000
     atom   37 type  5   force =     0.00000000    0.00000000    0.00000000
     atom   38 type  5   force =     0.00000000    0.00000000    0.00000000
     atom   39 type  5   force =     0.00000000    0.00000000    0.00000000
     atom   40 type  5   force =     0.00000000    0.00000000    0.00000000
     atom   41 type  2   force =     0.00000000    0.00000000    0.00000000
     atom   42 type  2   force =     0.00000000    0.00000000    0.00000000
     atom   43 type  2   force =     0.00000000    0.00000000    0.00000000
     atom   44 type  2   force =     0.00000000    0.00000000    0.00000000
     The SCF correction term to forces
     atom    1 type  3   force =     0.00000000    0.00000144   -0.00000000
     atom    2 type  3   force =    -0.00000000   -0.00000145   -0.00000000
     atom    3 type  4   force =     0.00000000    0.00000148   -0.00000000
     atom    4 type  4   force =     0.00000000   -0.00000194   -0.00000000
     atom    5 type  4   force =     0.00000000    0.00000074   -0.00000000
     atom    6 type  4   force =     0.00000000   -0.00000325   -0.00000000
     atom    7 type  4   force =     0.00000000    0.00000016   -0.00000000
     atom    8 type  4   force =    -0.00000000    0.00000278   -0.00000000
     atom    9 type  6   force =     0.00000014   -0.00000098    0.00000026
     atom   10 type  6   force =    -0.00000014   -0.00000098   -0.00000026
     atom   11 type  6   force =    -0.00000000    0.00000024    0.00000117
     atom   12 type  6   force =     0.00000000    0.00000024   -0.00000117
     atom   13 type  6   force =     0.00000000    0.00000069   -0.00000101
     atom   14 type  6   force =    -0.00000000    0.00000069    0.00000101
     atom   15 type  1   force =     0.00000023   -0.00000006   -0.00000082
     atom   16 type  1   force =    -0.00000023   -0.00000006    0.00000082
     atom   17 type  5   force =     0.00000009    0.00000047   -0.00000168
     atom   18 type  5   force =    -0.00000009    0.00000047    0.00000168
     atom   19 type  5   force =     0.00000008    0.00000043    0.00000257
     atom   20 type  5   force =    -0.00000008    0.00000043   -0.00000257
     atom   21 type  5   force =    -0.00000013   -0.00000009   -0.00000295
     atom   22 type  5   force =     0.00000013   -0.00000009    0.00000295
     atom   23 type  5   force =     0.00000045   -0.00000076   -0.00000002
     atom   24 type  5   force =    -0.00000045   -0.00000076    0.00000002
     atom   25 type  5   force =    -0.00000124   -0.00000107    0.00000129
     atom   26 type  5   force =     0.00000124   -0.00000107   -0.00000129
     atom   27 type  5   force =     0.00000016   -0.00000031    0.00000018
     atom   28 type  5   force =    -0.00000016   -0.00000031   -0.00000018
     atom   29 type  5   force =     0.00000008    0.00000029    0.00000030
     atom   30 type  5   force =    -0.00000008    0.00000029   -0.00000030
     atom   31 type  5   force =    -0.00000002    0.00000055   -0.00000039
     atom   32 type  5   force =     0.00000002    0.00000055    0.00000039
     atom   33 type  5   force =    -0.00000011    0.00000168    0.00000067
     atom   34 type  5   force =     0.00000011    0.00000168   -0.00000067
     atom   35 type  5   force =    -0.00000118   -0.00000154   -0.00000166
     atom   36 type  5   force =     0.00000118   -0.00000154    0.00000166
     atom   37 type  5   force =     0.00000037   -0.00000100   -0.00000226
     atom   38 type  5   force =    -0.00000037   -0.00000100    0.00000226
     atom   39 type  5   force =     0.00000016    0.00000097   -0.00000277
     atom   40 type  5   force =    -0.00000016    0.00000097    0.00000277
     atom   41 type  2   force =     0.00000004   -0.00000006   -0.00000067
     atom   42 type  2   force =    -0.00000004   -0.00000006    0.00000067
     atom   43 type  2   force =     0.00000001    0.00000010   -0.00000074
     atom   44 type  2   force =    -0.00000001    0.00000010    0.00000074

     DFT-D3 dispersion contribution to forces:
     atom    1 type  3   force =    -0.00000000    0.00134161   -0.00000000
     atom    2 type  3   force =    -0.00000000   -0.00134771    0.00000000
     atom    3 type  4   force =    -0.00000000    0.00033503   -0.00000000
     atom    4 type  4   force =    -0.00000000    0.00074217    0.00000000
     atom    5 type  4   force =    -0.00000000   -0.00109605    0.00000000
     atom    6 type  4   force =     0.00000000   -0.00064951    0.00000000
     atom    7 type  4   force =     0.00000000    0.00109600   -0.00000000
     atom    8 type  4   force =     0.00000000   -0.00020583   -0.00000000
     atom    9 type  6   force =     0.00002529   -0.00006893   -0.00019498
     atom   10 type  6   force =    -0.00002529   -0.00006893    0.00019498
     atom   11 type  6   force =     0.00003510    0.00004495    0.00013999
     atom   12 type  6   force =    -0.00003510    0.00004495   -0.00013999
     atom   13 type  6   force =    -0.00002418    0.00015849   -0.00012225
     atom   14 type  6   force =     0.00002418    0.00015849    0.00012225
     atom   15 type  1   force =    -0.00000295    0.00012257   -0.00102383
     atom   16 type  1   force =     0.00000295    0.00012257    0.00102383
     atom   17 type  5   force =    -0.00001073    0.00005188    0.00047017
     atom   18 type  5   force =     0.00001073    0.00005188   -0.00047017
     atom   19 type  5   force =     0.00000360    0.00000872   -0.00043268
     atom   20 type  5   force =    -0.00000360    0.00000872    0.00043268
     atom   21 type  5   force =    -0.00001584   -0.00004895    0.00045969
     atom   22 type  5   force =     0.00001584   -0.00004895   -0.00045969
     atom   23 type  5   force =    -0.00002212   -0.00002890    0.00006301
     atom   24 type  5   force =     0.00002212   -0.00002890   -0.00006301
     atom   25 type  5   force =    -0.00018603    0.00094677    0.00037706
     atom   26 type  5   force =     0.00018603    0.00094677   -0.00037706
     atom   27 type  5   force =     0.00088836    0.00007943    0.00021431
     atom   28 type  5   force =    -0.00088836    0.00007943   -0.00021431
     atom   29 type  5   force =     0.00028088   -0.00042324    0.00012395
     atom   30 type  5   force =    -0.00028088   -0.00042324   -0.00012395
     atom   31 type  5   force =    -0.00014168    0.00022564   -0.00020722
     atom   32 type  5   force =     0.00014168    0.00022564    0.00020722
     atom   33 type  5   force =     0.00099436   -0.00044354    0.00042168
     atom   34 type  5   force =    -0.00099435   -0.00044354   -0.00042168
     atom   35 type  5   force =     0.00064379   -0.00044131   -0.00054146
     atom   36 type  5   force =    -0.00064379   -0.00044131    0.00054146
     atom   37 type  5   force =    -0.00000734   -0.00004119   -0.00047586
     atom   38 type  5   force =     0.00000734   -0.00004119    0.00047586
     atom   39 type  5   force =     0.00002699    0.00004793   -0.00050487
     atom   40 type  5   force =    -0.00002699    0.00004793    0.00050487
     atom   41 type  2   force =    -0.00000842    0.00004345   -0.00026830
     atom   42 type  2   force =     0.00000842    0.00004345    0.00026830
     atom   43 type  2   force =     0.00001491   -0.00034164   -0.00031020
     atom   44 type  2   force =    -0.00001491   -0.00034164    0.00031020

     Total force =     0.000211     Total SCF correction =     0.000012

     DFT-D3 dispersion Force =     0.004629


     Computing stress (Cartesian axis) and pressure

          total   stress  (Ry/bohr**3)                   (kbar)     P=        0.22
   0.00000119   0.00000000  -0.00000026            0.18        0.00       -0.04
   0.00000000   0.00000098   0.00000000            0.00        0.14        0.00
  -0.00000026   0.00000000   0.00000232           -0.04        0.00        0.34

     kinetic stress (kbar)  18591.12      0.00     -2.82
                                0.00  18588.86      0.00
                               -2.82      0.00  18274.26

     local   stress (kbar) -37295.41     -0.00    -90.32
                               -0.00 -37010.93      0.00
                              -90.32      0.00  14851.37

     nonloc. stress (kbar)   4948.96      0.00     -0.36
                                0.00   4948.89      0.00
                               -0.36      0.00   4940.37

     hartree stress (kbar)  20421.56     -0.00     35.20
                               -0.00  20299.81     -0.00
                               35.20     -0.00  -5113.44

     exc-cor stress (kbar)  -2705.97      0.00      0.03
                                0.00  -2706.11      0.00
                                0.03      0.00  -2702.82

     corecor stress (kbar)  -1804.26     -0.00      0.09
                               -0.00  -1804.26     -0.00
                                0.09     -0.00  -1805.80

     ewald   stress (kbar)  -2141.05     -0.00     57.96
                               -0.00  -2301.16     -0.00
                               57.96     -0.00 -28432.80

     hubbard stress (kbar)      0.00      0.00      0.00
                                0.00      0.00      0.00
                                0.00      0.00      0.00

     DFT-D   stress (kbar)    -14.77     -0.00      0.16
                               -0.00    -14.96      0.00
                                0.16      0.00    -10.80

     XDM     stress (kbar)      0.00      0.00      0.00
                                0.00      0.00      0.00
                                0.00      0.00      0.00

     dft-nl  stress (kbar)      0.00      0.00      0.00
                                0.00      0.00      0.00
                                0.00      0.00      0.00

     TS-vdW  stress (kbar)      0.00      0.00      0.00
                                0.00      0.00      0.00
                                0.00      0.00      0.00

     MDB     stress (kbar)      0.00      0.00      0.00
                                0.00      0.00      0.00
                                0.00      0.00      0.00

     3D-RISM stress (kbar)      0.00      0.00      0.00
                                0.00      0.00      0.00
                                0.00      0.00      0.00


     Writing all to output data dir ./temp/phl-fe0-dftd3.save/ :
     XML data file, charge density, pseudopotentials, collected wavefunctions

     init_run     :    322.53s CPU    326.84s WALL (       2 calls)
     electrons    :  79351.31s CPU  79791.90s WALL (       6 calls)
     update_pot   :      5.37s CPU      5.45s WALL (       4 calls)
     forces       :    789.84s CPU    796.94s WALL (       6 calls)
     force_dftd3  :     11.21s CPU     11.48s WALL (       6 calls)
     stress       :   1580.41s CPU   1606.36s WALL (       6 calls)
     stres_dftd3  :     10.92s CPU     11.19s WALL (       6 calls)

     Called by init_run:
     wfcinit      :    307.22s CPU    310.04s WALL (       2 calls)
     wfcinit:atom :      0.20s CPU      0.20s WALL (      20 calls)
     wfcinit:wfcr :    305.30s CPU    308.03s WALL (      20 calls)
     potinit      :      2.13s CPU      2.30s WALL (       2 calls)
     hinit0       :      1.51s CPU      1.61s WALL (       2 calls)

     Called by electrons:
     c_bands      :  74722.26s CPU  75046.15s WALL (      91 calls)
     sum_band     :   4143.67s CPU   4219.02s WALL (      91 calls)
     v_of_rho     :     43.14s CPU     44.77s WALL (      92 calls)
     v_h          :      3.84s CPU      4.03s WALL (      92 calls)
     v_xc         :     44.48s CPU     46.27s WALL (     104 calls)
     newd         :    401.76s CPU    443.41s WALL (      92 calls)
     PAW_pot      :     46.16s CPU     46.21s WALL (      96 calls)
     mix_rho      :      7.96s CPU      8.20s WALL (      91 calls)
     energy_dftd3 :      8.81s CPU      8.81s WALL (       6 calls)

     Called by c_bands:
     init_us_2    :     99.08s CPU     99.28s WALL (    2000 calls)
     cegterg      :  71111.44s CPU  71434.09s WALL (     922 calls)

     Called by sum_band:
     sum_band:wei :      0.13s CPU      0.13s WALL (      91 calls)
     sum_band:loo :   3614.06s CPU   3641.12s WALL (      91 calls)
     sum_band:buf :     13.29s CPU     13.31s WALL (     910 calls)
     sum_band:ini :     40.48s CPU     40.50s WALL (     910 calls)
     sum_band:cal :   2818.73s CPU   2820.87s WALL (     950 calls)
     sum_band:bec :      1.30s CPU      1.31s WALL (     950 calls)
     addusdens    :    459.30s CPU    506.15s WALL (      91 calls)
                                        0.00s GPU  (      91 calls)
     addusd:skk   :      2.11s CPU      3.71s WALL (     546 calls)
                                        0.00s GPU  (     546 calls)

     Called by *egterg:
     cdiaghg      :    392.03s CPU    392.26s WALL (    6785 calls)
     cegterg:over :  13809.90s CPU  13817.53s WALL (    5964 calls)
     cegterg:upda :   3985.82s CPU   3994.41s WALL (    5964 calls)
     cegterg:last :  10990.53s CPU  10993.66s WALL (    3787 calls)
     h_psi        :  25127.88s CPU  25394.72s WALL (    6906 calls)
     s_psi        :   8373.77s CPU   8377.30s WALL (    6906 calls)
     g_psi        :     20.88s CPU     20.94s WALL (    5964 calls)

     Called by h_psi:
     h_psi:calbec :  11084.33s CPU  11092.47s WALL (    6906 calls)
     vloc_psi     :   5779.22s CPU   6017.94s WALL (    6906 calls)
     add_vuspsi   :   8232.55s CPU   8235.98s WALL (    6906 calls)

     General routines
     calbec       :  15094.45s CPU  15108.97s WALL (    8156 calls)
     fft          :     42.04s CPU     44.83s WALL (    1343 calls)
     ffts         :      2.08s CPU      2.25s WALL (     183 calls)
     fftw         :   4640.31s CPU   4895.90s WALL ( 1101704 calls)
     interpolate  :      4.45s CPU      4.71s WALL (      92 calls)

     Parallel routines

     PAW routines
     PAW_pot      :     46.16s CPU     46.21s WALL (      96 calls)
     PAW_symme    :      0.11s CPU      0.13s WALL (     186 calls)

     PWSCF        :     22h49m CPU     22h57m WALL


   This run was terminated on:  10: 3:42  16Dec2025            

=------------------------------------------------------------------------------=
   JOB DONE.
=------------------------------------------------------------------------------=
