
     Program PWSCF v.7.3.1 starts on 26Dec2024 at 15:19:46 

     This program is part of the open-source Quantum ESPRESSO suite
     for quantum simulation of materials; please cite
         "P. Giannozzi et al., J. Phys.:Condens. Matter 21 395502 (2009);
         "P. Giannozzi et al., J. Phys.:Condens. Matter 29 465901 (2017);
         "P. Giannozzi et al., J. Chem. Phys. 152 154105 (2020);
          URL http://www.quantum-espresso.org", 
     in publications or presentations arising from this work. More details at
     http://www.quantum-espresso.org/quote

     Parallel version (MPI), running on     4 processors

     MPI processes distributed on     1 nodes
     6348 MiB available memory on the printing compute node when the environment starts

     Reading input from vc_relax.in

     Current dimensions of program PWSCF are:
     Max number of different atomic species (ntypx) = 10
     Max number of k-points (npk) =  40000
     Max angular momentum in pseudopotentials (lmaxx) =  4
     file Al.pbe-n-kjpaw_psl.1.0.0.UPF: wavefunction(s)  3S 3P renormalized
     file H.pbe-kjpaw_psl.1.0.0.UPF: wavefunction(s)  1S renormalized
     file K.pbe-spn-kjpaw_psl.1.0.0.UPF: wavefunction(s)  3S renormalized
     file Mg.pbe-spnl-kjpaw_psl.1.0.0.UPF: wavefunction(s)  2P renormalized
     file O.pbe-n-kjpaw_psl.1.0.0.UPF: wavefunction(s)  2S 2P renormalized
     file Si.pbe-n-kjpaw_psl.1.0.0.UPF: wavefunction(s)  3S 3P renormalized

     R & G space division:  proc/nbgrp/npool/nimage =       4
     Subspace diagonalization in iterative solution of the eigenvalue problem:
     a serial algorithm will be used


     Parallelization info
     --------------------
     sticks:   dense  smooth     PW     G-vecs:    dense   smooth      PW
     Min        1658     832    225               146616    51868    7377
     Max        1659     833    227               146617    51870    7378
     Sum        6633    3329    905               586467   207475   29511

     Using Slab Decomposition



     bravais-lattice index     =          -12
     lattice parameter (alat)  =      10.0136  a.u.
     unit-cell volume          =    3303.4414 (a.u.)^3
     number of atoms/cell      =           44
     number of atomic types    =            6
     number of electrons       =       256.00
     number of Kohn-Sham states=          128
     kinetic-energy cutoff     =      60.0000  Ry
     charge density cutoff     =     480.0000  Ry
     scf convergence threshold =      1.0E-06
     mixing beta               =       0.7000
     number of iterations used =            8  plain     mixing
     energy convergence thresh.=      1.0E-04
     force convergence thresh. =      1.0E-03
     press convergence thresh. =      5.0E-01
     Exchange-correlation= SLA  PW   PBX  PBC
                           (   1   4   3   4   0   0   0)
     nstep                     =           50


     celldm(1)=  10.013640  celldm(2)=   1.735306  celldm(3)=   1.926511
     celldm(4)=   0.000000  celldm(5)=  -0.177565  celldm(6)=   0.000000

     crystal axes: (cart. coord. in units of alat)
               a(1) = (   1.000000   0.000000   0.000000 )  
               a(2) = (   0.000000   1.735306   0.000000 )  
               a(3) = (  -0.342081   0.000000   1.895896 )  

     reciprocal axes: (cart. coord. in units 2 pi/alat)
               b(1) = (  1.000000 -0.000000  0.180432 )  
               b(2) = (  0.000000  0.576267 -0.000000 )  
               b(3) = (  0.000000  0.000000  0.527455 )  


     PseudoPot. # 1 for Al read from file:
     ./../../pseudos/Al.pbe-n-kjpaw_psl.1.0.0.UPF
     MD5 check sum: 502b6b27b9c6270cab5dd1084b96fa6d
     Pseudo is Projector augmented-wave + core cor, Zval =  3.0
     Generated using &quot;atomic&quot; code by A. Dal Corso  v.6.3
     Shape of augmentation charge: PSQ
     Using radial grid of 1135 points,  6 beta functions with: 
                l(1) =   0
                l(2) =   0
                l(3) =   1
                l(4) =   1
                l(5) =   2
                l(6) =   2
     Q(r) pseudized with 0 coefficients 


     PseudoPot. # 2 for H  read from file:
     ./../../pseudos/H.pbe-kjpaw_psl.1.0.0.UPF
     MD5 check sum: d81a744832360e4a8af0b0b5b123bc2a
     Pseudo is Projector augmented-wave, Zval =  1.0
     Generated using &quot;atomic&quot; code by A. Dal Corso  v.6.3MaX
     Shape of augmentation charge: PSQ
     Using radial grid of  929 points,  2 beta functions with: 
                l(1) =   0
                l(2) =   0
     Q(r) pseudized with 0 coefficients 


     PseudoPot. # 3 for K  read from file:
     ./../../pseudos/K.pbe-spn-kjpaw_psl.1.0.0.UPF
     MD5 check sum: 34cc42130a09071ebe376fd42eb21491
     Pseudo is Projector augmented-wave + core cor, Zval =  9.0
     Generated using &quot;atomic&quot; code by A. Dal Corso  v.6.2.2
     Shape of augmentation charge: PSQ
     Using radial grid of 1165 points,  6 beta functions with: 
                l(1) =   0
                l(2) =   0
                l(3) =   1
                l(4) =   1
                l(5) =   2
                l(6) =   2
     Q(r) pseudized with 0 coefficients 


     PseudoPot. # 4 for Mg read from file:
     ./../../pseudos/Mg.pbe-spnl-kjpaw_psl.1.0.0.UPF
     MD5 check sum: fda14e0d92a6a9a5ebed782e5a4b3067
     Pseudo is Projector augmented-wave + core cor, Zval = 10.0
     Generated using &quot;atomic&quot; code by A. Dal Corso  v.6.3
     Shape of augmentation charge: PSQ
     Using radial grid of 1129 points,  4 beta functions with: 
                l(1) =   0
                l(2) =   0
                l(3) =   1
                l(4) =   1
     Q(r) pseudized with 0 coefficients 


     PseudoPot. # 5 for O  read from file:
     ./../../pseudos/O.pbe-n-kjpaw_psl.1.0.0.UPF
     MD5 check sum: e99d9cef9b487d1ca56f5b95ecd0fd7a
     Pseudo is Projector augmented-wave + core cor, Zval =  6.0
     Generated using &quot;atomic&quot; code by A. Dal Corso  v.6.3
     Shape of augmentation charge: PSQ
     Using radial grid of 1095 points,  4 beta functions with: 
                l(1) =   0
                l(2) =   0
                l(3) =   1
                l(4) =   1
     Q(r) pseudized with 0 coefficients 


     PseudoPot. # 6 for Si read from file:
     ./../../pseudos/Si.pbe-n-kjpaw_psl.1.0.0.UPF
     MD5 check sum: c39c59da582df4a0d9f10159256ea34e
     Pseudo is Projector augmented-wave + core cor, Zval =  4.0
     Generated using &quot;atomic&quot; code by A. Dal Corso  v.6.3
     Shape of augmentation charge: PSQ
     Using radial grid of 1141 points,  6 beta functions with: 
                l(1) =   0
                l(2) =   0
                l(3) =   1
                l(4) =   1
                l(5) =   2
                l(6) =   2
     Q(r) pseudized with 0 coefficients 


     atomic species   valence    mass     pseudopotential
     Al                3.00    26.98154     Al( 1.00)
     H                 1.00     1.00794     H ( 1.00)
     K                 9.00    39.09830     K ( 1.00)
     Mg               10.00    24.30500     Mg( 1.00)
     O                 6.00    15.99940     O ( 1.00)
     Si                4.00    28.08550     Si( 1.00)

      2 Sym. Ops. (no inversion) found


                                    s                        frac. trans.

      isym =  1     identity                                     

 cryst.   s( 1) = (     1          0          0      )
                  (     0          1          0      )
                  (     0          0          1      )

 cart.    s( 1) = (  1.0000000  0.0000000 -0.0000000 )
                  (  0.0000000  1.0000000  0.0000000 )
                  (  0.0000000  0.0000000  1.0000000 )


      isym =  2     180 deg rotation - cart. axis [0,1,0]        

 cryst.   s( 2) = (    -1          0          0      )
                  (     0          1          0      )
                  (     0          0         -1      )

 cart.    s( 2) = ( -1.0000000  0.0000000  0.0000000 )
                  (  0.0000000  1.0000000  0.0000000 )
                  (  0.0000000  0.0000000 -1.0000000 )


     point group C_2  (2)   
     there are  2 classes
     the character table:

       E     C2   
A      1.00  1.00
B      1.00 -1.00

     the symmetry operations in each class and the name of the first element:

     E        1
          identity                                               
     C2       2
          180 deg rotation - cart. axis [0,1,0]                  

   Cartesian axes

     site n.     atom                  positions (alat units)
         1        K      tau(   1) = (   0.0000000   0.8552589   0.0000000  )
         2        K      tau(   2) = (   0.5000000   0.0083241   0.0000000  )
         3        Mg     tau(   3) = (  -0.1710407   0.0074026   0.9479482  )
         4        Mg     tau(   4) = (  -0.1710407   0.5782728   0.9479482  )
         5        Mg     tau(   5) = (  -0.1710407   1.1542675   0.9479482  )
         6        Mg     tau(   6) = (   0.3289593   0.8558829   0.9479482  )
         7        Mg     tau(   7) = (   0.3289593   1.4482156   0.9479482  )
         8        Mg     tau(   8) = (   0.3289593   0.2988039   0.9479482  )
         9        Si     tau(   9) = (   0.0073229   0.2865013   0.4209525  )
        10        Si     tau(  10) = (   0.6505957   0.2865013   1.4749440  )
        11        Si     tau(  11) = (   0.6707627   1.4478389   1.4627579  )
        12        Si     tau(  12) = (  -0.0128440   1.4478389   0.4331386  )
        13        Si     tau(  13) = (   0.4864573   1.1565218   0.4289850  )
        14        Si     tau(  14) = (   0.1714614   1.1565218   1.4669113  )
        15        Al     tau(  15) = (   0.1499381   0.5745429   1.4713635  )
        16        Al     tau(  16) = (   0.5079806   0.5745429   0.4245329  )
        17        O      tau(  17) = (  -0.0042705   0.2839600   0.7288963  )
        18        O      tau(  18) = (   0.6621892   0.2839600   1.1670001  )
        19        O      tau(  19) = (   0.6657557   1.4457156   1.1573454  )
        20        O      tau(  20) = (  -0.0078369   1.4457156   0.7385510  )
        21        O      tau(  21) = (   0.4924130   1.1608158   0.7357073  )
        22        O      tau(  22) = (   0.1655057   1.1608158   1.1601890  )
        23        O      tau(  23) = (   0.1546506   0.5778562   1.1449747  )
        24        O      tau(  24) = (   0.5032681   0.5778562   0.7509217  )
        25        O      tau(  25) = (   0.2867319   0.3516527   0.3121693  )
        26        O      tau(  26) = (   0.3711868   0.3516527   1.5837270  )
        27        O      tau(  27) = (   0.9380313   1.7305269   0.3167643  )
        28        O      tau(  28) = (  -0.2801126   1.7305269   1.5791321  )
        29        O      tau(  29) = (   0.3987445   1.3453251   1.5763210  )
        30        O      tau(  30) = (   0.2591742   1.3453251   0.3195754  )
        31        O      tau(  31) = (   0.7581705   1.2701153   0.3177602  )
        32        O      tau(  32) = (  -0.1002518   1.2701153   1.5781362  )
        33        O      tau(  33) = (   0.4407616   0.8811099   0.3059823  )
        34        O      tau(  34) = (   0.2171571   0.8811099   1.5899141  )
        35        O      tau(  35) = (  -0.1446729   0.4803810   1.5953815  )
        36        O      tau(  36) = (   0.8025917   0.4803810   0.3005149  )
        37        O      tau(  37) = (  -0.0044324   0.8749287   0.7464452  )
        38        O      tau(  38) = (   0.6623511   0.8749287   1.1494512  )
        39        O      tau(  39) = (   0.4963835   1.7340188   0.7530168  )
        40        O      tau(  40) = (   0.1615353   1.7340188   1.1428796  )
        41        H      tau(  41) = (  -0.0030255   0.8591788   0.5649693  )
        42        H      tau(  42) = (   0.6609443   0.8591788   1.3309270  )
        43        H      tau(  43) = (   0.4921220   0.0241592   0.5724767  )
        44        H      tau(  44) = (   0.1657967   0.0241592   1.3234197  )

     --------------------------------------------
     DFT-D3 Dispersion Correction (3-body terms):
     --------------------------------------------
       Reference C6 values for interpolation: 

         atom   Coordination number   C6
         H          0.912             6.05
         H          0.000            15.18
         O          0.000            31.01
         O          0.993            25.63
         O          1.989            20.74
         Mg         0.000          1366.75
         Mg         0.963           902.54
         Mg         1.950           351.12
         Al         0.000          1081.08
         Al         0.965           875.51
         Al         1.931           513.50
         Al         2.915           307.19
         Si         0.000           635.71
         Si         0.951           540.53
         Si         1.944           466.25
         Si         2.941           443.01
         Si         3.868           299.55
         K          0.000          9967.00
         K          0.977           676.04

       Values used:

         atom   Coordination number  R0_AB[au]  C6      C8
         K         13.676            4.007    676.04 129074.98
         K         13.899            4.007    676.04 129074.98
         Mg        11.849            3.292    351.12  31436.69
         Mg        12.214            3.292    351.12  31436.69
         Mg        11.786            3.292    351.12  31436.69
         Mg        12.072            3.292    351.12  31436.69
         Mg        11.748            3.292    351.12  31436.69
         Mg        12.229            3.292    351.12  31436.69
         Si         6.968            3.583    299.55  21425.58
         Si         6.968            3.583    299.55  21425.58
         Si         6.545            3.583    299.55  21425.58
         Si         6.545            3.583    299.55  21425.58
         Si         6.595            3.583    299.55  21425.58
         Si         6.595            3.583    299.55  21425.58
         Al         7.869            3.789    307.19  29441.29
         Al         7.869            3.789    307.19  29441.29
         O          3.928            2.345     20.74    418.58
         O          3.928            2.345     20.74    418.58
         O          3.930            2.345     20.74    418.58
         O          3.930            2.345     20.74    418.58
         O          3.913            2.345     20.74    418.58
         O          3.913            2.345     20.74    418.58
         O          3.993            2.345     20.74    418.58
         O          3.993            2.345     20.74    418.58
         O          3.192            2.345     20.74    418.58
         O          3.192            2.345     20.74    418.58
         O          3.159            2.345     20.74    418.58
         O          3.159            2.345     20.74    418.58
         O          3.063            2.345     20.74    418.58
         O          3.063            2.345     20.74    418.58
         O          3.065            2.345     20.74    418.58
         O          3.065            2.345     20.74    418.58
         O          3.198            2.345     20.74    418.58
         O          3.198            2.345     20.74    418.58
         O          3.263            2.345     20.74    418.58
         O          3.263            2.345     20.74    418.58
         O          4.003            2.345     20.74    418.58
         O          4.003            2.345     20.74    418.58
         O          4.002            2.345     20.74    418.58
         O          4.002            2.345     20.74    418.58
         H          1.329            2.062      6.07     73.32
         H          1.329            2.062      6.07     73.32
         H          1.304            2.062      6.07     73.35
         H          1.304            2.062      6.07     73.35

         Molecular C6 ( Ry / a.u.^6 ) =    168240.82


   Crystallographic axes

     site n.     atom                  positions (cryst. coord.)
         1        K      tau(   1) = (  0.0000000  0.4928577  0.0000000  )
         2        K      tau(   2) = (  0.5000000  0.0047969  0.0000000  )
         3        Mg     tau(   3) = (  0.0000000  0.0042659  0.5000000  )
         4        Mg     tau(   4) = (  0.0000000  0.3332396  0.5000000  )
         5        Mg     tau(   5) = (  0.0000000  0.6651665  0.5000000  )
         6        Mg     tau(   6) = (  0.5000000  0.4932172  0.5000000  )
         7        Mg     tau(   7) = (  0.5000000  0.8345591  0.5000000  )
         8        Mg     tau(   8) = (  0.5000000  0.1721909  0.5000000  )
         9        Si     tau(   9) = (  0.0832765  0.1651013  0.2220335  )
        10        Si     tau(  10) = (  0.9167235  0.1651013  0.7779666  )
        11        Si     tau(  11) = (  0.9346918  0.8343421  0.7715389  )
        12        Si     tau(  12) = (  0.0653082  0.8343421  0.2284611  )
        13        Si     tau(  13) = (  0.5638601  0.6664656  0.2262703  )
        14        Si     tau(  14) = (  0.4361399  0.6664656  0.7737297  )
        15        Al     tau(  15) = (  0.4154199  0.3310902  0.7760780  )
        16        Al     tau(  16) = (  0.5845801  0.3310902  0.2239220  )
        17        O      tau(  17) = (  0.1272461  0.1636368  0.3844600  )
        18        O      tau(  18) = (  0.8727539  0.1636368  0.6155400  )
        19        O      tau(  19) = (  0.8745784  0.8331184  0.6104476  )
        20        O      tau(  20) = (  0.1254217  0.8331184  0.3895524  )
        21        O      tau(  21) = (  0.6251585  0.6689401  0.3880525  )
        22        O      tau(  22) = (  0.3748415  0.6689401  0.6119475  )
        23        O      tau(  23) = (  0.3612413  0.3329996  0.6039226  )
        24        O      tau(  24) = (  0.6387588  0.3329996  0.3960774  )
        25        O      tau(  25) = (  0.3430574  0.2026459  0.1646553  )
        26        O      tau(  26) = (  0.6569426  0.2026459  0.8353447  )
        27        O      tau(  27) = (  0.9951859  0.9972458  0.1670789  )
        28        O      tau(  28) = (  0.0048141  0.9972458  0.8329211  )
        29        O      tau(  29) = (  0.6831640  0.7752667  0.8314384  )
        30        O      tau(  30) = (  0.3168360  0.7752667  0.1685616  )
        31        O      tau(  31) = (  0.8155048  0.7319258  0.1676042  )
        32        O      tau(  32) = (  0.1844952  0.7319258  0.8323958  )
        33        O      tau(  33) = (  0.4959708  0.5077547  0.1613919  )
        34        O      tau(  34) = (  0.5040292  0.5077547  0.8386081  )
        35        O      tau(  35) = (  0.1431857  0.2768278  0.8414919  )
        36        O      tau(  36) = (  0.8568143  0.2768278  0.1585081  )
        37        O      tau(  37) = (  0.1302506  0.5041927  0.3937162  )
        38        O      tau(  38) = (  0.8697495  0.5041927  0.6062838  )
        39        O      tau(  39) = (  0.6322522  0.9992582  0.3971825  )
        40        O      tau(  40) = (  0.3677479  0.9992582  0.6028175  )
        41        H      tau(  41) = (  0.0989133  0.4951165  0.2979959  )
        42        H      tau(  42) = (  0.9010867  0.4951165  0.7020041  )
        43        H      tau(  43) = (  0.5954154  0.0139222  0.3019557  )
        44        H      tau(  44) = (  0.4045846  0.0139222  0.6980443  )

     number of k points=    20
                       cart. coord. in units 2pi/alat
        k(    1) = (   0.0000000   0.0000000   0.0000000), wk =   0.0370370
        k(    2) = (   0.0000000   0.0000000   0.1758183), wk =   0.0740741
        k(    3) = (   0.0000000   0.1920891   0.0000000), wk =   0.0740741
        k(    4) = (   0.0000000   0.1920891   0.1758183), wk =   0.1481481
        k(    5) = (   0.1666667   0.0000000   0.0300721), wk =   0.0740741
        k(    6) = (   0.1666667   0.0000000   0.2058904), wk =   0.0740741
        k(    7) = (   0.1666667   0.0000000  -0.1457462), wk =   0.0740741
        k(    8) = (   0.1666667   0.1920891   0.0300721), wk =   0.1481481
        k(    9) = (   0.1666667   0.1920891   0.2058904), wk =   0.1481481
        k(   10) = (   0.1666667   0.1920891  -0.1457462), wk =   0.1481481
        k(   11) = (   0.3333333   0.0000000   0.0601442), wk =   0.0740741
        k(   12) = (   0.3333333   0.0000000   0.2359625), wk =   0.0740741
        k(   13) = (   0.3333333   0.0000000  -0.1156742), wk =   0.0740741
        k(   14) = (   0.3333333   0.1920891   0.0601442), wk =   0.1481481
        k(   15) = (   0.3333333   0.1920891   0.2359625), wk =   0.1481481
        k(   16) = (   0.3333333   0.1920891  -0.1156742), wk =   0.1481481
        k(   17) = (  -0.5000000   0.0000000  -0.0902162), wk =   0.0370370
        k(   18) = (  -0.5000000   0.0000000   0.0856021), wk =   0.0740741
        k(   19) = (  -0.5000000   0.1920891  -0.0902162), wk =   0.0740741
        k(   20) = (  -0.5000000   0.1920891   0.0856021), wk =   0.1481481

                       cryst. coord.
        k(    1) = (   0.0000000   0.0000000   0.0000000), wk =   0.0370370
        k(    2) = (   0.0000000   0.0000000   0.3333333), wk =   0.0740741
        k(    3) = (   0.0000000   0.3333333   0.0000000), wk =   0.0740741
        k(    4) = (   0.0000000   0.3333333   0.3333333), wk =   0.1481481
        k(    5) = (   0.1666667   0.0000000  -0.0000000), wk =   0.0740741
        k(    6) = (   0.1666667   0.0000000   0.3333333), wk =   0.0740741
        k(    7) = (   0.1666667   0.0000000  -0.3333333), wk =   0.0740741
        k(    8) = (   0.1666667   0.3333333  -0.0000000), wk =   0.1481481
        k(    9) = (   0.1666667   0.3333333   0.3333333), wk =   0.1481481
        k(   10) = (   0.1666667   0.3333333  -0.3333333), wk =   0.1481481
        k(   11) = (   0.3333333   0.0000000  -0.0000000), wk =   0.0740741
        k(   12) = (   0.3333333   0.0000000   0.3333333), wk =   0.0740741
        k(   13) = (   0.3333333   0.0000000  -0.3333333), wk =   0.0740741
        k(   14) = (   0.3333333   0.3333333  -0.0000000), wk =   0.1481481
        k(   15) = (   0.3333333   0.3333333   0.3333333), wk =   0.1481481
        k(   16) = (   0.3333333   0.3333333  -0.3333333), wk =   0.1481481
        k(   17) = (  -0.5000000   0.0000000   0.0000000), wk =   0.0370370
        k(   18) = (  -0.5000000   0.0000000   0.3333333), wk =   0.0740741
        k(   19) = (  -0.5000000   0.3333333   0.0000000), wk =   0.0740741
        k(   20) = (  -0.5000000   0.3333333   0.3333333), wk =   0.1481481

     Dense  grid:   586467 G-vectors     FFT dimensions: (  72, 125, 135)

     Smooth grid:   207475 G-vectors     FFT dimensions: (  50,  90,  96)

     Dynamical RAM for                 wfc:      12.66 MB

     Dynamical RAM for     wfc (w. buffer):     265.82 MB

     Dynamical RAM for           str. fact:      13.42 MB

     Dynamical RAM for           local pot:       0.00 MB

     Dynamical RAM for          nlocal pot:      42.33 MB

     Dynamical RAM for                qrad:      21.10 MB

     Dynamical RAM for          rho,v,vnew:      13.72 MB

     Dynamical RAM for               rhoin:       4.57 MB

     Dynamical RAM for            rho*nmix:      35.80 MB

     Dynamical RAM for           G-vectors:       8.79 MB

     Dynamical RAM for          h,s,v(r/c):       3.00 MB

     Dynamical RAM for          <psi|beta>:       0.84 MB

     Dynamical RAM for                 psi:      25.32 MB

     Dynamical RAM for                hpsi:      25.32 MB

     Dynamical RAM for                spsi:      25.32 MB

     Dynamical RAM for      wfcinit/wfcrot:      35.93 MB

     Dynamical RAM for           addusdens:     469.81 MB

     Dynamical RAM for          addusforce:     573.94 MB

     Dynamical RAM for         addusstress:     449.68 MB

     Estimated static dynamical RAM per process >     397.07 MB

     Estimated max dynamical RAM per process >    1006.80 MB

     Estimated total dynamical RAM >       3.93 GB

     Check: negative core charge=   -0.000004

     Initial potential from superposition of free atoms

     starting charge     255.9488, renormalised to     256.0000
     Starting wfcs are  178 randomized atomic wfcs
     Checking if some PAW data can be deallocated... 
       PAW data deallocated on    3 nodes for type:  1
       PAW data deallocated on    3 nodes for type:  2
       PAW data deallocated on    3 nodes for type:  3
       PAW data deallocated on    3 nodes for type:  4
       PAW data deallocated on    1 nodes for type:  5
       PAW data deallocated on    2 nodes for type:  6

     total cpu time spent up to now is      116.1 secs

     Self-consistent Calculation

     iteration #  1     ecut=    60.00 Ry     beta= 0.70
     Davidson diagonalization with overlap

---- Real-time Memory Report at c_bands before calling an iterative solver
           551 MiB given to the printing process from OS
             0 MiB allocation reported by mallinfo(arena+hblkhd)
          5273 MiB available memory on the node where the printing process lives
------------------
     ethr =  1.00E-02,  avg # of iterations =  2.0

     total cpu time spent up to now is      362.9 secs

     total energy              =   -2435.26203998 Ry
     estimated scf accuracy    <      13.01025627 Ry

     iteration #  2     ecut=    60.00 Ry     beta= 0.70
     Davidson diagonalization with overlap

---- Real-time Memory Report at c_bands before calling an iterative solver
           884 MiB given to the printing process from OS
             0 MiB allocation reported by mallinfo(arena+hblkhd)
          5141 MiB available memory on the node where the printing process lives
------------------
     ethr =  5.08E-03,  avg # of iterations =  5.0

     total cpu time spent up to now is      861.2 secs

     total energy              =   -2441.75964530 Ry
     estimated scf accuracy    <      12.84588765 Ry

     iteration #  3     ecut=    60.00 Ry     beta= 0.70
     Davidson diagonalization with overlap

---- Real-time Memory Report at c_bands before calling an iterative solver
           886 MiB given to the printing process from OS
             0 MiB allocation reported by mallinfo(arena+hblkhd)
          4389 MiB available memory on the node where the printing process lives
------------------
     ethr =  5.02E-03,  avg # of iterations =  2.0

     total cpu time spent up to now is     1098.7 secs

     total energy              =   -2440.70059442 Ry
     estimated scf accuracy    <       2.93210003 Ry

     iteration #  4     ecut=    60.00 Ry     beta= 0.70
     Davidson diagonalization with overlap

---- Real-time Memory Report at c_bands before calling an iterative solver
           887 MiB given to the printing process from OS
             0 MiB allocation reported by mallinfo(arena+hblkhd)
          4144 MiB available memory on the node where the printing process lives
------------------
     ethr =  1.15E-03,  avg # of iterations =  6.8

     total cpu time spent up to now is     1656.9 secs

     total energy              =   -2444.05209506 Ry
     estimated scf accuracy    <       3.29391397 Ry

     iteration #  5     ecut=    60.00 Ry     beta= 0.70
     Davidson diagonalization with overlap

---- Real-time Memory Report at c_bands before calling an iterative solver
           889 MiB given to the printing process from OS
             0 MiB allocation reported by mallinfo(arena+hblkhd)
          3889 MiB available memory on the node where the printing process lives
------------------
     ethr =  1.15E-03,  avg # of iterations =  1.0

     total cpu time spent up to now is     1856.7 secs

     total energy              =   -2443.27623535 Ry
     estimated scf accuracy    <       2.07581066 Ry

     iteration #  6     ecut=    60.00 Ry     beta= 0.70
     Davidson diagonalization with overlap

---- Real-time Memory Report at c_bands before calling an iterative solver
           891 MiB given to the printing process from OS
             0 MiB allocation reported by mallinfo(arena+hblkhd)
          4010 MiB available memory on the node where the printing process lives
------------------
     ethr =  8.11E-04,  avg # of iterations =  2.2

     total cpu time spent up to now is     2123.4 secs

     total energy              =   -2443.49817617 Ry
     estimated scf accuracy    <       0.40131694 Ry

     iteration #  7     ecut=    60.00 Ry     beta= 0.70
     Davidson diagonalization with overlap

---- Real-time Memory Report at c_bands before calling an iterative solver
           892 MiB given to the printing process from OS
             0 MiB allocation reported by mallinfo(arena+hblkhd)
          4003 MiB available memory on the node where the printing process lives
------------------
     ethr =  1.57E-04,  avg # of iterations =  5.1

     total cpu time spent up to now is     2509.2 secs

     total energy              =   -2443.67961952 Ry
     estimated scf accuracy    <       0.03185718 Ry

     iteration #  8     ecut=    60.00 Ry     beta= 0.70
     Davidson diagonalization with overlap

---- Real-time Memory Report at c_bands before calling an iterative solver
           894 MiB given to the printing process from OS
             0 MiB allocation reported by mallinfo(arena+hblkhd)
          3995 MiB available memory on the node where the printing process lives
------------------
     ethr =  1.24E-05,  avg # of iterations =  5.8

     total cpu time spent up to now is     3067.5 secs

     total energy              =   -2443.70157271 Ry
     estimated scf accuracy    <       0.01365895 Ry

     iteration #  9     ecut=    60.00 Ry     beta= 0.70
     Davidson diagonalization with overlap

---- Real-time Memory Report at c_bands before calling an iterative solver
           896 MiB given to the printing process from OS
             0 MiB allocation reported by mallinfo(arena+hblkhd)
          2707 MiB available memory on the node where the printing process lives
------------------
     ethr =  5.34E-06,  avg # of iterations =  2.6

     total cpu time spent up to now is     3535.1 secs

     total energy              =   -2443.70356042 Ry
     estimated scf accuracy    <       0.01113662 Ry

     iteration # 10     ecut=    60.00 Ry     beta= 0.70
     Davidson diagonalization with overlap

---- Real-time Memory Report at c_bands before calling an iterative solver
           897 MiB given to the printing process from OS
             0 MiB allocation reported by mallinfo(arena+hblkhd)
          2143 MiB available memory on the node where the printing process lives
------------------
     ethr =  4.35E-06,  avg # of iterations =  3.0

     total cpu time spent up to now is     4065.9 secs

     total energy              =   -2443.70347754 Ry
     estimated scf accuracy    <       0.01375789 Ry

     iteration # 11     ecut=    60.00 Ry     beta= 0.70
     Davidson diagonalization with overlap

---- Real-time Memory Report at c_bands before calling an iterative solver
           897 MiB given to the printing process from OS
             0 MiB allocation reported by mallinfo(arena+hblkhd)
          2076 MiB available memory on the node where the printing process lives
------------------
     ethr =  4.35E-06,  avg # of iterations =  2.0

     total cpu time spent up to now is     4521.8 secs

     total energy              =   -2443.70183475 Ry
     estimated scf accuracy    <       0.01134564 Ry

     iteration # 12     ecut=    60.00 Ry     beta= 0.70
     Davidson diagonalization with overlap

---- Real-time Memory Report at c_bands before calling an iterative solver
           897 MiB given to the printing process from OS
             0 MiB allocation reported by mallinfo(arena+hblkhd)
          2092 MiB available memory on the node where the printing process lives
------------------
     ethr =  4.35E-06,  avg # of iterations =  2.0

     total cpu time spent up to now is     4958.7 secs

     total energy              =   -2443.70363169 Ry
     estimated scf accuracy    <       0.00672853 Ry

     iteration # 13     ecut=    60.00 Ry     beta= 0.70
     Davidson diagonalization with overlap

---- Real-time Memory Report at c_bands before calling an iterative solver
           897 MiB given to the printing process from OS
             0 MiB allocation reported by mallinfo(arena+hblkhd)
          3116 MiB available memory on the node where the printing process lives
------------------
     ethr =  2.63E-06,  avg # of iterations =  2.0

     total cpu time spent up to now is     5413.9 secs

     total energy              =   -2443.70085662 Ry
     estimated scf accuracy    <       0.00907208 Ry

     iteration # 14     ecut=    60.00 Ry     beta= 0.70
     Davidson diagonalization with overlap

---- Real-time Memory Report at c_bands before calling an iterative solver
           897 MiB given to the printing process from OS
             0 MiB allocation reported by mallinfo(arena+hblkhd)
          2073 MiB available memory on the node where the printing process lives
------------------
     ethr =  2.63E-06,  avg # of iterations =  2.0

     total cpu time spent up to now is     5894.7 secs

     total energy              =   -2443.70103422 Ry
     estimated scf accuracy    <       0.00370439 Ry

     iteration # 15     ecut=    60.00 Ry     beta= 0.70
     Davidson diagonalization with overlap

---- Real-time Memory Report at c_bands before calling an iterative solver
           897 MiB given to the printing process from OS
             0 MiB allocation reported by mallinfo(arena+hblkhd)
          2086 MiB available memory on the node where the printing process lives
------------------
     ethr =  1.45E-06,  avg # of iterations =  5.2

     total cpu time spent up to now is     6439.5 secs

     total energy              =   -2443.70195795 Ry
     estimated scf accuracy    <       0.00187938 Ry

     iteration # 16     ecut=    60.00 Ry     beta= 0.70
     Davidson diagonalization with overlap

---- Real-time Memory Report at c_bands before calling an iterative solver
           897 MiB given to the printing process from OS
             0 MiB allocation reported by mallinfo(arena+hblkhd)
          2064 MiB available memory on the node where the printing process lives
------------------
     ethr =  7.34E-07,  avg # of iterations =  6.6

     total cpu time spent up to now is     7235.3 secs

     total energy              =   -2443.70362686 Ry
     estimated scf accuracy    <       0.00322257 Ry

     iteration # 17     ecut=    60.00 Ry     beta= 0.70
     Davidson diagonalization with overlap

---- Real-time Memory Report at c_bands before calling an iterative solver
           897 MiB given to the printing process from OS
             0 MiB allocation reported by mallinfo(arena+hblkhd)
          3093 MiB available memory on the node where the printing process lives
------------------
     ethr =  7.34E-07,  avg # of iterations =  6.5

     total cpu time spent up to now is     8098.6 secs

     total energy              =   -2443.70400098 Ry
     estimated scf accuracy    <       0.00835173 Ry

     iteration # 18     ecut=    60.00 Ry     beta= 0.70
     Davidson diagonalization with overlap

---- Real-time Memory Report at c_bands before calling an iterative solver
           897 MiB given to the printing process from OS
             0 MiB allocation reported by mallinfo(arena+hblkhd)
         10630 MiB available memory on the node where the printing process lives
------------------
     ethr =  7.34E-07,  avg # of iterations =  2.0

     total cpu time spent up to now is     8329.4 secs

     total energy              =   -2443.70208796 Ry
     estimated scf accuracy    <       0.00682771 Ry

     iteration # 19     ecut=    60.00 Ry     beta= 0.70
     Davidson diagonalization with overlap

---- Real-time Memory Report at c_bands before calling an iterative solver
           897 MiB given to the printing process from OS
             0 MiB allocation reported by mallinfo(arena+hblkhd)
         10646 MiB available memory on the node where the printing process lives
------------------
     ethr =  7.34E-07,  avg # of iterations =  5.0

     total cpu time spent up to now is     8620.1 secs

     total energy              =   -2443.70171362 Ry
     estimated scf accuracy    <       0.00264443 Ry

     iteration # 20     ecut=    60.00 Ry     beta= 0.70
     Davidson diagonalization with overlap

---- Real-time Memory Report at c_bands before calling an iterative solver
           897 MiB given to the printing process from OS
             0 MiB allocation reported by mallinfo(arena+hblkhd)
         10636 MiB available memory on the node where the printing process lives
------------------
     ethr =  7.34E-07,  avg # of iterations =  3.6

     total cpu time spent up to now is     8882.5 secs

     total energy              =   -2443.70159414 Ry
     estimated scf accuracy    <       0.00106229 Ry

     iteration # 21     ecut=    60.00 Ry     beta= 0.70
     Davidson diagonalization with overlap

---- Real-time Memory Report at c_bands before calling an iterative solver
           897 MiB given to the printing process from OS
             0 MiB allocation reported by mallinfo(arena+hblkhd)
         10698 MiB available memory on the node where the printing process lives
------------------
     ethr =  4.15E-07,  avg # of iterations =  5.0

     total cpu time spent up to now is     9293.0 secs

     total energy              =   -2443.70233614 Ry
     estimated scf accuracy    <       0.00006984 Ry

     iteration # 22     ecut=    60.00 Ry     beta= 0.70
     Davidson diagonalization with overlap

---- Real-time Memory Report at c_bands before calling an iterative solver
           897 MiB given to the printing process from OS
             0 MiB allocation reported by mallinfo(arena+hblkhd)
         10717 MiB available memory on the node where the printing process lives
------------------
     ethr =  2.73E-08,  avg # of iterations =  8.3

     total cpu time spent up to now is     9816.7 secs

     total energy              =   -2443.70229810 Ry
     estimated scf accuracy    <       0.00037626 Ry

     iteration # 23     ecut=    60.00 Ry     beta= 0.70
     Davidson diagonalization with overlap

---- Real-time Memory Report at c_bands before calling an iterative solver
           897 MiB given to the printing process from OS
             0 MiB allocation reported by mallinfo(arena+hblkhd)
         10714 MiB available memory on the node where the printing process lives
------------------
     ethr =  2.73E-08,  avg # of iterations =  4.8

     total cpu time spent up to now is    10097.2 secs

     total energy              =   -2443.70225025 Ry
     estimated scf accuracy    <       0.00017327 Ry

     iteration # 24     ecut=    60.00 Ry     beta= 0.70
     Davidson diagonalization with overlap

---- Real-time Memory Report at c_bands before calling an iterative solver
           897 MiB given to the printing process from OS
             0 MiB allocation reported by mallinfo(arena+hblkhd)
         10710 MiB available memory on the node where the printing process lives
------------------
     ethr =  2.73E-08,  avg # of iterations =  5.6

     total cpu time spent up to now is    10513.4 secs

     total energy              =   -2443.70228524 Ry
     estimated scf accuracy    <       0.00002370 Ry

     iteration # 25     ecut=    60.00 Ry     beta= 0.70
     Davidson diagonalization with overlap

---- Real-time Memory Report at c_bands before calling an iterative solver
           897 MiB given to the printing process from OS
             0 MiB allocation reported by mallinfo(arena+hblkhd)
         10717 MiB available memory on the node where the printing process lives
------------------
     ethr =  9.26E-09,  avg # of iterations =  3.0

     total cpu time spent up to now is    10763.3 secs

     total energy              =   -2443.70228497 Ry
     estimated scf accuracy    <       0.00001691 Ry

     iteration # 26     ecut=    60.00 Ry     beta= 0.70
     Davidson diagonalization with overlap

---- Real-time Memory Report at c_bands before calling an iterative solver
           897 MiB given to the printing process from OS
             0 MiB allocation reported by mallinfo(arena+hblkhd)
         10676 MiB available memory on the node where the printing process lives
------------------
     ethr =  6.60E-09,  avg # of iterations =  3.0

     total cpu time spent up to now is    11018.7 secs

     total energy              =   -2443.70228555 Ry
     estimated scf accuracy    <       0.00000781 Ry

     iteration # 27     ecut=    60.00 Ry     beta= 0.70
     Davidson diagonalization with overlap

---- Real-time Memory Report at c_bands before calling an iterative solver
           897 MiB given to the printing process from OS
             0 MiB allocation reported by mallinfo(arena+hblkhd)
         10710 MiB available memory on the node where the printing process lives
------------------
     ethr =  3.05E-09,  avg # of iterations =  5.6

     total cpu time spent up to now is    11307.3 secs

     total energy              =   -2443.70228712 Ry
     estimated scf accuracy    <       0.00000255 Ry

     iteration # 28     ecut=    60.00 Ry     beta= 0.70
     Davidson diagonalization with overlap

---- Real-time Memory Report at c_bands before calling an iterative solver
           897 MiB given to the printing process from OS
             0 MiB allocation reported by mallinfo(arena+hblkhd)
         10710 MiB available memory on the node where the printing process lives
------------------
     ethr =  9.96E-10,  avg # of iterations =  6.6

     total cpu time spent up to now is    11683.7 secs

     End of self-consistent calculation

          k = 0.0000 0.0000 0.0000 ( 25927 PWs)   bands (ev):

   -67.7078 -67.7031 -67.5930 -67.2162 -67.1276 -67.1209 -34.4839 -34.4639
   -34.4596 -34.4541 -34.4455 -34.4414 -34.3559 -34.3528 -34.3263 -33.9741
   -33.9685 -33.9657 -33.9012 -33.9002 -33.8857 -33.8680 -33.8602 -33.8415
   -23.1284 -23.1087 -15.2039 -15.1499 -14.2617 -14.2157 -13.7495 -13.7257
   -13.5098 -13.4006 -13.3670 -13.1760 -12.9638 -12.9465 -12.9340 -12.9277
   -12.8680 -12.7734 -12.6120 -12.5398 -12.4019 -12.3798 -12.3420 -12.2179
   -11.2238 -10.9804  -6.7037  -6.6774  -6.6247  -6.6171  -6.5880  -6.5841
    -4.3995  -4.3398  -2.5260  -2.4265  -1.9276  -1.4288  -1.2604  -1.2538
    -1.2068  -1.1147  -0.7579  -0.6851  -0.5705  -0.4761  -0.4698  -0.2838
    -0.0858  -0.0123   0.1291   0.3651   0.4783   0.4929   0.5668   0.7584
     0.7769   1.0216   1.1977   1.2256   1.2797   1.4045   1.4331   1.5566
     1.7404   1.7559   1.8753   1.9697   1.9921   2.1266   2.1278   2.2108
     2.3265   2.3691   2.5143   2.5479   2.6026   2.6289   2.7417   2.7809
     2.7951   2.8878   2.9057   2.9874   3.1159   3.1695   3.2214   3.2965
     3.3406   3.3730   3.4615   3.4664   3.5415   3.6478   3.7088   3.7125
     3.7643   3.8230   3.8266   3.9983   4.0109   4.1872   4.3572   4.4657

     occupation numbers 
     1.0000   1.0000   1.0000   1.0000   1.0000   1.0000   1.0000   1.0000
     1.0000   1.0000   1.0000   1.0000   1.0000   1.0000   1.0000   1.0000
     1.0000   1.0000   1.0000   1.0000   1.0000   1.0000   1.0000   1.0000
     1.0000   1.0000   1.0000   1.0000   1.0000   1.0000   1.0000   1.0000
     1.0000   1.0000   1.0000   1.0000   1.0000   1.0000   1.0000   1.0000
     1.0000   1.0000   1.0000   1.0000   1.0000   1.0000   1.0000   1.0000
     1.0000   1.0000   1.0000   1.0000   1.0000   1.0000   1.0000   1.0000
     1.0000   1.0000   1.0000   1.0000   1.0000   1.0000   1.0000   1.0000
     1.0000   1.0000   1.0000   1.0000   1.0000   1.0000   1.0000   1.0000
     1.0000   1.0000   1.0000   1.0000   1.0000   1.0000   1.0000   1.0000
     1.0000   1.0000   1.0000   1.0000   1.0000   1.0000   1.0000   1.0000
     1.0000   1.0000   1.0000   1.0000   1.0000   1.0000   1.0000   1.0000
     1.0000   1.0000   1.0000   1.0000   1.0000   1.0000   1.0000   1.0000
     1.0000   1.0000   1.0000   1.0000   1.0000   1.0000   1.0000   1.0000
     1.0000   1.0000   1.0000   1.0000   1.0000   1.0000   1.0000   1.0000
     1.0000   1.0000   1.0000   1.0000   1.0000   1.0000   1.0000   1.0000

          k = 0.0000 0.0000 0.1758 ( 25971 PWs)   bands (ev):

   -67.7078 -67.7031 -67.5930 -67.2162 -67.1276 -67.1209 -34.4839 -34.4639
   -34.4596 -34.4542 -34.4456 -34.4414 -34.3559 -34.3529 -34.3263 -33.9741
   -33.9685 -33.9657 -33.9012 -33.9002 -33.8857 -33.8681 -33.8602 -33.8415
   -23.1284 -23.1087 -15.1909 -15.1637 -14.2509 -14.2272 -13.7500 -13.7252
   -13.4974 -13.4214 -13.3591 -13.1720 -12.9704 -12.9468 -12.9309 -12.9287
   -12.8614 -12.7776 -12.6041 -12.5474 -12.4071 -12.3709 -12.3385 -12.2251
   -11.2235 -10.9811  -6.7038  -6.6774  -6.6247  -6.6171  -6.5878  -6.5841
    -4.3951  -4.3447  -2.5031  -2.4536  -1.8940  -1.4137  -1.2835  -1.2270
    -1.1987  -1.1400  -0.7332  -0.6985  -0.6048  -0.4802  -0.4537  -0.3744
    -0.0617   0.0200   0.0777   0.3056   0.4658   0.4728   0.5938   0.7791
     0.8228   1.1000   1.1275   1.2371   1.3136   1.3664   1.4783   1.6013
     1.7603   1.7790   1.9654   1.9824   2.0049   2.1294   2.1364   2.2086
     2.2881   2.3367   2.4956   2.5342   2.5655   2.6222   2.6842   2.7249
     2.7541   2.9586   2.9877   2.9933   3.0154   3.1938   3.2334   3.2863
     3.3061   3.3378   3.4470   3.5572   3.5951   3.6364   3.6898   3.7201
     3.7424   3.7756   3.8059   4.0142   4.0260   4.1939   4.3547   4.4681

     occupation numbers 
     1.0000   1.0000   1.0000   1.0000   1.0000   1.0000   1.0000   1.0000
     1.0000   1.0000   1.0000   1.0000   1.0000   1.0000   1.0000   1.0000
     1.0000   1.0000   1.0000   1.0000   1.0000   1.0000   1.0000   1.0000
     1.0000   1.0000   1.0000   1.0000   1.0000   1.0000   1.0000   1.0000
     1.0000   1.0000   1.0000   1.0000   1.0000   1.0000   1.0000   1.0000
     1.0000   1.0000   1.0000   1.0000   1.0000   1.0000   1.0000   1.0000
     1.0000   1.0000   1.0000   1.0000   1.0000   1.0000   1.0000   1.0000
     1.0000   1.0000   1.0000   1.0000   1.0000   1.0000   1.0000   1.0000
     1.0000   1.0000   1.0000   1.0000   1.0000   1.0000   1.0000   1.0000
     1.0000   1.0000   1.0000   1.0000   1.0000   1.0000   1.0000   1.0000
     1.0000   1.0000   1.0000   1.0000   1.0000   1.0000   1.0000   1.0000
     1.0000   1.0000   1.0000   1.0000   1.0000   1.0000   1.0000   1.0000
     1.0000   1.0000   1.0000   1.0000   1.0000   1.0000   1.0000   1.0000
     1.0000   1.0000   1.0000   1.0000   1.0000   1.0000   1.0000   1.0000
     1.0000   1.0000   1.0000   1.0000   1.0000   1.0000   1.0000   1.0000
     1.0000   1.0000   1.0000   1.0000   1.0000   1.0000   1.0000   1.0000

          k = 0.0000 0.1921 0.0000 ( 25933 PWs)   bands (ev):

   -67.7078 -67.7031 -67.5930 -67.2162 -67.1276 -67.1209 -34.4839 -34.4639
   -34.4596 -34.4542 -34.4456 -34.4414 -34.3559 -34.3529 -34.3263 -33.9741
   -33.9685 -33.9657 -33.9012 -33.9002 -33.8857 -33.8680 -33.8603 -33.8415
   -23.1284 -23.1087 -15.1991 -15.1450 -14.2948 -14.2455 -13.7496 -13.7258
   -13.4233 -13.3471 -13.2969 -13.2046 -13.0526 -13.0095 -12.9564 -12.9040
   -12.8718 -12.7735 -12.6027 -12.5363 -12.4016 -12.3787 -12.3373 -12.2144
   -11.2225 -10.9798  -6.6999  -6.6815  -6.6242  -6.6150  -6.5897  -6.5849
    -4.3610  -4.3006  -2.6700  -2.5626  -1.8778  -1.4752  -1.2011  -1.1958
    -1.0870  -1.0389  -0.8321  -0.7517  -0.5872  -0.4175  -0.3883  -0.2609
    -0.1775   0.0307   0.1087   0.3502   0.4316   0.4566   0.5743   0.7524
     0.7981   1.0283   1.0853   1.2101   1.2862   1.4396   1.4604   1.5934
     1.7868   1.8041   1.8580   1.9727   2.0321   2.1005   2.2293   2.2918
     2.3027   2.3764   2.4407   2.5487   2.5833   2.6729   2.7397   2.7798
     2.8290   2.8925   2.9433   3.0020   3.1393   3.1798   3.2728   3.2876
     3.3316   3.3530   3.3709   3.4735   3.5473   3.5682   3.6900   3.7079
     3.7750   3.8029   3.8216   3.9790   4.0210   4.1588   4.1738   4.4624

     occupation numbers 
     1.0000   1.0000   1.0000   1.0000   1.0000   1.0000   1.0000   1.0000
     1.0000   1.0000   1.0000   1.0000   1.0000   1.0000   1.0000   1.0000
     1.0000   1.0000   1.0000   1.0000   1.0000   1.0000   1.0000   1.0000
     1.0000   1.0000   1.0000   1.0000   1.0000   1.0000   1.0000   1.0000
     1.0000   1.0000   1.0000   1.0000   1.0000   1.0000   1.0000   1.0000
     1.0000   1.0000   1.0000   1.0000   1.0000   1.0000   1.0000   1.0000
     1.0000   1.0000   1.0000   1.0000   1.0000   1.0000   1.0000   1.0000
     1.0000   1.0000   1.0000   1.0000   1.0000   1.0000   1.0000   1.0000
     1.0000   1.0000   1.0000   1.0000   1.0000   1.0000   1.0000   1.0000
     1.0000   1.0000   1.0000   1.0000   1.0000   1.0000   1.0000   1.0000
     1.0000   1.0000   1.0000   1.0000   1.0000   1.0000   1.0000   1.0000
     1.0000   1.0000   1.0000   1.0000   1.0000   1.0000   1.0000   1.0000
     1.0000   1.0000   1.0000   1.0000   1.0000   1.0000   1.0000   1.0000
     1.0000   1.0000   1.0000   1.0000   1.0000   1.0000   1.0000   1.0000
     1.0000   1.0000   1.0000   1.0000   1.0000   1.0000   1.0000   1.0000
     1.0000   1.0000   1.0000   1.0000   1.0000   1.0000   1.0000   1.0000

          k = 0.0000 0.1921 0.1758 ( 25924 PWs)   bands (ev):

   -67.7078 -67.7031 -67.5930 -67.2162 -67.1276 -67.1209 -34.4839 -34.4639
   -34.4596 -34.4542 -34.4455 -34.4414 -34.3559 -34.3528 -34.3263 -33.9741
   -33.9684 -33.9657 -33.9011 -33.9002 -33.8857 -33.8680 -33.8602 -33.8415
   -23.1284 -23.1087 -15.1860 -15.1589 -14.2828 -14.2582 -13.7501 -13.7252
   -13.4159 -13.3395 -13.3151 -13.1958 -13.0682 -12.9939 -12.9574 -12.9068
   -12.8685 -12.7778 -12.5954 -12.5437 -12.4066 -12.3705 -12.3328 -12.2215
   -11.2222 -10.9805  -6.6999  -6.6816  -6.6242  -6.6148  -6.5896  -6.5849
    -4.3540  -4.3081  -2.6457  -2.5895  -1.8486  -1.4626  -1.1993  -1.1940
    -1.0865  -1.0454  -0.8153  -0.7727  -0.6038  -0.4439  -0.3787  -0.3310
    -0.1332   0.0314   0.0472   0.3257   0.4220   0.4345   0.6140   0.7503
     0.8543   0.9917   1.0719   1.2638   1.3519   1.4319   1.5545   1.6160
     1.7531   1.8278   1.9024   1.9495   2.0085   2.1497   2.2184   2.2716
     2.3166   2.3626   2.4169   2.5104   2.5863   2.6447   2.7005   2.7471
     2.8207   2.9221   2.9468   3.0563   3.0875   3.1353   3.2460   3.2958
     3.3060   3.3468   3.4162   3.4984   3.5401   3.6204   3.6674   3.7047
     3.7424   3.7943   3.8144   3.9660   4.0315   4.1766   4.1920   4.4653

     occupation numbers 
     1.0000   1.0000   1.0000   1.0000   1.0000   1.0000   1.0000   1.0000
     1.0000   1.0000   1.0000   1.0000   1.0000   1.0000   1.0000   1.0000
     1.0000   1.0000   1.0000   1.0000   1.0000   1.0000   1.0000   1.0000
     1.0000   1.0000   1.0000   1.0000   1.0000   1.0000   1.0000   1.0000
     1.0000   1.0000   1.0000   1.0000   1.0000   1.0000   1.0000   1.0000
     1.0000   1.0000   1.0000   1.0000   1.0000   1.0000   1.0000   1.0000
     1.0000   1.0000   1.0000   1.0000   1.0000   1.0000   1.0000   1.0000
     1.0000   1.0000   1.0000   1.0000   1.0000   1.0000   1.0000   1.0000
     1.0000   1.0000   1.0000   1.0000   1.0000   1.0000   1.0000   1.0000
     1.0000   1.0000   1.0000   1.0000   1.0000   1.0000   1.0000   1.0000
     1.0000   1.0000   1.0000   1.0000   1.0000   1.0000   1.0000   1.0000
     1.0000   1.0000   1.0000   1.0000   1.0000   1.0000   1.0000   1.0000
     1.0000   1.0000   1.0000   1.0000   1.0000   1.0000   1.0000   1.0000
     1.0000   1.0000   1.0000   1.0000   1.0000   1.0000   1.0000   1.0000
     1.0000   1.0000   1.0000   1.0000   1.0000   1.0000   1.0000   1.0000
     1.0000   1.0000   1.0000   1.0000   1.0000   1.0000   1.0000   1.0000

          k = 0.1667 0.0000 0.0301 ( 25941 PWs)   bands (ev):

   -67.7078 -67.7032 -67.5930 -67.2162 -67.1276 -67.1210 -34.4832 -34.4661
   -34.4582 -34.4539 -34.4456 -34.4415 -34.3559 -34.3529 -34.3263 -33.9740
   -33.9687 -33.9657 -33.9036 -33.8969 -33.8864 -33.8675 -33.8606 -33.8420
   -23.1283 -23.1086 -15.1456 -15.0927 -14.2810 -14.2376 -13.8616 -13.8305
   -13.4418 -13.3402 -13.3083 -13.1615 -12.9760 -12.9694 -12.9416 -12.9118
   -12.8587 -12.7818 -12.6284 -12.5546 -12.4678 -12.4169 -12.3243 -12.2048
   -11.2208 -10.9852  -6.7034  -6.6816  -6.6232  -6.6154  -6.5882  -6.5806
    -4.2425  -4.1797  -2.4964  -2.3962  -1.9272  -1.5461  -1.5002  -1.3939
    -0.9985  -0.9147  -0.7689  -0.7395  -0.5636  -0.4573  -0.4245  -0.2794
    -0.0907   0.0105   0.1121   0.3478   0.4098   0.5202   0.5416   0.6516
     0.9406   1.0603   1.1556   1.2272   1.2382   1.3485   1.4409   1.5291
     1.6258   1.8053   1.8298   1.9117   1.9696   2.1602   2.1905   2.2613
     2.3181   2.3945   2.5182   2.5542   2.5838   2.6076   2.7378   2.7573
     2.8261   2.8628   2.9480   3.0249   3.0818   3.1201   3.2293   3.2321
     3.3112   3.3794   3.4365   3.5208   3.5513   3.6305   3.6675   3.7201
     3.7263   3.7846   3.8235   3.9262   3.9889   4.1912   4.3458   4.3734

     occupation numbers 
     1.0000   1.0000   1.0000   1.0000   1.0000   1.0000   1.0000   1.0000
     1.0000   1.0000   1.0000   1.0000   1.0000   1.0000   1.0000   1.0000
     1.0000   1.0000   1.0000   1.0000   1.0000   1.0000   1.0000   1.0000
     1.0000   1.0000   1.0000   1.0000   1.0000   1.0000   1.0000   1.0000
     1.0000   1.0000   1.0000   1.0000   1.0000   1.0000   1.0000   1.0000
     1.0000   1.0000   1.0000   1.0000   1.0000   1.0000   1.0000   1.0000
     1.0000   1.0000   1.0000   1.0000   1.0000   1.0000   1.0000   1.0000
     1.0000   1.0000   1.0000   1.0000   1.0000   1.0000   1.0000   1.0000
     1.0000   1.0000   1.0000   1.0000   1.0000   1.0000   1.0000   1.0000
     1.0000   1.0000   1.0000   1.0000   1.0000   1.0000   1.0000   1.0000
     1.0000   1.0000   1.0000   1.0000   1.0000   1.0000   1.0000   1.0000
     1.0000   1.0000   1.0000   1.0000   1.0000   1.0000   1.0000   1.0000
     1.0000   1.0000   1.0000   1.0000   1.0000   1.0000   1.0000   1.0000
     1.0000   1.0000   1.0000   1.0000   1.0000   1.0000   1.0000   1.0000
     1.0000   1.0000   1.0000   1.0000   1.0000   1.0000   1.0000   1.0000
     1.0000   1.0000   1.0000   1.0000   1.0000   1.0000   1.0000   1.0000

          k = 0.1667 0.0000 0.2059 ( 25961 PWs)   bands (ev):

   -67.7078 -67.7032 -67.5930 -67.2162 -67.1276 -67.1210 -34.4832 -34.4661
   -34.4582 -34.4539 -34.4456 -34.4415 -34.3559 -34.3529 -34.3263 -33.9740
   -33.9687 -33.9657 -33.9036 -33.8969 -33.8864 -33.8675 -33.8606 -33.8420
   -23.1283 -23.1086 -15.1293 -15.1100 -14.2717 -14.2475 -13.8582 -13.8341
   -13.4299 -13.3563 -13.3048 -13.1570 -12.9739 -12.9710 -12.9503 -12.9079
   -12.8531 -12.7855 -12.6219 -12.5623 -12.4613 -12.4232 -12.3138 -12.2139
   -11.2203 -10.9860  -6.7035  -6.6816  -6.6232  -6.6154  -6.5881  -6.5806
    -4.2434  -4.1790  -2.4761  -2.4212  -1.8909  -1.5872  -1.4649  -1.3806
    -0.9969  -0.9179  -0.7770  -0.7327  -0.5687  -0.4515  -0.4267  -0.3834
    -0.0506   0.0519   0.0572   0.2777   0.3928   0.5014   0.5344   0.7103
     1.0047   1.0721   1.1296   1.2233   1.2580   1.3648   1.4764   1.5361
     1.6816   1.7852   1.8581   1.9160   2.0607   2.1668   2.2076   2.2590
     2.2984   2.3879   2.4553   2.4892   2.5599   2.6139   2.7017   2.7184
     2.7974   2.8949   2.9878   3.0462   3.0759   3.1193   3.1524   3.2274
     3.3280   3.3590   3.4315   3.5769   3.5912   3.6327   3.6657   3.6973
     3.7354   3.7445   3.7821   3.9347   4.0261   4.1833   4.3455   4.3926

     occupation numbers 
     1.0000   1.0000   1.0000   1.0000   1.0000   1.0000   1.0000   1.0000
     1.0000   1.0000   1.0000   1.0000   1.0000   1.0000   1.0000   1.0000
     1.0000   1.0000   1.0000   1.0000   1.0000   1.0000   1.0000   1.0000
     1.0000   1.0000   1.0000   1.0000   1.0000   1.0000   1.0000   1.0000
     1.0000   1.0000   1.0000   1.0000   1.0000   1.0000   1.0000   1.0000
     1.0000   1.0000   1.0000   1.0000   1.0000   1.0000   1.0000   1.0000
     1.0000   1.0000   1.0000   1.0000   1.0000   1.0000   1.0000   1.0000
     1.0000   1.0000   1.0000   1.0000   1.0000   1.0000   1.0000   1.0000
     1.0000   1.0000   1.0000   1.0000   1.0000   1.0000   1.0000   1.0000
     1.0000   1.0000   1.0000   1.0000   1.0000   1.0000   1.0000   1.0000
     1.0000   1.0000   1.0000   1.0000   1.0000   1.0000   1.0000   1.0000
     1.0000   1.0000   1.0000   1.0000   1.0000   1.0000   1.0000   1.0000
     1.0000   1.0000   1.0000   1.0000   1.0000   1.0000   1.0000   1.0000
     1.0000   1.0000   1.0000   1.0000   1.0000   1.0000   1.0000   1.0000
     1.0000   1.0000   1.0000   1.0000   1.0000   1.0000   1.0000   1.0000
     1.0000   1.0000   1.0000   1.0000   1.0000   1.0000   1.0000   1.0000

          k = 0.1667 0.0000-0.1457 ( 25956 PWs)   bands (ev):

   -67.7078 -67.7031 -67.5930 -67.2162 -67.1276 -67.1210 -34.4831 -34.4661
   -34.4582 -34.4539 -34.4456 -34.4415 -34.3559 -34.3529 -34.3263 -33.9740
   -33.9687 -33.9657 -33.9036 -33.8969 -33.8864 -33.8675 -33.8606 -33.8420
   -23.1283 -23.1086 -15.1363 -15.1026 -14.2725 -14.2467 -13.8569 -13.8353
   -13.4348 -13.3411 -13.3162 -13.1579 -12.9734 -12.9641 -12.9561 -12.9051
   -12.8563 -12.7868 -12.6173 -12.5660 -12.4487 -12.4365 -12.3136 -12.2126
   -11.2201 -10.9860  -6.7036  -6.6817  -6.6232  -6.6154  -6.5880  -6.5806
    -4.2265  -4.1963  -2.4726  -2.4230  -1.9054  -1.5808  -1.4681  -1.3841
    -0.9816  -0.9377  -0.7511  -0.7226  -0.5872  -0.4578  -0.4346  -0.3567
    -0.0883   0.0472   0.0781   0.2886   0.4276   0.5167   0.5646   0.6948
     0.9513   1.0617   1.1086   1.2174   1.2914   1.3905   1.4773   1.4964
     1.6848   1.7748   1.8668   1.8985   2.0047   2.1407   2.2130   2.2321
     2.3082   2.3954   2.4732   2.5328   2.5619   2.6307   2.6829   2.7720
     2.8042   2.8850   2.9905   3.0468   3.0928   3.1199   3.1641   3.2887
     3.3346   3.3583   3.4539   3.5089   3.5781   3.5825   3.6303   3.7033
     3.7394   3.7505   3.8015   3.9190   4.0511   4.1806   4.3506   4.3845

     occupation numbers 
     1.0000   1.0000   1.0000   1.0000   1.0000   1.0000   1.0000   1.0000
     1.0000   1.0000   1.0000   1.0000   1.0000   1.0000   1.0000   1.0000
     1.0000   1.0000   1.0000   1.0000   1.0000   1.0000   1.0000   1.0000
     1.0000   1.0000   1.0000   1.0000   1.0000   1.0000   1.0000   1.0000
     1.0000   1.0000   1.0000   1.0000   1.0000   1.0000   1.0000   1.0000
     1.0000   1.0000   1.0000   1.0000   1.0000   1.0000   1.0000   1.0000
     1.0000   1.0000   1.0000   1.0000   1.0000   1.0000   1.0000   1.0000
     1.0000   1.0000   1.0000   1.0000   1.0000   1.0000   1.0000   1.0000
     1.0000   1.0000   1.0000   1.0000   1.0000   1.0000   1.0000   1.0000
     1.0000   1.0000   1.0000   1.0000   1.0000   1.0000   1.0000   1.0000
     1.0000   1.0000   1.0000   1.0000   1.0000   1.0000   1.0000   1.0000
     1.0000   1.0000   1.0000   1.0000   1.0000   1.0000   1.0000   1.0000
     1.0000   1.0000   1.0000   1.0000   1.0000   1.0000   1.0000   1.0000
     1.0000   1.0000   1.0000   1.0000   1.0000   1.0000   1.0000   1.0000
     1.0000   1.0000   1.0000   1.0000   1.0000   1.0000   1.0000   1.0000
     1.0000   1.0000   1.0000   1.0000   1.0000   1.0000   1.0000   1.0000

          k = 0.1667 0.1921 0.0301 ( 25937 PWs)   bands (ev):

   -67.7078 -67.7031 -67.5930 -67.2162 -67.1276 -67.1210 -34.4831 -34.4661
   -34.4582 -34.4539 -34.4456 -34.4415 -34.3558 -34.3529 -34.3263 -33.9740
   -33.9686 -33.9657 -33.9036 -33.8969 -33.8864 -33.8675 -33.8606 -33.8420
   -23.1282 -23.1086 -15.1410 -15.0880 -14.3099 -14.2633 -13.8496 -13.8217
   -13.3859 -13.3163 -13.2442 -13.1705 -13.0367 -13.0095 -12.9687 -12.9046
   -12.8749 -12.7816 -12.6228 -12.5438 -12.4625 -12.4192 -12.3218 -12.2030
   -11.2198 -10.9848  -6.7005  -6.6851  -6.6231  -6.6137  -6.5893  -6.5811
    -4.2070  -4.1436  -2.6528  -2.5465  -1.8552  -1.4482  -1.4105  -1.3755
    -0.9897  -0.9188  -0.8575  -0.7046  -0.5657  -0.3965  -0.3713  -0.2395
    -0.1274   0.0053   0.0835   0.3246   0.3805   0.5004   0.5419   0.6282
     0.9545   0.9889   1.1450   1.2086   1.2597   1.3506   1.4415   1.5457
     1.6565   1.7874   1.7985   1.9500   2.0355   2.1565   2.2195   2.2683
     2.3512   2.3978   2.4513   2.5929   2.5969   2.7052   2.7279   2.7932
     2.8453   2.8928   2.9842   3.0290   3.0841   3.1471   3.2079   3.2650
     3.3078   3.3377   3.3999   3.4920   3.5412   3.5638   3.6336   3.6857
     3.7142   3.7510   3.8429   3.9432   3.9681   4.1477   4.2309   4.4080

     occupation numbers 
     1.0000   1.0000   1.0000   1.0000   1.0000   1.0000   1.0000   1.0000
     1.0000   1.0000   1.0000   1.0000   1.0000   1.0000   1.0000   1.0000
     1.0000   1.0000   1.0000   1.0000   1.0000   1.0000   1.0000   1.0000
     1.0000   1.0000   1.0000   1.0000   1.0000   1.0000   1.0000   1.0000
     1.0000   1.0000   1.0000   1.0000   1.0000   1.0000   1.0000   1.0000
     1.0000   1.0000   1.0000   1.0000   1.0000   1.0000   1.0000   1.0000
     1.0000   1.0000   1.0000   1.0000   1.0000   1.0000   1.0000   1.0000
     1.0000   1.0000   1.0000   1.0000   1.0000   1.0000   1.0000   1.0000
     1.0000   1.0000   1.0000   1.0000   1.0000   1.0000   1.0000   1.0000
     1.0000   1.0000   1.0000   1.0000   1.0000   1.0000   1.0000   1.0000
     1.0000   1.0000   1.0000   1.0000   1.0000   1.0000   1.0000   1.0000
     1.0000   1.0000   1.0000   1.0000   1.0000   1.0000   1.0000   1.0000
     1.0000   1.0000   1.0000   1.0000   1.0000   1.0000   1.0000   1.0000
     1.0000   1.0000   1.0000   1.0000   1.0000   1.0000   1.0000   1.0000
     1.0000   1.0000   1.0000   1.0000   1.0000   1.0000   1.0000   1.0000
     1.0000   1.0000   1.0000   1.0000   1.0000   1.0000   1.0000   1.0000

          k = 0.1667 0.1921 0.2059 ( 25944 PWs)   bands (ev):

   -67.7078 -67.7031 -67.5930 -67.2162 -67.1276 -67.1210 -34.4831 -34.4661
   -34.4582 -34.4539 -34.4456 -34.4415 -34.3558 -34.3529 -34.3263 -33.9740
   -33.9686 -33.9657 -33.9036 -33.8969 -33.8864 -33.8675 -33.8606 -33.8420
   -23.1282 -23.1086 -15.1246 -15.1053 -14.2980 -14.2759 -13.8480 -13.8234
   -13.3789 -13.3085 -13.2640 -13.1590 -13.0541 -12.9936 -12.9694 -12.9050
   -12.8728 -12.7857 -12.6175 -12.5507 -12.4591 -12.4223 -12.3115 -12.2118
   -11.2193 -10.9856  -6.7005  -6.6852  -6.6230  -6.6136  -6.5892  -6.5811
    -4.2049  -4.1459  -2.6275  -2.5749  -1.8269  -1.4378  -1.4313  -1.3531
    -0.9943  -0.9150  -0.8587  -0.7005  -0.5713  -0.4573  -0.3492  -0.2935
    -0.0886  -0.0054   0.0617   0.2821   0.3622   0.4844   0.5341   0.6725
     0.9575   0.9962   1.1248   1.2799   1.2847   1.3792   1.4831   1.6014
     1.6858   1.7385   1.8049   1.9337   2.0719   2.1623   2.2467   2.2821
     2.3520   2.3968   2.4090   2.5154   2.5943   2.6758   2.7149   2.7553
     2.8416   2.9073   3.0032   3.0300   3.0861   3.1182   3.1835   3.2442
     3.2908   3.3530   3.4420   3.4848   3.5339   3.5913   3.6234   3.6792
     3.6994   3.7725   3.8073   3.9517   3.9893   4.1535   4.2392   4.4196

     occupation numbers 
     1.0000   1.0000   1.0000   1.0000   1.0000   1.0000   1.0000   1.0000
     1.0000   1.0000   1.0000   1.0000   1.0000   1.0000   1.0000   1.0000
     1.0000   1.0000   1.0000   1.0000   1.0000   1.0000   1.0000   1.0000
     1.0000   1.0000   1.0000   1.0000   1.0000   1.0000   1.0000   1.0000
     1.0000   1.0000   1.0000   1.0000   1.0000   1.0000   1.0000   1.0000
     1.0000   1.0000   1.0000   1.0000   1.0000   1.0000   1.0000   1.0000
     1.0000   1.0000   1.0000   1.0000   1.0000   1.0000   1.0000   1.0000
     1.0000   1.0000   1.0000   1.0000   1.0000   1.0000   1.0000   1.0000
     1.0000   1.0000   1.0000   1.0000   1.0000   1.0000   1.0000   1.0000
     1.0000   1.0000   1.0000   1.0000   1.0000   1.0000   1.0000   1.0000
     1.0000   1.0000   1.0000   1.0000   1.0000   1.0000   1.0000   1.0000
     1.0000   1.0000   1.0000   1.0000   1.0000   1.0000   1.0000   1.0000
     1.0000   1.0000   1.0000   1.0000   1.0000   1.0000   1.0000   1.0000
     1.0000   1.0000   1.0000   1.0000   1.0000   1.0000   1.0000   1.0000
     1.0000   1.0000   1.0000   1.0000   1.0000   1.0000   1.0000   1.0000
     1.0000   1.0000   1.0000   1.0000   1.0000   1.0000   1.0000   1.0000

          k = 0.1667 0.1921-0.1457 ( 25923 PWs)   bands (ev):

   -67.7078 -67.7031 -67.5930 -67.2162 -67.1276 -67.1210 -34.4831 -34.4661
   -34.4582 -34.4539 -34.4456 -34.4415 -34.3558 -34.3529 -34.3263 -33.9740
   -33.9686 -33.9657 -33.9036 -33.8969 -33.8863 -33.8675 -33.8606 -33.8420
   -23.1282 -23.1086 -15.1316 -15.0980 -14.3004 -14.2734 -13.8455 -13.8261
   -13.3819 -13.3082 -13.2588 -13.1638 -13.0500 -12.9980 -12.9690 -12.9057
   -12.8716 -12.7862 -12.6123 -12.5542 -12.4481 -12.4346 -12.3112 -12.2107
   -11.2191 -10.9856  -6.7006  -6.6852  -6.6230  -6.6136  -6.5892  -6.5811
    -4.1893  -4.1619  -2.6282  -2.5736  -1.8374  -1.4458  -1.4286  -1.3511
    -0.9701  -0.9415  -0.8262  -0.7114  -0.5965  -0.4187  -0.3606  -0.2867
    -0.1199   0.0074   0.0463   0.3120   0.3893   0.4819   0.5775   0.6625
     0.9428   0.9599   1.1152   1.2443   1.2971   1.3968   1.4782   1.5744
     1.6852   1.7519   1.7919   1.9613   2.0471   2.1198   2.2304   2.2802
     2.3238   2.3997   2.4364   2.5407   2.6428   2.6616   2.6863   2.7804
     2.8683   2.9282   2.9878   3.0552   3.0818   3.1121   3.2029   3.2823
     3.3132   3.3463   3.4251   3.4843   3.5327   3.5818   3.6163   3.6548
     3.7141   3.7440   3.7826   3.9429   4.0183   4.1453   4.2386   4.4129

     occupation numbers 
     1.0000   1.0000   1.0000   1.0000   1.0000   1.0000   1.0000   1.0000
     1.0000   1.0000   1.0000   1.0000   1.0000   1.0000   1.0000   1.0000
     1.0000   1.0000   1.0000   1.0000   1.0000   1.0000   1.0000   1.0000
     1.0000   1.0000   1.0000   1.0000   1.0000   1.0000   1.0000   1.0000
     1.0000   1.0000   1.0000   1.0000   1.0000   1.0000   1.0000   1.0000
     1.0000   1.0000   1.0000   1.0000   1.0000   1.0000   1.0000   1.0000
     1.0000   1.0000   1.0000   1.0000   1.0000   1.0000   1.0000   1.0000
     1.0000   1.0000   1.0000   1.0000   1.0000   1.0000   1.0000   1.0000
     1.0000   1.0000   1.0000   1.0000   1.0000   1.0000   1.0000   1.0000
     1.0000   1.0000   1.0000   1.0000   1.0000   1.0000   1.0000   1.0000
     1.0000   1.0000   1.0000   1.0000   1.0000   1.0000   1.0000   1.0000
     1.0000   1.0000   1.0000   1.0000   1.0000   1.0000   1.0000   1.0000
     1.0000   1.0000   1.0000   1.0000   1.0000   1.0000   1.0000   1.0000
     1.0000   1.0000   1.0000   1.0000   1.0000   1.0000   1.0000   1.0000
     1.0000   1.0000   1.0000   1.0000   1.0000   1.0000   1.0000   1.0000
     1.0000   1.0000   1.0000   1.0000   1.0000   1.0000   1.0000   1.0000

          k = 0.3333 0.0000 0.0601 ( 25907 PWs)   bands (ev):

   -67.7077 -67.7032 -67.5930 -67.2162 -67.1275 -67.1211 -34.4815 -34.4695
   -34.4566 -34.4532 -34.4457 -34.4417 -34.3557 -34.3530 -34.3264 -33.9736
   -33.9691 -33.9656 -33.9048 -33.8935 -33.8880 -33.8660 -33.8617 -33.8429
   -23.1279 -23.1083 -14.9853 -14.9360 -14.4048 -14.3663 -13.9797 -13.9435
   -13.3372 -13.2393 -13.1759 -13.1396 -13.0361 -13.0016 -12.9540 -12.9136
   -12.8698 -12.7836 -12.6807 -12.6122 -12.5446 -12.4676 -12.3070 -12.1957
   -11.2156 -10.9952  -6.7030  -6.6906  -6.6201  -6.6121  -6.5887  -6.5734
    -3.8326  -3.7595  -2.6393  -2.5262  -1.9208  -1.7654  -1.4972  -1.3375
    -0.9668  -0.8304  -0.8260  -0.7746  -0.4849  -0.4142  -0.3254  -0.2456
    -0.1878   0.0259   0.1460   0.3214   0.3933   0.5116   0.5494   0.5971
     0.8934   1.0189   1.1097   1.1710   1.3028   1.3450   1.4709   1.4847
     1.5468   1.5626   1.6919   1.8680   1.9599   2.1982   2.2245   2.2800
     2.3347   2.4402   2.5591   2.5867   2.6402   2.6533   2.7238   2.8019
     2.8474   2.8720   2.9806   3.0447   3.0504   3.0964   3.1160   3.1489
     3.3332   3.3608   3.4251   3.4749   3.4959   3.5598   3.6165   3.6381
     3.6628   3.7303   3.8632   3.8910   3.9376   4.1998   4.2810   4.3157

     occupation numbers 
     1.0000   1.0000   1.0000   1.0000   1.0000   1.0000   1.0000   1.0000
     1.0000   1.0000   1.0000   1.0000   1.0000   1.0000   1.0000   1.0000
     1.0000   1.0000   1.0000   1.0000   1.0000   1.0000   1.0000   1.0000
     1.0000   1.0000   1.0000   1.0000   1.0000   1.0000   1.0000   1.0000
     1.0000   1.0000   1.0000   1.0000   1.0000   1.0000   1.0000   1.0000
     1.0000   1.0000   1.0000   1.0000   1.0000   1.0000   1.0000   1.0000
     1.0000   1.0000   1.0000   1.0000   1.0000   1.0000   1.0000   1.0000
     1.0000   1.0000   1.0000   1.0000   1.0000   1.0000   1.0000   1.0000
     1.0000   1.0000   1.0000   1.0000   1.0000   1.0000   1.0000   1.0000
     1.0000   1.0000   1.0000   1.0000   1.0000   1.0000   1.0000   1.0000
     1.0000   1.0000   1.0000   1.0000   1.0000   1.0000   1.0000   1.0000
     1.0000   1.0000   1.0000   1.0000   1.0000   1.0000   1.0000   1.0000
     1.0000   1.0000   1.0000   1.0000   1.0000   1.0000   1.0000   1.0000
     1.0000   1.0000   1.0000   1.0000   1.0000   1.0000   1.0000   1.0000
     1.0000   1.0000   1.0000   1.0000   1.0000   1.0000   1.0000   1.0000
     1.0000   1.0000   1.0000   1.0000   1.0000   1.0000   1.0000   1.0000

          k = 0.3333 0.0000 0.2360 ( 25948 PWs)   bands (ev):

   -67.7077 -67.7033 -67.5930 -67.2162 -67.1275 -67.1211 -34.4815 -34.4695
   -34.4566 -34.4533 -34.4457 -34.4417 -34.3557 -34.3530 -34.3264 -33.9736
   -33.9692 -33.9657 -33.9049 -33.8935 -33.8880 -33.8660 -33.8617 -33.8429
   -23.1279 -23.1083 -14.9672 -14.9550 -14.4027 -14.3684 -13.9735 -13.9503
   -13.3294 -13.2415 -13.1860 -13.1359 -13.0293 -12.9966 -12.9711 -12.9072
   -12.8683 -12.7860 -12.6740 -12.6222 -12.5283 -12.4800 -12.2962 -12.2054
   -11.2147 -10.9962  -6.7032  -6.6906  -6.6200  -6.6120  -6.5886  -6.5734
    -3.8337  -3.7584  -2.6126  -2.5565  -1.8916  -1.8033  -1.4669  -1.3276
    -0.9690  -0.8394  -0.8193  -0.7609  -0.4570  -0.4173  -0.3642  -0.3243
    -0.1348  -0.0218   0.1555   0.2816   0.4000   0.4900   0.5328   0.6549
     0.9403   1.0341   1.0879   1.1803   1.2193   1.3950   1.4826   1.5273
     1.5748   1.6095   1.6361   1.9212   2.0040   2.1428   2.2445   2.2854
     2.3151   2.3789   2.5376   2.6082   2.6456   2.6610   2.7072   2.7690
     2.8060   2.9168   2.9336   3.0251   3.0408   3.0856   3.1686   3.1975
     3.3418   3.3839   3.4233   3.4667   3.4911   3.5554   3.5666   3.6352
     3.6892   3.7375   3.7797   3.8812   4.0189   4.1791   4.3034   4.3279

     occupation numbers 
     1.0000   1.0000   1.0000   1.0000   1.0000   1.0000   1.0000   1.0000
     1.0000   1.0000   1.0000   1.0000   1.0000   1.0000   1.0000   1.0000
     1.0000   1.0000   1.0000   1.0000   1.0000   1.0000   1.0000   1.0000
     1.0000   1.0000   1.0000   1.0000   1.0000   1.0000   1.0000   1.0000
     1.0000   1.0000   1.0000   1.0000   1.0000   1.0000   1.0000   1.0000
     1.0000   1.0000   1.0000   1.0000   1.0000   1.0000   1.0000   1.0000
     1.0000   1.0000   1.0000   1.0000   1.0000   1.0000   1.0000   1.0000
     1.0000   1.0000   1.0000   1.0000   1.0000   1.0000   1.0000   1.0000
     1.0000   1.0000   1.0000   1.0000   1.0000   1.0000   1.0000   1.0000
     1.0000   1.0000   1.0000   1.0000   1.0000   1.0000   1.0000   1.0000
     1.0000   1.0000   1.0000   1.0000   1.0000   1.0000   1.0000   1.0000
     1.0000   1.0000   1.0000   1.0000   1.0000   1.0000   1.0000   1.0000
     1.0000   1.0000   1.0000   1.0000   1.0000   1.0000   1.0000   1.0000
     1.0000   1.0000   1.0000   1.0000   1.0000   1.0000   1.0000   1.0000
     1.0000   1.0000   1.0000   1.0000   1.0000   1.0000   1.0000   1.0000
     1.0000   1.0000   1.0000   1.0000   1.0000   1.0000   1.0000   1.0000

          k = 0.3333 0.0000-0.1157 ( 25913 PWs)   bands (ev):

   -67.7077 -67.7032 -67.5930 -67.2162 -67.1275 -67.1211 -34.4814 -34.4695
   -34.4566 -34.4532 -34.4457 -34.4417 -34.3557 -34.3530 -34.3264 -33.9736
   -33.9691 -33.9656 -33.9048 -33.8935 -33.8880 -33.8660 -33.8617 -33.8429
   -23.1279 -23.1083 -14.9798 -14.9419 -14.3968 -14.3747 -13.9746 -13.9490
   -13.3358 -13.2245 -13.1976 -13.1377 -13.0261 -12.9982 -12.9712 -12.9035
   -12.8690 -12.7895 -12.6683 -12.6279 -12.5239 -12.4835 -12.2974 -12.2038
   -11.2146 -10.9961  -6.7032  -6.6907  -6.6200  -6.6120  -6.5886  -6.5734
    -3.7994  -3.7937  -2.6277  -2.5401  -1.9057  -1.7830  -1.4906  -1.3313
    -0.9547  -0.8300  -0.8052  -0.7697  -0.4935  -0.3999  -0.3613  -0.2865
    -0.1941  -0.0018   0.1816   0.2784   0.4221   0.4943   0.5787   0.6109
     0.9373   1.0009   1.1002   1.2003   1.2450   1.3577   1.4840   1.5085
     1.5356   1.5697   1.7037   1.8791   1.9681   2.1533   2.2194   2.2577
     2.3201   2.4498   2.5746   2.6005   2.6107   2.6823   2.7055   2.7953
     2.8316   2.8769   2.9570   3.0084   3.0514   3.1352   3.1884   3.2389
     3.3376   3.3560   3.4279   3.4653   3.4985   3.5255   3.5398   3.6141
     3.6755   3.7221   3.8224   3.8594   4.0163   4.1896   4.2930   4.3302

     occupation numbers 
     1.0000   1.0000   1.0000   1.0000   1.0000   1.0000   1.0000   1.0000
     1.0000   1.0000   1.0000   1.0000   1.0000   1.0000   1.0000   1.0000
     1.0000   1.0000   1.0000   1.0000   1.0000   1.0000   1.0000   1.0000
     1.0000   1.0000   1.0000   1.0000   1.0000   1.0000   1.0000   1.0000
     1.0000   1.0000   1.0000   1.0000   1.0000   1.0000   1.0000   1.0000
     1.0000   1.0000   1.0000   1.0000   1.0000   1.0000   1.0000   1.0000
     1.0000   1.0000   1.0000   1.0000   1.0000   1.0000   1.0000   1.0000
     1.0000   1.0000   1.0000   1.0000   1.0000   1.0000   1.0000   1.0000
     1.0000   1.0000   1.0000   1.0000   1.0000   1.0000   1.0000   1.0000
     1.0000   1.0000   1.0000   1.0000   1.0000   1.0000   1.0000   1.0000
     1.0000   1.0000   1.0000   1.0000   1.0000   1.0000   1.0000   1.0000
     1.0000   1.0000   1.0000   1.0000   1.0000   1.0000   1.0000   1.0000
     1.0000   1.0000   1.0000   1.0000   1.0000   1.0000   1.0000   1.0000
     1.0000   1.0000   1.0000   1.0000   1.0000   1.0000   1.0000   1.0000
     1.0000   1.0000   1.0000   1.0000   1.0000   1.0000   1.0000   1.0000
     1.0000   1.0000   1.0000   1.0000   1.0000   1.0000   1.0000   1.0000

          k = 0.3333 0.1921 0.0601 ( 25923 PWs)   bands (ev):

   -67.7077 -67.7032 -67.5930 -67.2162 -67.1275 -67.1211 -34.4815 -34.4695
   -34.4566 -34.4532 -34.4457 -34.4417 -34.3557 -34.3530 -34.3264 -33.9736
   -33.9691 -33.9656 -33.9049 -33.8935 -33.8880 -33.8660 -33.8618 -33.8429
   -23.1279 -23.1083 -14.9817 -14.9323 -14.4160 -14.3759 -13.9763 -13.9426
   -13.3072 -13.2469 -13.1550 -13.1059 -13.0525 -13.0154 -12.9988 -12.9111
   -12.8750 -12.7917 -12.6736 -12.5963 -12.5440 -12.4748 -12.3058 -12.1954
   -11.2151 -10.9952  -6.7020  -6.6928  -6.6203  -6.6112  -6.5884  -6.5735
    -3.8107  -3.7379  -2.7397  -2.6358  -1.8419  -1.6612  -1.4437  -1.3626
    -0.9806  -0.8694  -0.8141  -0.7334  -0.4848  -0.3718  -0.3174  -0.2196
    -0.1569  -0.0136   0.1318   0.3091   0.3979   0.4857   0.5251   0.5549
     0.8601   0.9365   1.1696   1.2264   1.2810   1.3674   1.4141   1.4911
     1.5266   1.5935   1.6948   1.8119   2.0135   2.1696   2.2395   2.2884
     2.3437   2.4481   2.5123   2.5820   2.6396   2.7047   2.7633   2.8238
     2.8509   2.9343   2.9831   3.0215   3.0948   3.1149   3.1858   3.2191
     3.2786   3.3303   3.3671   3.4539   3.4734   3.5170   3.5741   3.6097
     3.7103   3.7549   3.8351   3.9092   3.9368   4.1684   4.2462   4.3030

     occupation numbers 
     1.0000   1.0000   1.0000   1.0000   1.0000   1.0000   1.0000   1.0000
     1.0000   1.0000   1.0000   1.0000   1.0000   1.0000   1.0000   1.0000
     1.0000   1.0000   1.0000   1.0000   1.0000   1.0000   1.0000   1.0000
     1.0000   1.0000   1.0000   1.0000   1.0000   1.0000   1.0000   1.0000
     1.0000   1.0000   1.0000   1.0000   1.0000   1.0000   1.0000   1.0000
     1.0000   1.0000   1.0000   1.0000   1.0000   1.0000   1.0000   1.0000
     1.0000   1.0000   1.0000   1.0000   1.0000   1.0000   1.0000   1.0000
     1.0000   1.0000   1.0000   1.0000   1.0000   1.0000   1.0000   1.0000
     1.0000   1.0000   1.0000   1.0000   1.0000   1.0000   1.0000   1.0000
     1.0000   1.0000   1.0000   1.0000   1.0000   1.0000   1.0000   1.0000
     1.0000   1.0000   1.0000   1.0000   1.0000   1.0000   1.0000   1.0000
     1.0000   1.0000   1.0000   1.0000   1.0000   1.0000   1.0000   1.0000
     1.0000   1.0000   1.0000   1.0000   1.0000   1.0000   1.0000   1.0000
     1.0000   1.0000   1.0000   1.0000   1.0000   1.0000   1.0000   1.0000
     1.0000   1.0000   1.0000   1.0000   1.0000   1.0000   1.0000   1.0000
     1.0000   1.0000   1.0000   1.0000   1.0000   1.0000   1.0000   1.0000

          k = 0.3333 0.1921 0.2360 ( 25909 PWs)   bands (ev):

   -67.7077 -67.7032 -67.5930 -67.2162 -67.1275 -67.1211 -34.4815 -34.4695
   -34.4566 -34.4532 -34.4457 -34.4417 -34.3557 -34.3530 -34.3264 -33.9736
   -33.9691 -33.9656 -33.9049 -33.8935 -33.8880 -33.8660 -33.8618 -33.8429
   -23.1279 -23.1083 -14.9640 -14.9510 -14.4121 -14.3800 -13.9705 -13.9490
   -13.3023 -13.2382 -13.1741 -13.0985 -13.0564 -13.0107 -13.0014 -12.9076
   -12.8743 -12.7954 -12.6657 -12.6103 -12.5288 -12.4843 -12.2951 -12.2049
   -11.2143 -10.9961  -6.7021  -6.6929  -6.6202  -6.6112  -6.5883  -6.5735
    -3.8092  -3.7393  -2.7053  -2.6742  -1.8220  -1.6887  -1.4176  -1.3508
    -0.9748  -0.8940  -0.7686  -0.7496  -0.4584  -0.4230  -0.3284  -0.2443
    -0.1361  -0.0582   0.1672   0.2589   0.3826   0.4649   0.5218   0.5975
     0.8571   0.9629   1.1725   1.2093   1.2930   1.3501   1.4699   1.5078
     1.5690   1.6395   1.6682   1.8157   2.0524   2.1162   2.2576   2.2816
     2.3145   2.4465   2.4874   2.5962   2.6465   2.6705   2.7322   2.7999
     2.8487   2.9149   2.9825   3.0356   3.0700   3.1202   3.1917   3.2470
     3.2851   3.3692   3.4055   3.4489   3.4620   3.5123   3.5437   3.5910
     3.7252   3.7738   3.7893   3.8614   4.0134   4.1410   4.2597   4.3243

     occupation numbers 
     1.0000   1.0000   1.0000   1.0000   1.0000   1.0000   1.0000   1.0000
     1.0000   1.0000   1.0000   1.0000   1.0000   1.0000   1.0000   1.0000
     1.0000   1.0000   1.0000   1.0000   1.0000   1.0000   1.0000   1.0000
     1.0000   1.0000   1.0000   1.0000   1.0000   1.0000   1.0000   1.0000
     1.0000   1.0000   1.0000   1.0000   1.0000   1.0000   1.0000   1.0000
     1.0000   1.0000   1.0000   1.0000   1.0000   1.0000   1.0000   1.0000
     1.0000   1.0000   1.0000   1.0000   1.0000   1.0000   1.0000   1.0000
     1.0000   1.0000   1.0000   1.0000   1.0000   1.0000   1.0000   1.0000
     1.0000   1.0000   1.0000   1.0000   1.0000   1.0000   1.0000   1.0000
     1.0000   1.0000   1.0000   1.0000   1.0000   1.0000   1.0000   1.0000
     1.0000   1.0000   1.0000   1.0000   1.0000   1.0000   1.0000   1.0000
     1.0000   1.0000   1.0000   1.0000   1.0000   1.0000   1.0000   1.0000
     1.0000   1.0000   1.0000   1.0000   1.0000   1.0000   1.0000   1.0000
     1.0000   1.0000   1.0000   1.0000   1.0000   1.0000   1.0000   1.0000
     1.0000   1.0000   1.0000   1.0000   1.0000   1.0000   1.0000   1.0000
     1.0000   1.0000   1.0000   1.0000   1.0000   1.0000   1.0000   1.0000

          k = 0.3333 0.1921-0.1157 ( 25902 PWs)   bands (ev):

   -67.7077 -67.7032 -67.5930 -67.2162 -67.1275 -67.1211 -34.4815 -34.4695
   -34.4566 -34.4532 -34.4457 -34.4417 -34.3557 -34.3530 -34.3264 -33.9736
   -33.9691 -33.9656 -33.9048 -33.8935 -33.8880 -33.8660 -33.8618 -33.8429
   -23.1279 -23.1083 -14.9762 -14.9383 -14.4082 -14.3842 -13.9702 -13.9491
   -13.3066 -13.2405 -13.1620 -13.1062 -13.0445 -13.0179 -13.0077 -12.9060
   -12.8742 -12.7958 -12.6618 -12.6123 -12.5218 -12.4917 -12.2962 -12.2034
   -11.2141 -10.9960  -6.7022  -6.6929  -6.6202  -6.6112  -6.5883  -6.5735
    -3.7791  -3.7706  -2.7263  -2.6513  -1.8335  -1.6704  -1.4395  -1.3577
    -0.9600  -0.8719  -0.7925  -0.7349  -0.4961  -0.3636  -0.3456  -0.2217
    -0.1949  -0.0390   0.1361   0.3115   0.4165   0.4795   0.5375   0.5594
     0.8843   0.9255   1.1620   1.2110   1.3007   1.3567   1.4708   1.4751
[...]
     atom    8 type  4   force =    -0.00000000    0.00040482    0.00000000
     atom    9 type  6   force =     0.00212727    0.01055863    0.00593261
     atom   10 type  6   force =    -0.00212730    0.01055865   -0.00593248
     atom   11 type  6   force =     0.00032660    0.00325745   -0.01353598
     atom   12 type  6   force =    -0.00032658    0.00325745    0.01353598
     atom   13 type  6   force =    -0.00131826   -0.01172974    0.01073428
     atom   14 type  6   force =     0.00131826   -0.01172973   -0.01073436
     atom   15 type  1   force =    -0.00054364   -0.00223882   -0.01024178
     atom   16 type  1   force =     0.00054364   -0.00223882    0.01024178
     atom   17 type  5   force =    -0.00016988    0.00021715    0.00646713
     atom   18 type  5   force =     0.00016988    0.00021715   -0.00646713
     atom   19 type  5   force =    -0.00011850    0.00007789   -0.00699554
     atom   20 type  5   force =     0.00011850    0.00007789    0.00699554
     atom   21 type  5   force =     0.00008088   -0.00021275    0.00684401
     atom   22 type  5   force =    -0.00008088   -0.00021275   -0.00684401
     atom   23 type  5   force =     0.00008924    0.00006201   -0.00321365
     atom   24 type  5   force =    -0.00008923    0.00006201    0.00321363
     atom   25 type  5   force =     0.00458864   -0.00170759   -0.00581352
     atom   26 type  5   force =    -0.00458865   -0.00170759    0.00581347
     atom   27 type  5   force =    -0.00333826    0.00079151   -0.00711669
     atom   28 type  5   force =     0.00333826    0.00079151    0.00711666
     atom   29 type  5   force =    -0.00153190    0.00215274    0.00729881
     atom   30 type  5   force =     0.00153190    0.00215273   -0.00729882
     atom   31 type  5   force =     0.00080528   -0.00198571   -0.00745741
     atom   32 type  5   force =    -0.00080528   -0.00198571    0.00745740
     atom   33 type  5   force =    -0.00231883   -0.00351587   -0.00646389
     atom   34 type  5   force =     0.00231882   -0.00351587    0.00646388
     atom   35 type  5   force =     0.00113816    0.00409028    0.00644446
     atom   36 type  5   force =    -0.00113815    0.00409029   -0.00644447
     atom   37 type  5   force =    -0.00006755    0.00060837    0.01134840
     atom   38 type  5   force =     0.00006758    0.00060837   -0.01134840
     atom   39 type  5   force =     0.00000448   -0.00147067    0.01108736
     atom   40 type  5   force =    -0.00000445   -0.00147067   -0.01108736
     atom   41 type  2   force =     0.00000000    0.00000000    0.00000000
     atom   42 type  2   force =     0.00000000    0.00000000    0.00000000
     atom   43 type  2   force =     0.00000000    0.00000000    0.00000000
     atom   44 type  2   force =     0.00000000    0.00000000    0.00000000
     The Hubbard contrib.    to forces
     atom    1 type  3   force =     0.00000000    0.00000000    0.00000000
     atom    2 type  3   force =     0.00000000    0.00000000    0.00000000
     atom    3 type  4   force =     0.00000000    0.00000000    0.00000000
     atom    4 type  4   force =     0.00000000    0.00000000    0.00000000
     atom    5 type  4   force =     0.00000000    0.00000000    0.00000000
     atom    6 type  4   force =     0.00000000    0.00000000    0.00000000
     atom    7 type  4   force =     0.00000000    0.00000000    0.00000000
     atom    8 type  4   force =     0.00000000    0.00000000    0.00000000
     atom    9 type  6   force =     0.00000000    0.00000000    0.00000000
     atom   10 type  6   force =     0.00000000    0.00000000    0.00000000
     atom   11 type  6   force =     0.00000000    0.00000000    0.00000000
     atom   12 type  6   force =     0.00000000    0.00000000    0.00000000
     atom   13 type  6   force =     0.00000000    0.00000000    0.00000000
     atom   14 type  6   force =     0.00000000    0.00000000    0.00000000
     atom   15 type  1   force =     0.00000000    0.00000000    0.00000000
     atom   16 type  1   force =     0.00000000    0.00000000    0.00000000
     atom   17 type  5   force =     0.00000000    0.00000000    0.00000000
     atom   18 type  5   force =     0.00000000    0.00000000    0.00000000
     atom   19 type  5   force =     0.00000000    0.00000000    0.00000000
     atom   20 type  5   force =     0.00000000    0.00000000    0.00000000
     atom   21 type  5   force =     0.00000000    0.00000000    0.00000000
     atom   22 type  5   force =     0.00000000    0.00000000    0.00000000
     atom   23 type  5   force =     0.00000000    0.00000000    0.00000000
     atom   24 type  5   force =     0.00000000    0.00000000    0.00000000
     atom   25 type  5   force =     0.00000000    0.00000000    0.00000000
     atom   26 type  5   force =     0.00000000    0.00000000    0.00000000
     atom   27 type  5   force =     0.00000000    0.00000000    0.00000000
     atom   28 type  5   force =     0.00000000    0.00000000    0.00000000
     atom   29 type  5   force =     0.00000000    0.00000000    0.00000000
     atom   30 type  5   force =     0.00000000    0.00000000    0.00000000
     atom   31 type  5   force =     0.00000000    0.00000000    0.00000000
     atom   32 type  5   force =     0.00000000    0.00000000    0.00000000
     atom   33 type  5   force =     0.00000000    0.00000000    0.00000000
     atom   34 type  5   force =     0.00000000    0.00000000    0.00000000
     atom   35 type  5   force =     0.00000000    0.00000000    0.00000000
     atom   36 type  5   force =     0.00000000    0.00000000    0.00000000
     atom   37 type  5   force =     0.00000000    0.00000000    0.00000000
     atom   38 type  5   force =     0.00000000    0.00000000    0.00000000
     atom   39 type  5   force =     0.00000000    0.00000000    0.00000000
     atom   40 type  5   force =     0.00000000    0.00000000    0.00000000
     atom   41 type  2   force =     0.00000000    0.00000000    0.00000000
     atom   42 type  2   force =     0.00000000    0.00000000    0.00000000
     atom   43 type  2   force =     0.00000000    0.00000000    0.00000000
     atom   44 type  2   force =     0.00000000    0.00000000    0.00000000
     The SCF correction term to forces
     atom    1 type  3   force =    -0.00000000   -0.00000958   -0.00000000
     atom    2 type  3   force =     0.00000000    0.00001165    0.00000000
     atom    3 type  4   force =    -0.00000000    0.00001313    0.00000000
     atom    4 type  4   force =     0.00000000    0.00000476    0.00000000
     atom    5 type  4   force =    -0.00000000   -0.00001609    0.00000000
     atom    6 type  4   force =     0.00000000    0.00000088   -0.00000000
     atom    7 type  4   force =     0.00000000    0.00000453   -0.00000000
     atom    8 type  4   force =     0.00000000   -0.00000449   -0.00000000
     atom    9 type  6   force =    -0.00000036    0.00000602   -0.00002474
     atom   10 type  6   force =     0.00000036    0.00000602    0.00002474
     atom   11 type  6   force =     0.00000107   -0.00000464    0.00002886
     atom   12 type  6   force =    -0.00000107   -0.00000464   -0.00002886
     atom   13 type  6   force =     0.00000154   -0.00000428   -0.00003026
     atom   14 type  6   force =    -0.00000154   -0.00000428    0.00003026
     atom   15 type  1   force =    -0.00000063    0.00000141    0.00002205
     atom   16 type  1   force =     0.00000063    0.00000141   -0.00002205
     atom   17 type  5   force =    -0.00000338    0.00000311    0.00001101
     atom   18 type  5   force =     0.00000338    0.00000311   -0.00001101
     atom   19 type  5   force =    -0.00000014   -0.00000183   -0.00000783
     atom   20 type  5   force =     0.00000014   -0.00000183    0.00000783
     atom   21 type  5   force =     0.00000165   -0.00000582    0.00001259
     atom   22 type  5   force =    -0.00000165   -0.00000582   -0.00001259
     atom   23 type  5   force =    -0.00000148    0.00000052    0.00001720
     atom   24 type  5   force =     0.00000148    0.00000052   -0.00001720
     atom   25 type  5   force =     0.00002659    0.00001190   -0.00004103
     atom   26 type  5   force =    -0.00002659    0.00001190    0.00004103
     atom   27 type  5   force =    -0.00000641   -0.00000232   -0.00004583
     atom   28 type  5   force =     0.00000641   -0.00000232    0.00004583
     atom   29 type  5   force =    -0.00000153    0.00000118    0.00004870
     atom   30 type  5   force =     0.00000153    0.00000118   -0.00004870
     atom   31 type  5   force =     0.00000134   -0.00000539   -0.00004889
     atom   32 type  5   force =    -0.00000134   -0.00000539    0.00004889
     atom   33 type  5   force =     0.00000021   -0.00002474   -0.00004420
     atom   34 type  5   force =    -0.00000021   -0.00002474    0.00004420
     atom   35 type  5   force =     0.00002239    0.00001869    0.00004080
     atom   36 type  5   force =    -0.00002239    0.00001869   -0.00004080
     atom   37 type  5   force =    -0.00000259   -0.00000090   -0.00000348
     atom   38 type  5   force =     0.00000259   -0.00000090    0.00000348
     atom   39 type  5   force =     0.00000081    0.00000404   -0.00000597
     atom   40 type  5   force =    -0.00000081    0.00000404    0.00000597
     atom   41 type  2   force =    -0.00000032   -0.00000046   -0.00000242
     atom   42 type  2   force =     0.00000032   -0.00000046    0.00000242
     atom   43 type  2   force =     0.00000010    0.00000077   -0.00000239
     atom   44 type  2   force =    -0.00000010    0.00000077    0.00000239

     DFT-D3 dispersion contribution to forces:
     atom    1 type  3   force =    -0.00000000    0.00102187   -0.00000000
     atom    2 type  3   force =    -0.00000000   -0.00084504    0.00000000
     atom    3 type  4   force =    -0.00000000    0.00032406   -0.00000000
     atom    4 type  4   force =     0.00000000    0.00071642   -0.00000000
     atom    5 type  4   force =     0.00000000   -0.00113288   -0.00000000
     atom    6 type  4   force =    -0.00000000   -0.00062394   -0.00000000
     atom    7 type  4   force =    -0.00000000    0.00113325   -0.00000000
     atom    8 type  4   force =     0.00000000   -0.00019362   -0.00000000
     atom    9 type  6   force =     0.00004371   -0.00007628   -0.00023287
     atom   10 type  6   force =    -0.00004371   -0.00007628    0.00023287
     atom   11 type  6   force =     0.00004299    0.00005307    0.00015277
     atom   12 type  6   force =    -0.00004299    0.00005307   -0.00015277
     atom   13 type  6   force =    -0.00002943    0.00015694   -0.00014036
     atom   14 type  6   force =     0.00002943    0.00015694    0.00014036
     atom   15 type  1   force =     0.00004708    0.00009510   -0.00096448
     atom   16 type  1   force =    -0.00004708    0.00009510    0.00096448
     atom   17 type  5   force =    -0.00000443    0.00004778    0.00048061
     atom   18 type  5   force =     0.00000443    0.00004779   -0.00048061
     atom   19 type  5   force =     0.00000187    0.00000922   -0.00040643
     atom   20 type  5   force =    -0.00000187    0.00000922    0.00040643
     atom   21 type  5   force =    -0.00001573   -0.00005048    0.00043543
     atom   22 type  5   force =     0.00001573   -0.00005048   -0.00043543
     atom   23 type  5   force =    -0.00002396   -0.00002369    0.00005625
     atom   24 type  5   force =     0.00002396   -0.00002369   -0.00005625
     atom   25 type  5   force =    -0.00019383    0.00101736    0.00030007
     atom   26 type  5   force =     0.00019383    0.00101736   -0.00030007
     atom   27 type  5   force =     0.00085538    0.00007682    0.00020197
     atom   28 type  5   force =    -0.00085538    0.00007682   -0.00020197
     atom   29 type  5   force =     0.00034722   -0.00052447    0.00000628
     atom   30 type  5   force =    -0.00034722   -0.00052446   -0.00000628
     atom   31 type  5   force =    -0.00019568    0.00031330   -0.00005318
     atom   32 type  5   force =     0.00019568    0.00031330    0.00005318
     atom   33 type  5   force =     0.00094120   -0.00043758    0.00042118
     atom   34 type  5   force =    -0.00094120   -0.00043758   -0.00042118
     atom   35 type  5   force =     0.00066540   -0.00054132   -0.00045599
     atom   36 type  5   force =    -0.00066540   -0.00054132    0.00045599
     atom   37 type  5   force =    -0.00001077   -0.00004163   -0.00047915
     atom   38 type  5   force =     0.00001077   -0.00004163    0.00047915
     atom   39 type  5   force =     0.00001900    0.00004722   -0.00050348
     atom   40 type  5   force =    -0.00001900    0.00004722    0.00050348
     atom   41 type  2   force =    -0.00000051    0.00008915   -0.00027280
     atom   42 type  2   force =     0.00000051    0.00008915    0.00027280
     atom   43 type  2   force =     0.00004529   -0.00041059   -0.00027952
     atom   44 type  2   force =    -0.00004529   -0.00041059    0.00027952

     Total force =     0.003841     Total SCF correction =     0.000193

     DFT-D3 dispersion Force =     0.004439


     Computing stress (Cartesian axis) and pressure

          total   stress  (Ry/bohr**3)                   (kbar)     P=       -0.14
  -0.00000067   0.00000000  -0.00000117           -0.10        0.00       -0.17
   0.00000000   0.00000003   0.00000000            0.00        0.00        0.00
  -0.00000117   0.00000000  -0.00000227           -0.17        0.00       -0.33

     kinetic stress (kbar)  18750.25      0.00     -3.90
                                0.00  18746.61      0.00
                               -3.90      0.00  18433.18

     local   stress (kbar) -36546.98      0.00    -36.09
                                0.00 -36307.28     -0.00
                              -36.09     -0.00  14086.77

     nonloc. stress (kbar)   4984.06      0.00     -0.43
                                0.00   4984.09      0.00
                               -0.43      0.00   4975.28

     hartree stress (kbar)  20089.87     -0.00     13.75
                               -0.00  19983.49     -0.00
                               13.75     -0.00  -4704.34

     exc-cor stress (kbar)  -2730.25     -0.00      0.02
                               -0.00  -2730.27      0.00
                                0.02      0.00  -2727.06

     corecor stress (kbar)  -1820.24      0.00      0.11
                                0.00  -1820.30     -0.00
                                0.11     -0.00  -1821.78

     ewald   stress (kbar)  -2711.83     -0.00     26.29
                               -0.00  -2841.22      0.00
                               26.29      0.00 -28231.33

     hubbard stress (kbar)      0.00      0.00      0.00
                                0.00      0.00      0.00
                                0.00      0.00      0.00

     DFT-D   stress (kbar)    -14.97     -0.00      0.09
                               -0.00    -15.12     -0.00
                                0.09     -0.00    -11.05

     XDM     stress (kbar)      0.00      0.00      0.00
                                0.00      0.00      0.00
                                0.00      0.00      0.00

     dft-nl  stress (kbar)      0.00      0.00      0.00
                                0.00      0.00      0.00
                                0.00      0.00      0.00

     TS-vdW  stress (kbar)      0.00      0.00      0.00
                                0.00      0.00      0.00
                                0.00      0.00      0.00

     MDB     stress (kbar)      0.00      0.00      0.00
                                0.00      0.00      0.00
                                0.00      0.00      0.00

     3D-RISM stress (kbar)      0.00      0.00      0.00
                                0.00      0.00      0.00
                                0.00      0.00      0.00


     Writing all to output data dir ./temp/phl-fe0-dftd3.save/ :
     XML data file, charge density, pseudopotentials, collected wavefunctions

     init_run     :    229.16s CPU    231.01s WALL (       2 calls)
     electrons    :  93010.34s CPU  93533.74s WALL (      17 calls)
     update_pot   :     13.77s CPU     14.01s WALL (      15 calls)
     forces       :   1311.39s CPU   1321.77s WALL (      17 calls)
     force_dftd3  :     61.96s CPU     62.02s WALL (      17 calls)
     stress       :   3494.88s CPU   3541.73s WALL (      17 calls)
     stres_dftd3  :     61.88s CPU     61.93s WALL (      17 calls)

     Called by init_run:
     wfcinit      :    219.67s CPU    220.50s WALL (       2 calls)
     wfcinit:atom :      0.34s CPU      0.34s WALL (      40 calls)
     wfcinit:wfcr :    216.35s CPU    217.14s WALL (      40 calls)
     potinit      :      1.91s CPU      1.97s WALL (       2 calls)
     hinit0       :      1.27s CPU      1.32s WALL (       2 calls)

     Called by electrons:
     c_bands      :  86659.70s CPU  86972.01s WALL (     201 calls)
     sum_band     :   5565.23s CPU   5686.33s WALL (     201 calls)
     v_of_rho     :     43.92s CPU     45.26s WALL (     207 calls)
     v_h          :      3.88s CPU      4.00s WALL (     207 calls)
     v_xc         :     46.44s CPU     47.98s WALL (     241 calls)
     newd         :    620.60s CPU    716.55s WALL (     207 calls)
     PAW_pot      :    127.43s CPU    127.44s WALL (     222 calls)
     mix_rho      :      8.56s CPU      8.82s WALL (     201 calls)
     energy_dftd3 :     49.66s CPU     49.66s WALL (      17 calls)

     Called by c_bands:
     init_us_2    :    202.08s CPU    202.41s WALL (    9060 calls)
     cegterg      :  86344.40s CPU  86652.87s WALL (    4040 calls)

     Called by sum_band:
     sum_band:wei :      0.00s CPU      0.00s WALL (     201 calls)
     sum_band:loo :   4692.23s CPU   4716.49s WALL (     201 calls)
     sum_band:buf :     23.21s CPU     23.25s WALL (    4020 calls)
     sum_band:ini :     91.39s CPU     91.47s WALL (    4020 calls)
     sum_band:cal :   3643.88s CPU   3646.57s WALL (    4320 calls)
     sum_band:bec :      6.02s CPU      6.02s WALL (    4320 calls)
     addusdens    :    863.86s CPU    960.21s WALL (     201 calls)
                                        0.00s GPU  (     201 calls)
     addusd:skk   :      6.15s CPU      9.73s WALL (    1206 calls)
                                        0.00s GPU  (    1206 calls)

     Called by *egterg:
     cdiaghg      :   1332.72s CPU   1333.15s WALL (   30238 calls)
     cegterg:over :  10128.31s CPU  10134.66s WALL (   26738 calls)
     cegterg:upda :   6300.45s CPU   6315.74s WALL (   26738 calls)
     cegterg:last :  18323.17s CPU  18327.94s WALL (   16401 calls)
     h_psi        :  34503.00s CPU  34718.37s WALL (   30818 calls)
     s_psi        :  13712.62s CPU  13718.32s WALL (   30818 calls)
     g_psi        :     37.61s CPU     37.68s WALL (   26738 calls)

     Called by h_psi:
     h_psi:calbec :  13733.52s CPU  13741.83s WALL (   30818 calls)
     vloc_psi     :   6971.29s CPU   7147.91s WALL (   30818 calls)
     add_vuspsi   :  13726.20s CPU  13730.34s WALL (   30818 calls)

     General routines
     calbec       :  18748.30s CPU  18759.71s WALL (   36838 calls)
     fft          :     34.01s CPU     36.19s WALL (    3108 calls)
     ffts         :      1.28s CPU      1.34s WALL (     408 calls)
     fftw         :   5210.49s CPU   5327.55s WALL ( 4715350 calls)
     interpolate  :      3.70s CPU      3.82s WALL (     207 calls)

     Parallel routines

     PAW routines
     PAW_pot      :    127.43s CPU    127.44s WALL (     222 calls)
     PAW_symme    :      0.06s CPU      0.06s WALL (     423 calls)

     PWSCF        :   1d 3h19m CPU   1d 3h29m WALL


   This run was terminated on:  18:48:59  27Dec2024            

=------------------------------------------------------------------------------=
   JOB DONE.
=------------------------------------------------------------------------------=
