
     Program PWSCF v.7.3.1 starts on 28Dec2024 at  0:12:52 

     This program is part of the open-source Quantum ESPRESSO suite
     for quantum simulation of materials; please cite
         "P. Giannozzi et al., J. Phys.:Condens. Matter 21 395502 (2009);
         "P. Giannozzi et al., J. Phys.:Condens. Matter 29 465901 (2017);
         "P. Giannozzi et al., J. Chem. Phys. 152 154105 (2020);
          URL http://www.quantum-espresso.org", 
     in publications or presentations arising from this work. More details at
     http://www.quantum-espresso.org/quote

     Parallel version (MPI), running on     4 processors

     MPI processes distributed on     1 nodes
     6385 MiB available memory on the printing compute node when the environment starts

     Reading input from relax.in
Warning: card  &CELL ignored
Warning: card    CELL_DOFREE     = 'IBRAV' ignored
Warning: card  / ignored

     Current dimensions of program PWSCF are:
     Max number of different atomic species (ntypx) = 10
     Max number of k-points (npk) =  40000
     Max angular momentum in pseudopotentials (lmaxx) =  4
     file Al.pbe-n-kjpaw_psl.1.0.0.UPF: wavefunction(s)  3S 3P renormalized
     file Fe.pbe-spn-kjpaw_psl.1.0.0.UPF: wavefunction(s)  3P 3D renormalized
     file H.pbe-kjpaw_psl.1.0.0.UPF: wavefunction(s)  1S renormalized
     file K.pbe-spn-kjpaw_psl.1.0.0.UPF: wavefunction(s)  3S renormalized
     file Mg.pbe-spnl-kjpaw_psl.1.0.0.UPF: wavefunction(s)  2P renormalized
     file O.pbe-n-kjpaw_psl.1.0.0.UPF: wavefunction(s)  2S 2P renormalized
     file Si.pbe-n-kjpaw_psl.1.0.0.UPF: wavefunction(s)  3S 3P renormalized

     R & G space division:  proc/nbgrp/npool/nimage =       4
     Subspace diagonalization in iterative solution of the eigenvalue problem:
     one sub-group per band group will be used
     custom distributed-memory algorithm (size of sub-group:  2*  2 procs)


     Parallelization info
     --------------------
     sticks:   dense  smooth     PW     G-vecs:    dense   smooth      PW
     Min        1652     828    225               145883    51599    7342
     Max        1653     829    226               145887    51603    7343
     Sum        6609    3313    901               583539   206401   29369

     Using Slab Decomposition



     bravais-lattice index     =          -12
     lattice parameter (alat)  =       9.9883  a.u.
     unit-cell volume          =    3285.8057 (a.u.)^3
     number of atoms/cell      =           44
     number of atomic types    =            7
     number of electrons       =       262.00
     number of Kohn-Sham states=          157
     kinetic-energy cutoff     =      60.0000  Ry
     charge density cutoff     =     480.0000  Ry
     scf convergence threshold =      1.0E-06
     mixing beta               =       0.7000
     number of iterations used =            8  plain     mixing
     energy convergence thresh.=      1.0E-04
     force convergence thresh. =      1.0E-03
     Exchange-correlation= SLA  PW   PBX  PBC
                           (   1   4   3   4   0   0   0)
     nstep                     =           50


     celldm(1)=   9.988336  celldm(2)=   1.736567  celldm(3)=   1.928182
     celldm(4)=   0.000000  celldm(5)=  -0.174018  celldm(6)=   0.000000

     crystal axes: (cart. coord. in units of alat)
               a(1) = (   1.000000   0.000000   0.000000 )  
               a(2) = (   0.000000   1.736567   0.000000 )  
               a(3) = (  -0.335538   0.000000   1.898763 )  

     reciprocal axes: (cart. coord. in units 2 pi/alat)
               b(1) = (  1.000000 -0.000000  0.176714 )  
               b(2) = (  0.000000  0.575849 -0.000000 )  
               b(3) = (  0.000000  0.000000  0.526659 )  


     PseudoPot. # 1 for Al read from file:
     ./../../pseudos/Al.pbe-n-kjpaw_psl.1.0.0.UPF
     MD5 check sum: 502b6b27b9c6270cab5dd1084b96fa6d
     Pseudo is Projector augmented-wave + core cor, Zval =  3.0
     Generated using &quot;atomic&quot; code by A. Dal Corso  v.6.3
     Shape of augmentation charge: PSQ
     Using radial grid of 1135 points,  6 beta functions with: 
                l(1) =   0
                l(2) =   0
                l(3) =   1
                l(4) =   1
                l(5) =   2
                l(6) =   2
     Q(r) pseudized with 0 coefficients 


     PseudoPot. # 2 for Fe read from file:
     ./../../pseudos/Fe.pbe-spn-kjpaw_psl.1.0.0.UPF
     MD5 check sum: fc81f059e5c5069939230b1155715ae8
     Pseudo is Projector augmented-wave + core cor, Zval = 16.0
     Generated using &quot;atomic&quot; code by A. Dal Corso  v.6.3
     Shape of augmentation charge: PSQ
     Using radial grid of 1191 points,  6 beta functions with: 
                l(1) =   0
                l(2) =   0
                l(3) =   1
                l(4) =   1
                l(5) =   2
                l(6) =   2
     Q(r) pseudized with 0 coefficients 


     PseudoPot. # 3 for H  read from file:
     ./../../pseudos/H.pbe-kjpaw_psl.1.0.0.UPF
     MD5 check sum: d81a744832360e4a8af0b0b5b123bc2a
     Pseudo is Projector augmented-wave, Zval =  1.0
     Generated using &quot;atomic&quot; code by A. Dal Corso  v.6.3MaX
     Shape of augmentation charge: PSQ
     Using radial grid of  929 points,  2 beta functions with: 
                l(1) =   0
                l(2) =   0
     Q(r) pseudized with 0 coefficients 


     PseudoPot. # 4 for K  read from file:
     ./../../pseudos/K.pbe-spn-kjpaw_psl.1.0.0.UPF
     MD5 check sum: 34cc42130a09071ebe376fd42eb21491
     Pseudo is Projector augmented-wave + core cor, Zval =  9.0
     Generated using &quot;atomic&quot; code by A. Dal Corso  v.6.2.2
     Shape of augmentation charge: PSQ
     Using radial grid of 1165 points,  6 beta functions with: 
                l(1) =   0
                l(2) =   0
                l(3) =   1
                l(4) =   1
                l(5) =   2
                l(6) =   2
     Q(r) pseudized with 0 coefficients 


     PseudoPot. # 5 for Mg read from file:
     ./../../pseudos/Mg.pbe-spnl-kjpaw_psl.1.0.0.UPF
     MD5 check sum: fda14e0d92a6a9a5ebed782e5a4b3067
     Pseudo is Projector augmented-wave + core cor, Zval = 10.0
     Generated using &quot;atomic&quot; code by A. Dal Corso  v.6.3
     Shape of augmentation charge: PSQ
     Using radial grid of 1129 points,  4 beta functions with: 
                l(1) =   0
                l(2) =   0
                l(3) =   1
                l(4) =   1
     Q(r) pseudized with 0 coefficients 


     PseudoPot. # 6 for O  read from file:
     ./../../pseudos/O.pbe-n-kjpaw_psl.1.0.0.UPF
     MD5 check sum: e99d9cef9b487d1ca56f5b95ecd0fd7a
     Pseudo is Projector augmented-wave + core cor, Zval =  6.0
     Generated using &quot;atomic&quot; code by A. Dal Corso  v.6.3
     Shape of augmentation charge: PSQ
     Using radial grid of 1095 points,  4 beta functions with: 
                l(1) =   0
                l(2) =   0
                l(3) =   1
                l(4) =   1
     Q(r) pseudized with 0 coefficients 


     PseudoPot. # 7 for Si read from file:
     ./../../pseudos/Si.pbe-n-kjpaw_psl.1.0.0.UPF
     MD5 check sum: c39c59da582df4a0d9f10159256ea34e
     Pseudo is Projector augmented-wave + core cor, Zval =  4.0
     Generated using &quot;atomic&quot; code by A. Dal Corso  v.6.3
     Shape of augmentation charge: PSQ
     Using radial grid of 1141 points,  6 beta functions with: 
                l(1) =   0
                l(2) =   0
                l(3) =   1
                l(4) =   1
                l(5) =   2
                l(6) =   2
     Q(r) pseudized with 0 coefficients 


     atomic species   valence    mass     pseudopotential
     Al                3.00    26.98154     Al( 1.00)
     Fe               16.00    55.84500     Fe( 1.00)
     H                 1.00     1.00794     H ( 1.00)
     K                 9.00    39.09830     K ( 1.00)
     Mg               10.00    24.30500     Mg( 1.00)
     O                 6.00    15.99940     O ( 1.00)
     Si                4.00    28.08550     Si( 1.00)

     Starting magnetic structure 
     atomic species   magnetization
     Al              0.000
     Fe              0.300
     H               0.000
     K               0.000
     Mg              0.000
     O               0.000
     Si              0.000

      2 Sym. Ops. (no inversion) found


                                    s                        frac. trans.

      isym =  1     identity                                     

 cryst.   s( 1) = (     1          0          0      )
                  (     0          1          0      )
                  (     0          0          1      )

 cart.    s( 1) = (  1.0000000  0.0000000  0.0000000 )
                  (  0.0000000  1.0000000  0.0000000 )
                  (  0.0000000  0.0000000  1.0000000 )


      isym =  2     180 deg rotation - cart. axis [0,1,0]        

 cryst.   s( 2) = (    -1          0          0      )
                  (     0          1          0      )
                  (     0          0         -1      )

 cart.    s( 2) = ( -1.0000000  0.0000000  0.0000000 )
                  (  0.0000000  1.0000000  0.0000000 )
                  (  0.0000000  0.0000000 -1.0000000 )


     point group C_2  (2)   
     there are  2 classes
     the character table:

       E     C2   
A      1.00  1.00
B      1.00 -1.00

     the symmetry operations in each class and the name of the first element:

     E        1
          identity                                               
     C2       2
          180 deg rotation - cart. axis [0,1,0]                  

   Cartesian axes

     site n.     atom                  positions (alat units)
         1        K      tau(   1) = (   0.0000000   0.8568223   0.0000000  )
         2        K      tau(   2) = (   0.5000000   0.0097248   0.0000000  )
         3        Mg     tau(   3) = (  -0.1677688   0.0062516   0.9493815  )
         4        Mg     tau(   4) = (  -0.1677688   0.5789715   0.9493815  )
         5        Mg     tau(   5) = (  -0.1677688   1.1532543   0.9493815  )
         6        Mg     tau(   6) = (   0.3322312   1.4489917   0.9493815  )
         7        Mg     tau(   7) = (   0.3322312   0.3011208   0.9493815  )
         8        Fe     tau(   8) = (   0.3322312   0.8644632   0.9493815  )
         9        Si     tau(   9) = (   0.0078751   0.2868809   0.4234242  )
        10        Si     tau(  10) = (   0.6565873   0.2868809   1.4753389  )
        11        Si     tau(  11) = (   0.6740999   1.4484708   1.4645160  )
        12        Si     tau(  12) = (  -0.0096375   1.4484708   0.4342471  )
        13        Si     tau(  13) = (   0.4895001   1.1563801   0.4306395  )
        14        Si     tau(  14) = (   0.1749623   1.1563801   1.4681237  )
        15        Al     tau(  15) = (   0.1565906   0.5770613   1.4724908  )
        16        Al     tau(  16) = (   0.5078718   0.5770613   0.4262723  )
        17        O      tau(  17) = (  -0.0026826   0.2835814   0.7315934  )
        18        O      tau(  18) = (   0.6671450   0.2835814   1.1671696  )
        19        O      tau(  19) = (   0.6695214   1.4455186   1.1588151  )
        20        O      tau(  20) = (  -0.0050590   1.4455186   0.7399480  )
        21        O      tau(  21) = (   0.4958430   1.1596796   0.7382391  )
        22        O      tau(  22) = (   0.1686195   1.1596796   1.1605239  )
        23        O      tau(  23) = (   0.1614037   0.5826183   1.1453339  )
        24        O      tau(  24) = (   0.5030587   0.5826183   0.7534292  )
        25        O      tau(  25) = (   0.2868665   0.3546070   0.3159542  )
        26        O      tau(  26) = (   0.3775959   0.3546070   1.5828089  )
        27        O      tau(  27) = (   0.9409297   1.7313575   0.3189922  )
        28        O      tau(  28) = (  -0.2764673   1.7313575   1.5797709  )
        29        O      tau(  29) = (   0.4011696   1.3470552   1.5767328  )
        30        O      tau(  30) = (   0.2632928   1.3470552   0.3220302  )
        31        O      tau(  31) = (   0.7619283   1.2692570   0.3201314  )
        32        O      tau(  32) = (  -0.0974659   1.2692570   1.5786317  )
        33        O      tau(  33) = (   0.4412429   0.8820025   0.3075996  )
        34        O      tau(  34) = (   0.2232195   0.8820025   1.5911635  )
        35        O      tau(  35) = (  -0.1370160   0.4799872   1.5930622  )
        36        O      tau(  36) = (   0.8014784   0.4799872   0.3057009  )
        37        O      tau(  37) = (   0.0045271   0.8729723   0.7519102  )
        38        O      tau(  38) = (   0.6599353   0.8729723   1.1468528  )
        39        O      tau(  39) = (   0.4991915   1.7355254   0.7538090  )
        40        O      tau(  40) = (   0.1652709   1.7355254   1.1449541  )
        41        H      tau(  41) = (   0.0188690   0.8575169   0.5722872  )
        42        H      tau(  42) = (   0.6455934   0.8575169   1.3264759  )
        43        H      tau(  43) = (   0.4947663   0.0220544   0.5745657  )
        44        H      tau(  44) = (   0.1696961   0.0220544   1.3241973  )

     --------------------------------------------
     DFT-D3 Dispersion Correction (3-body terms):
     --------------------------------------------
       Reference C6 values for interpolation: 

         atom   Coordination number   C6
         H          0.912             6.05
         H          0.000            15.18
         O          0.000            31.01
         O          0.993            25.63
         O          1.989            20.74
         Mg         0.000          1366.75
         Mg         0.963           902.54
         Mg         1.950           351.12
         Al         0.000          1081.08
         Al         0.965           875.51
         Al         1.931           513.50
         Al         2.915           307.19
         Si         0.000           635.71
         Si         0.951           540.53
         Si         1.944           466.25
         Si         2.941           443.01
         Si         3.868           299.55
         K          0.000          9967.00
         K          0.977           676.04
         Fe         0.000           982.67
         Fe         1.648           409.99
         Fe         9.138           219.01

       Values used:

         atom   Coordination number  R0_AB[au]  C6      C8
         K         13.715            4.007    676.04 129074.98
         K         13.905            4.007    676.04 129074.98
         Mg        11.909            3.292    351.12  31436.69
         Mg        11.655            3.292    351.12  31436.69
         Mg        11.278            3.292    351.12  31436.69
         Mg        11.523            3.292    351.12  31436.69
         Mg        11.999            3.292    351.12  31436.69
         Fe         8.365            3.252    219.01  20487.87
         Si         7.004            3.583    299.55  21425.58
         Si         7.004            3.583    299.55  21425.58
         Si         6.580            3.583    299.55  21425.58
         Si         6.580            3.583    299.55  21425.58
         Si         6.491            3.583    299.55  21425.58
         Si         6.491            3.583    299.55  21425.58
         Al         7.691            3.789    307.19  29441.29
         Al         7.691            3.789    307.19  29441.29
         O          3.932            2.345     20.74    418.58
         O          3.932            2.345     20.74    418.58
         O          3.931            2.345     20.74    418.58
         O          3.931            2.345     20.74    418.58
         O          3.701            2.345     20.74    418.58
         O          3.701            2.345     20.74    418.58
         O          3.845            2.345     20.74    418.58
         O          3.845            2.345     20.74    418.58
         O          3.193            2.345     20.74    418.58
         O          3.193            2.345     20.74    418.58
         O          3.164            2.345     20.74    418.58
         O          3.164            2.345     20.74    418.58
         O          3.064            2.345     20.74    418.58
         O          3.064            2.345     20.74    418.58
         O          3.067            2.345     20.74    418.58
         O          3.067            2.345     20.74    418.58
         O          3.197            2.345     20.74    418.58
         O          3.197            2.345     20.74    418.58
         O          3.261            2.345     20.74    418.58
         O          3.261            2.345     20.74    418.58
         O          3.871            2.345     20.74    418.58
         O          3.871            2.345     20.74    418.58
         O          4.004            2.345     20.74    418.58
         O          4.004            2.345     20.74    418.58
         H          1.282            2.062      6.07     73.37
         H          1.282            2.062      6.07     73.37
         H          1.305            2.062      6.07     73.34
         H          1.305            2.062      6.07     73.34

         Molecular C6 ( Ry / a.u.^6 ) =    165305.48


   Crystallographic axes

     site n.     atom                  positions (cryst. coord.)
         1        K      tau(   1) = (  0.0000000  0.4934000  0.0000000  )
         2        K      tau(   2) = (  0.5000000  0.0056000  0.0000000  )
         3        Mg     tau(   3) = (  0.0000000  0.0036000  0.5000000  )
         4        Mg     tau(   4) = (  0.0000000  0.3334000  0.5000000  )
         5        Mg     tau(   5) = (  0.0000000  0.6641000  0.5000000  )
         6        Mg     tau(   6) = (  0.5000000  0.8344000  0.5000000  )
         7        Mg     tau(   7) = (  0.5000000  0.1734000  0.5000000  )
         8        Fe     tau(   8) = (  0.5000000  0.4978000  0.5000000  )
         9        Si     tau(   9) = (  0.0827000  0.1652000  0.2230000  )
        10        Si     tau(  10) = (  0.9173000  0.1652000  0.7770000  )
        11        Si     tau(  11) = (  0.9329000  0.8341000  0.7713000  )
        12        Si     tau(  12) = (  0.0671000  0.8341000  0.2287000  )
        13        Si     tau(  13) = (  0.5656000  0.6659000  0.2268000  )
        14        Si     tau(  14) = (  0.4344000  0.6659000  0.7732000  )
        15        Al     tau(  15) = (  0.4168000  0.3323000  0.7755000  )
        16        Al     tau(  16) = (  0.5832000  0.3323000  0.2245000  )
        17        O      tau(  17) = (  0.1266000  0.1633000  0.3853000  )
        18        O      tau(  18) = (  0.8734000  0.1633000  0.6147000  )
        19        O      tau(  19) = (  0.8743000  0.8324000  0.6103000  )
        20        O      tau(  20) = (  0.1257000  0.8324000  0.3897000  )
        21        O      tau(  21) = (  0.6263000  0.6678000  0.3888000  )
        22        O      tau(  22) = (  0.3737000  0.6678000  0.6112000  )
        23        O      tau(  23) = (  0.3638000  0.3355000  0.6032000  )
        24        O      tau(  24) = (  0.6362000  0.3355000  0.3968000  )
        25        O      tau(  25) = (  0.3427000  0.2042000  0.1664000  )
        26        O      tau(  26) = (  0.6573000  0.2042000  0.8336000  )
        27        O      tau(  27) = (  0.9973000  0.9970000  0.1680000  )
        28        O      tau(  28) = (  0.0027000  0.9970000  0.8320000  )
        29        O      tau(  29) = (  0.6798000  0.7757000  0.8304000  )
        30        O      tau(  30) = (  0.3202000  0.7757000  0.1696000  )
        31        O      tau(  31) = (  0.8185000  0.7309000  0.1686000  )
        32        O      tau(  32) = (  0.1815000  0.7309000  0.8314000  )
        33        O      tau(  33) = (  0.4956000  0.5079000  0.1620000  )
        34        O      tau(  34) = (  0.5044000  0.5079000  0.8380000  )
        35        O      tau(  35) = (  0.1445000  0.2764000  0.8390000  )
        36        O      tau(  36) = (  0.8555000  0.2764000  0.1610000  )
        37        O      tau(  37) = (  0.1374000  0.5027000  0.3960000  )
        38        O      tau(  38) = (  0.8626000  0.5027000  0.6040000  )
        39        O      tau(  39) = (  0.6324000  0.9994000  0.3970000  )
        40        O      tau(  40) = (  0.3676000  0.9994000  0.6030000  )
        41        H      tau(  41) = (  0.1200000  0.4938000  0.3014000  )
        42        H      tau(  42) = (  0.8800000  0.4938000  0.6986000  )
        43        H      tau(  43) = (  0.5963000  0.0127000  0.3026000  )
        44        H      tau(  44) = (  0.4037000  0.0127000  0.6974000  )

     number of k points=    20  Gaussian smearing, width (Ry)=  0.0010
                       cart. coord. in units 2pi/alat
        k(    1) = (   0.0000000   0.0000000   0.0000000), wk =   0.0185185
        k(    2) = (   0.0000000   0.0000000   0.1755529), wk =   0.0370370
        k(    3) = (   0.0000000   0.1919496   0.0000000), wk =   0.0370370
        k(    4) = (   0.0000000   0.1919496   0.1755529), wk =   0.0740741
        k(    5) = (   0.1666667   0.0000000   0.0294523), wk =   0.0370370
        k(    6) = (   0.1666667   0.0000000   0.2050052), wk =   0.0370370
        k(    7) = (   0.1666667   0.0000000  -0.1461006), wk =   0.0370370
        k(    8) = (   0.1666667   0.1919496   0.0294523), wk =   0.0740741
        k(    9) = (   0.1666667   0.1919496   0.2050052), wk =   0.0740741
        k(   10) = (   0.1666667   0.1919496  -0.1461006), wk =   0.0740741
        k(   11) = (   0.3333333   0.0000000   0.0589046), wk =   0.0370370
        k(   12) = (   0.3333333   0.0000000   0.2344575), wk =   0.0370370
        k(   13) = (   0.3333333   0.0000000  -0.1166483), wk =   0.0370370
        k(   14) = (   0.3333333   0.1919496   0.0589046), wk =   0.0740741
        k(   15) = (   0.3333333   0.1919496   0.2344575), wk =   0.0740741
        k(   16) = (   0.3333333   0.1919496  -0.1166483), wk =   0.0740741
        k(   17) = (  -0.5000000   0.0000000  -0.0883569), wk =   0.0185185
        k(   18) = (  -0.5000000   0.0000000   0.0871960), wk =   0.0370370
        k(   19) = (  -0.5000000   0.1919496  -0.0883569), wk =   0.0370370
        k(   20) = (  -0.5000000   0.1919496   0.0871960), wk =   0.0740741

                       cryst. coord.
        k(    1) = (   0.0000000   0.0000000   0.0000000), wk =   0.0185185
        k(    2) = (   0.0000000   0.0000000   0.3333333), wk =   0.0370370
        k(    3) = (   0.0000000   0.3333333   0.0000000), wk =   0.0370370
        k(    4) = (   0.0000000   0.3333333   0.3333333), wk =   0.0740741
        k(    5) = (   0.1666667   0.0000000   0.0000000), wk =   0.0370370
        k(    6) = (   0.1666667   0.0000000   0.3333333), wk =   0.0370370
        k(    7) = (   0.1666667   0.0000000  -0.3333333), wk =   0.0370370
        k(    8) = (   0.1666667   0.3333333   0.0000000), wk =   0.0740741
        k(    9) = (   0.1666667   0.3333333   0.3333333), wk =   0.0740741
        k(   10) = (   0.1666667   0.3333333  -0.3333333), wk =   0.0740741
        k(   11) = (   0.3333333   0.0000000   0.0000000), wk =   0.0370370
        k(   12) = (   0.3333333   0.0000000   0.3333333), wk =   0.0370370
        k(   13) = (   0.3333333   0.0000000  -0.3333333), wk =   0.0370370
        k(   14) = (   0.3333333   0.3333333   0.0000000), wk =   0.0740741
        k(   15) = (   0.3333333   0.3333333   0.3333333), wk =   0.0740741
        k(   16) = (   0.3333333   0.3333333  -0.3333333), wk =   0.0740741
        k(   17) = (  -0.5000000   0.0000000   0.0000000), wk =   0.0185185
        k(   18) = (  -0.5000000   0.0000000   0.3333333), wk =   0.0370370
        k(   19) = (  -0.5000000   0.3333333   0.0000000), wk =   0.0370370
        k(   20) = (  -0.5000000   0.3333333   0.3333333), wk =   0.0740741

     Dense  grid:   583539 G-vectors     FFT dimensions: (  72, 125, 135)

     Smooth grid:   206401 G-vectors     FFT dimensions: (  50,  90,  96)

     Dynamical RAM for                 wfc:      15.44 MB

     Dynamical RAM for     wfc (w. buffer):     633.23 MB

     Dynamical RAM for           str. fact:      15.58 MB

     Dynamical RAM for           local pot:       0.00 MB

     Dynamical RAM for          nlocal pot:      43.09 MB

     Dynamical RAM for                qrad:      12.30 MB

     Dynamical RAM for          rho,v,vnew:      27.36 MB

     Dynamical RAM for               rhoin:       9.12 MB

     Dynamical RAM for            rho*nmix:      71.23 MB

     Dynamical RAM for           G-vectors:       8.74 MB

     Dynamical RAM for          h,s,v(r/c):       1.13 MB

     Dynamical RAM for          <psi|beta>:       1.05 MB

     Dynamical RAM for                 psi:      30.89 MB

     Dynamical RAM for                hpsi:      30.89 MB

     Dynamical RAM for                spsi:      30.89 MB

     Dynamical RAM for      wfcinit/wfcrot:      36.77 MB

     Dynamical RAM for           addusdens:     469.69 MB

     Dynamical RAM for          addusforce:     572.27 MB

     Dynamical RAM for         addusstress:     450.77 MB

     Estimated static dynamical RAM per process >     781.24 MB

     Estimated max dynamical RAM per process >       1.39 GB

     Estimated total dynamical RAM >       5.57 GB

     Check: negative core charge=   -0.000004
     Generating pointlists ...
     new r_m :   0.1350 (alat units)  1.3483 (a.u.) for type    1
     new r_m :   0.1579 (alat units)  1.5768 (a.u.) for type    2
     new r_m :   0.0746 (alat units)  0.7448 (a.u.) for type    3
     new r_m :   0.2120 (alat units)  2.1178 (a.u.) for type    4
     new r_m :   0.1580 (alat units)  1.5784 (a.u.) for type    5
     new r_m :   0.0746 (alat units)  0.7448 (a.u.) for type    6
     new r_m :   0.1256 (alat units)  1.2548 (a.u.) for type    7

     Initial potential from superposition of free atoms

     starting charge     261.9493, renormalised to     262.0000
     Starting wfcs are  183 randomized atomic wfcs
     Checking if some PAW data can be deallocated... 
       PAW data deallocated on    3 nodes for type:  1
       PAW data deallocated on    3 nodes for type:  2
       PAW data deallocated on    3 nodes for type:  3
       PAW data deallocated on    3 nodes for type:  4
       PAW data deallocated on    3 nodes for type:  5
       PAW data deallocated on    1 nodes for type:  6
       PAW data deallocated on    2 nodes for type:  7

     total cpu time spent up to now is      441.0 secs

     Self-consistent Calculation

     iteration #  1     ecut=    60.00 Ry     beta= 0.70
     Davidson diagonalization with overlap

---- Real-time Memory Report at c_bands before calling an iterative solver
           845 MiB given to the printing process from OS
             0 MiB allocation reported by mallinfo(arena+hblkhd)
          2756 MiB available memory on the node where the printing process lives
------------------
     ethr =  1.00E-02,  avg # of iterations =  6.0

     total cpu time spent up to now is     1902.6 secs

     total energy              =   -2623.69913489 Ry
     estimated scf accuracy    <      12.44848763 Ry

     total magnetization       =     4.00 Bohr mag/cell
     absolute magnetization    =     4.04 Bohr mag/cell

     iteration #  2     ecut=    60.00 Ry     beta= 0.70
     Davidson diagonalization with overlap

---- Real-time Memory Report at c_bands before calling an iterative solver
          1285 MiB given to the printing process from OS
             0 MiB allocation reported by mallinfo(arena+hblkhd)
          2610 MiB available memory on the node where the printing process lives
------------------
     ethr =  4.75E-03,  avg # of iterations =  5.1

     negative rho (up, down):  0.000E+00 3.766E-05

     total cpu time spent up to now is     4142.8 secs

     total energy              =   -2629.11841526 Ry
     estimated scf accuracy    <      11.65237637 Ry

     total magnetization       =     4.00 Bohr mag/cell
     absolute magnetization    =     4.22 Bohr mag/cell

     iteration #  3     ecut=    60.00 Ry     beta= 0.70
     Davidson diagonalization with overlap

---- Real-time Memory Report at c_bands before calling an iterative solver
          1289 MiB given to the printing process from OS
             0 MiB allocation reported by mallinfo(arena+hblkhd)
          2762 MiB available memory on the node where the printing process lives
------------------
     ethr =  4.45E-03,  avg # of iterations =  2.0

     negative rho (up, down):  0.000E+00 2.630E-04

     total cpu time spent up to now is     5262.5 secs

     total energy              =   -2630.00796816 Ry
     estimated scf accuracy    <       2.23091830 Ry

     total magnetization       =     4.86 Bohr mag/cell
     absolute magnetization    =     5.17 Bohr mag/cell

     iteration #  4     ecut=    60.00 Ry     beta= 0.70
     Davidson diagonalization with overlap

---- Real-time Memory Report at c_bands before calling an iterative solver
          1292 MiB given to the printing process from OS
             0 MiB allocation reported by mallinfo(arena+hblkhd)
          2783 MiB available memory on the node where the printing process lives
------------------
     ethr =  8.51E-04,  avg # of iterations =  4.3

     negative rho (up, down):  0.000E+00 3.034E-04

     total cpu time spent up to now is     7074.1 secs

     total energy              =   -2631.10883168 Ry
     estimated scf accuracy    <       0.41392957 Ry

     total magnetization       =     4.00 Bohr mag/cell
     absolute magnetization    =     4.04 Bohr mag/cell

     iteration #  5     ecut=    60.00 Ry     beta= 0.70
     Davidson diagonalization with overlap

---- Real-time Memory Report at c_bands before calling an iterative solver
          1295 MiB given to the printing process from OS
             0 MiB allocation reported by mallinfo(arena+hblkhd)
          2711 MiB available memory on the node where the printing process lives
------------------
     c_bands:  1 eigenvalues not converged
     c_bands:  1 eigenvalues not converged
     c_bands:  1 eigenvalues not converged
     c_bands:  1 eigenvalues not converged
     ethr =  1.58E-04,  avg # of iterations = 13.1

     negative rho (up, down):  0.000E+00 3.881E-04

     total cpu time spent up to now is     8871.3 secs

     total energy              =   -2631.21243588 Ry
     estimated scf accuracy    <       0.09364740 Ry

     total magnetization       =     4.00 Bohr mag/cell
     absolute magnetization    =     4.08 Bohr mag/cell

     iteration #  6     ecut=    60.00 Ry     beta= 0.70
     Davidson diagonalization with overlap

---- Real-time Memory Report at c_bands before calling an iterative solver
          1299 MiB given to the printing process from OS
             0 MiB allocation reported by mallinfo(arena+hblkhd)
          2677 MiB available memory on the node where the printing process lives
------------------
     c_bands:  1 eigenvalues not converged
     c_bands:  1 eigenvalues not converged
     c_bands:  2 eigenvalues not converged
     c_bands:  2 eigenvalues not converged
     c_bands:  1 eigenvalues not converged
     c_bands:  2 eigenvalues not converged
     c_bands:  1 eigenvalues not converged
     c_bands:  1 eigenvalues not converged
     c_bands:  2 eigenvalues not converged
     c_bands:  1 eigenvalues not converged
     c_bands:  2 eigenvalues not converged
     c_bands:  1 eigenvalues not converged
     c_bands:  1 eigenvalues not converged
     c_bands:  1 eigenvalues not converged
     c_bands:  2 eigenvalues not converged
     c_bands:  3 eigenvalues not converged
     c_bands:  1 eigenvalues not converged
     c_bands:  1 eigenvalues not converged
     c_bands:  3 eigenvalues not converged
     c_bands:  2 eigenvalues not converged
     ethr =  3.57E-05,  avg # of iterations = 15.0

     negative rho (up, down):  0.000E+00 3.452E-04

     total cpu time spent up to now is    10791.2 secs

     total energy              =   -2631.22272833 Ry
     estimated scf accuracy    <       0.07397033 Ry

     total magnetization       =     4.00 Bohr mag/cell
     absolute magnetization    =     4.09 Bohr mag/cell

     iteration #  7     ecut=    60.00 Ry     beta= 0.70
     Davidson diagonalization with overlap

---- Real-time Memory Report at c_bands before calling an iterative solver
          1302 MiB given to the printing process from OS
             0 MiB allocation reported by mallinfo(arena+hblkhd)
          2475 MiB available memory on the node where the printing process lives
------------------
     c_bands:  1 eigenvalues not converged
     c_bands:  2 eigenvalues not converged
     c_bands:  1 eigenvalues not converged
     c_bands:  2 eigenvalues not converged
     ethr =  2.82E-05,  avg # of iterations =  4.3

     negative rho (up, down):  0.000E+00 3.076E-04

     total cpu time spent up to now is    11952.1 secs

     total energy              =   -2631.21679556 Ry
     estimated scf accuracy    <       0.03373439 Ry

     total magnetization       =     4.00 Bohr mag/cell
     absolute magnetization    =     4.08 Bohr mag/cell

     iteration #  8     ecut=    60.00 Ry     beta= 0.70
     Davidson diagonalization with overlap

---- Real-time Memory Report at c_bands before calling an iterative solver
          1306 MiB given to the printing process from OS
             0 MiB allocation reported by mallinfo(arena+hblkhd)
          2687 MiB available memory on the node where the printing process lives
------------------
     c_bands:  1 eigenvalues not converged
     c_bands:  2 eigenvalues not converged
     c_bands:  2 eigenvalues not converged
     c_bands:  1 eigenvalues not converged
     c_bands:  1 eigenvalues not converged
     c_bands:  1 eigenvalues not converged
     c_bands:  1 eigenvalues not converged
     c_bands:  2 eigenvalues not converged
     c_bands:  1 eigenvalues not converged
     c_bands:  1 eigenvalues not converged
     c_bands:  1 eigenvalues not converged
     ethr =  1.29E-05,  avg # of iterations = 13.9

     negative rho (up, down):  0.000E+00 2.853E-04

     total cpu time spent up to now is    13388.1 secs

     total energy              =   -2631.22103454 Ry
     estimated scf accuracy    <       0.00726139 Ry

     total magnetization       =     4.00 Bohr mag/cell
     absolute magnetization    =     4.07 Bohr mag/cell

     iteration #  9     ecut=    60.00 Ry     beta= 0.70
     Davidson diagonalization with overlap

---- Real-time Memory Report at c_bands before calling an iterative solver
          1309 MiB given to the printing process from OS
             0 MiB allocation reported by mallinfo(arena+hblkhd)
          2288 MiB available memory on the node where the printing process lives
------------------
     c_bands:  1 eigenvalues not converged
     c_bands:  1 eigenvalues not converged
     c_bands:  1 eigenvalues not converged
     c_bands:  1 eigenvalues not converged
     c_bands:  1 eigenvalues not converged
     c_bands:  4 eigenvalues not converged
     c_bands:  1 eigenvalues not converged
     c_bands:  1 eigenvalues not converged
     c_bands:  2 eigenvalues not converged
     c_bands:  2 eigenvalues not converged
     c_bands:  1 eigenvalues not converged
     ethr =  2.77E-06,  avg # of iterations = 15.3

     negative rho (up, down):  0.000E+00 2.634E-04

     total cpu time spent up to now is    15430.1 secs

     total energy              =   -2631.22371109 Ry
     estimated scf accuracy    <       0.00123323 Ry

     total magnetization       =     4.00 Bohr mag/cell
     absolute magnetization    =     4.07 Bohr mag/cell

     iteration # 10     ecut=    60.00 Ry     beta= 0.70
     Davidson diagonalization with overlap

---- Real-time Memory Report at c_bands before calling an iterative solver
          1312 MiB given to the printing process from OS
             0 MiB allocation reported by mallinfo(arena+hblkhd)
          2870 MiB available memory on the node where the printing process lives
------------------
     c_bands:  1 eigenvalues not converged
     c_bands:  1 eigenvalues not converged
     c_bands:  2 eigenvalues not converged
     c_bands:  1 eigenvalues not converged
     c_bands:  1 eigenvalues not converged
     ethr =  4.71E-07,  avg # of iterations =  8.5

     negative rho (up, down):  0.000E+00 2.603E-04

     total cpu time spent up to now is    17430.6 secs

     total energy              =   -2631.22457165 Ry
     estimated scf accuracy    <       0.00085285 Ry

     total magnetization       =     4.00 Bohr mag/cell
     absolute magnetization    =     4.06 Bohr mag/cell

     iteration # 11     ecut=    60.00 Ry     beta= 0.70
     Davidson diagonalization with overlap

---- Real-time Memory Report at c_bands before calling an iterative solver
          1312 MiB given to the printing process from OS
             0 MiB allocation reported by mallinfo(arena+hblkhd)
          2708 MiB available memory on the node where the printing process lives
------------------
     c_bands:  2 eigenvalues not converged
     c_bands:  1 eigenvalues not converged
     ethr =  3.26E-07,  avg # of iterations =  3.0

     negative rho (up, down):  0.000E+00 2.637E-04

     total cpu time spent up to now is    18623.4 secs

     total energy              =   -2631.22471088 Ry
     estimated scf accuracy    <       0.00049384 Ry

     total magnetization       =     4.00 Bohr mag/cell
     absolute magnetization    =     4.06 Bohr mag/cell

     iteration # 12     ecut=    60.00 Ry     beta= 0.70
     Davidson diagonalization with overlap

---- Real-time Memory Report at c_bands before calling an iterative solver
          1312 MiB given to the printing process from OS
             0 MiB allocation reported by mallinfo(arena+hblkhd)
          3399 MiB available memory on the node where the printing process lives
------------------
     ethr =  1.88E-07,  avg # of iterations =  4.4

     negative rho (up, down):  0.000E+00 2.612E-04

     total cpu time spent up to now is    20284.1 secs

     total energy              =   -2631.22507132 Ry
     estimated scf accuracy    <       0.00060865 Ry

     total magnetization       =     4.00 Bohr mag/cell
     absolute magnetization    =     4.05 Bohr mag/cell

     iteration # 13     ecut=    60.00 Ry     beta= 0.70
     Davidson diagonalization with overlap

---- Real-time Memory Report at c_bands before calling an iterative solver
          1312 MiB given to the printing process from OS
             0 MiB allocation reported by mallinfo(arena+hblkhd)
          3654 MiB available memory on the node where the printing process lives
------------------
     ethr =  1.88E-07,  avg # of iterations =  2.0

     negative rho (up, down):  0.000E+00 2.652E-04

     total cpu time spent up to now is    21427.2 secs

     total energy              =   -2631.22508677 Ry
     estimated scf accuracy    <       0.00051296 Ry

     total magnetization       =     4.00 Bohr mag/cell
     absolute magnetization    =     4.05 Bohr mag/cell

     iteration # 14     ecut=    60.00 Ry     beta= 0.70
     Davidson diagonalization with overlap

---- Real-time Memory Report at c_bands before calling an iterative solver
          1312 MiB given to the printing process from OS
             0 MiB allocation reported by mallinfo(arena+hblkhd)
          3396 MiB available memory on the node where the printing process lives
------------------
     ethr =  1.88E-07,  avg # of iterations =  4.2

     negative rho (up, down):  0.000E+00 2.812E-04

     total cpu time spent up to now is    22773.9 secs

     total energy              =   -2631.22305213 Ry
     estimated scf accuracy    <       0.00030675 Ry

     total magnetization       =     4.00 Bohr mag/cell
     absolute magnetization    =     4.05 Bohr mag/cell

     iteration # 15     ecut=    60.00 Ry     beta= 0.70
     Davidson diagonalization with overlap

---- Real-time Memory Report at c_bands before calling an iterative solver
          1312 MiB given to the printing process from OS
             0 MiB allocation reported by mallinfo(arena+hblkhd)
          3457 MiB available memory on the node where the printing process lives
------------------
     c_bands:  1 eigenvalues not converged
     c_bands:  1 eigenvalues not converged
     ethr =  1.17E-07,  avg # of iterations =  7.6

     negative rho (up, down):  0.000E+00 2.780E-04

     total cpu time spent up to now is    25591.2 secs

     total energy              =   -2631.22540391 Ry
     estimated scf accuracy    <       0.00323108 Ry

     total magnetization       =     4.00 Bohr mag/cell
     absolute magnetization    =     4.05 Bohr mag/cell

     iteration # 16     ecut=    60.00 Ry     beta= 0.70
     Davidson diagonalization with overlap

---- Real-time Memory Report at c_bands before calling an iterative solver
          1312 MiB given to the printing process from OS
             0 MiB allocation reported by mallinfo(arena+hblkhd)
          3367 MiB available memory on the node where the printing process lives
------------------
     ethr =  1.17E-07,  avg # of iterations =  5.0

     negative rho (up, down):  0.000E+00 2.828E-04

     total cpu time spent up to now is    27716.0 secs

     total energy              =   -2631.22580504 Ry
     estimated scf accuracy    <       0.00034732 Ry

     total magnetization       =     4.00 Bohr mag/cell
     absolute magnetization    =     4.05 Bohr mag/cell

     iteration # 17     ecut=    60.00 Ry     beta= 0.70
     Davidson diagonalization with overlap

---- Real-time Memory Report at c_bands before calling an iterative solver
          1312 MiB given to the printing process from OS
             0 MiB allocation reported by mallinfo(arena+hblkhd)
          3408 MiB available memory on the node where the printing process lives
------------------
     ethr =  1.17E-07,  avg # of iterations =  3.5

     negative rho (up, down):  0.000E+00 2.760E-04

     total cpu time spent up to now is    28914.9 secs

     total energy              =   -2631.22505529 Ry
     estimated scf accuracy    <       0.00047675 Ry

     total magnetization       =     4.00 Bohr mag/cell
     absolute magnetization    =     4.05 Bohr mag/cell

     iteration # 18     ecut=    60.00 Ry     beta= 0.70
     Davidson diagonalization with overlap

---- Real-time Memory Report at c_bands before calling an iterative solver
          1312 MiB given to the printing process from OS
             0 MiB allocation reported by mallinfo(arena+hblkhd)
          3415 MiB available memory on the node where the printing process lives
------------------
     ethr =  1.17E-07,  avg # of iterations =  5.0

     negative rho (up, down):  0.000E+00 2.848E-04

     total cpu time spent up to now is    30320.7 secs

     total energy              =   -2631.22510679 Ry
     estimated scf accuracy    <       0.00041622 Ry

     total magnetization       =     4.00 Bohr mag/cell
     absolute magnetization    =     4.05 Bohr mag/cell

     iteration # 19     ecut=    60.00 Ry     beta= 0.70
     Davidson diagonalization with overlap

---- Real-time Memory Report at c_bands before calling an iterative solver
          1312 MiB given to the printing process from OS
             0 MiB allocation reported by mallinfo(arena+hblkhd)
          3380 MiB available memory on the node where the printing process lives
------------------
     ethr =  1.17E-07,  avg # of iterations =  5.4

     negative rho (up, down):  0.000E+00 2.869E-04

     total cpu time spent up to now is    31713.4 secs

     total energy              =   -2631.22596941 Ry
     estimated scf accuracy    <       0.00001755 Ry

     total magnetization       =     4.00 Bohr mag/cell
     absolute magnetization    =     4.05 Bohr mag/cell

     iteration # 20     ecut=    60.00 Ry     beta= 0.70
     Davidson diagonalization with overlap

---- Real-time Memory Report at c_bands before calling an iterative solver
          1312 MiB given to the printing process from OS
             0 MiB allocation reported by mallinfo(arena+hblkhd)
          3363 MiB available memory on the node where the printing process lives
------------------
     ethr =  6.70E-09,  avg # of iterations =  7.7

     negative rho (up, down):  0.000E+00 2.878E-04

     total cpu time spent up to now is    34597.2 secs

     total energy              =   -2631.22602721 Ry
     estimated scf accuracy    <       0.00005854 Ry

     total magnetization       =     4.00 Bohr mag/cell
     absolute magnetization    =     4.05 Bohr mag/cell

     iteration # 21     ecut=    60.00 Ry     beta= 0.70
     Davidson diagonalization with overlap

---- Real-time Memory Report at c_bands before calling an iterative solver
          1312 MiB given to the printing process from OS
             0 MiB allocation reported by mallinfo(arena+hblkhd)
          3421 MiB available memory on the node where the printing process lives
------------------
     ethr =  6.70E-09,  avg # of iterations =  4.9

     negative rho (up, down):  0.000E+00 2.860E-04

     total cpu time spent up to now is    35887.8 secs

     total energy              =   -2631.22602360 Ry
     estimated scf accuracy    <       0.00004454 Ry

     total magnetization       =     4.00 Bohr mag/cell
     absolute magnetization    =     4.05 Bohr mag/cell

     iteration # 22     ecut=    60.00 Ry     beta= 0.70
     Davidson diagonalization with overlap

---- Real-time Memory Report at c_bands before calling an iterative solver
          1312 MiB given to the printing process from OS
             0 MiB allocation reported by mallinfo(arena+hblkhd)
          3440 MiB available memory on the node where the printing process lives
------------------
     ethr =  6.70E-09,  avg # of iterations =  5.1

     negative rho (up, down):  0.000E+00 2.857E-04

     total cpu time spent up to now is    37366.1 secs

     total energy              =   -2631.22603958 Ry
     estimated scf accuracy    <       0.00000387 Ry

     total magnetization       =     4.00 Bohr mag/cell
     absolute magnetization    =     4.05 Bohr mag/cell

     iteration # 23     ecut=    60.00 Ry     beta= 0.70
     Davidson diagonalization with overlap

---- Real-time Memory Report at c_bands before calling an iterative solver
          1312 MiB given to the printing process from OS
             0 MiB allocation reported by mallinfo(arena+hblkhd)
          3574 MiB available memory on the node where the printing process lives
------------------
     ethr =  1.48E-09,  avg # of iterations =  6.0

     negative rho (up, down):  0.000E+00 2.860E-04

     total cpu time spent up to now is    39704.3 secs

     total energy              =   -2631.22604274 Ry
     estimated scf accuracy    <       0.00000796 Ry

     total magnetization       =     4.00 Bohr mag/cell
     absolute magnetization    =     4.05 Bohr mag/cell

     iteration # 24     ecut=    60.00 Ry     beta= 0.70
     Davidson diagonalization with overlap

---- Real-time Memory Report at c_bands before calling an iterative solver
          1312 MiB given to the printing process from OS
             0 MiB allocation reported by mallinfo(arena+hblkhd)
          3530 MiB available memory on the node where the printing process lives
------------------
     ethr =  1.48E-09,  avg # of iterations =  2.0

     negative rho (up, down):  0.000E+00 2.860E-04

     total cpu time spent up to now is    40819.1 secs

     total energy              =   -2631.22604208 Ry
     estimated scf accuracy    <       0.00000267 Ry

     total magnetization       =     4.00 Bohr mag/cell
     absolute magnetization    =     4.05 Bohr mag/cell

     iteration # 25     ecut=    60.00 Ry     beta= 0.70
     Davidson diagonalization with overlap

---- Real-time Memory Report at c_bands before calling an iterative solver
          1312 MiB given to the printing process from OS
             0 MiB allocation reported by mallinfo(arena+hblkhd)
          2916 MiB available memory on the node where the printing process lives
------------------
     ethr =  1.02E-09,  avg # of iterations =  4.9

     negative rho (up, down):  0.000E+00 2.860E-04

     Magnetic moment per site  (integrated on atomic sphere of radius R)
     atom   1 (R=0.212)  charge=  7.4895  magn=  0.0001
     atom   2 (R=0.212)  charge=  7.4925  magn=  0.0000
     atom   3 (R=0.158)  charge=  8.1113  magn= -0.0000
     atom   4 (R=0.158)  charge=  8.1114  magn=  0.0006
     atom   5 (R=0.158)  charge=  8.1078  magn=  0.0003
     atom   6 (R=0.158)  charge=  8.1082  magn=  0.0002
     atom   7 (R=0.158)  charge=  8.1122  magn=  0.0007
     atom   8 (R=0.158)  charge= 13.3112  magn=  3.2753
     atom   9 (R=0.126)  charge=  0.5429  magn=  0.0000
     atom  10 (R=0.126)  charge=  0.5429  magn=  0.0000
     atom  11 (R=0.126)  charge=  0.5360  magn=  0.0000
     atom  12 (R=0.126)  charge=  0.5360  magn=  0.0000
     atom  13 (R=0.126)  charge=  0.5347  magn=  0.0015
     atom  14 (R=0.126)  charge=  0.5347  magn=  0.0015
     atom  15 (R=0.135)  charge=  0.3395  magn=  0.0013
     atom  16 (R=0.135)  charge=  0.3395  magn=  0.0013
     atom  17 (R=0.075)  charge=  1.8969  magn=  0.0004
     atom  18 (R=0.075)  charge=  1.8969  magn=  0.0004
     atom  19 (R=0.075)  charge=  1.8983  magn=  0.0002
     atom  20 (R=0.075)  charge=  1.8983  magn=  0.0002
     atom  21 (R=0.075)  charge=  1.8951  magn=  0.0166
     atom  22 (R=0.075)  charge=  1.8951  magn=  0.0166
     atom  23 (R=0.075)  charge=  1.8913  magn=  0.0262
     atom  24 (R=0.075)  charge=  1.8913  magn=  0.0262
     atom  25 (R=0.075)  charge=  1.8979  magn=  0.0004
     atom  26 (R=0.075)  charge=  1.8979  magn=  0.0004
     atom  27 (R=0.075)  charge=  1.9038  magn=  0.0000
     atom  28 (R=0.075)  charge=  1.9038  magn=  0.0000
     atom  29 (R=0.075)  charge=  1.9024  magn=  0.0005
     atom  30 (R=0.075)  charge=  1.9024  magn=  0.0005
     atom  31 (R=0.075)  charge=  1.9031  magn=  0.0012
     atom  32 (R=0.075)  charge=  1.9031  magn=  0.0012
     atom  33 (R=0.075)  charge=  1.8971  magn=  0.0001
     atom  34 (R=0.075)  charge=  1.8971  magn=  0.0001
     atom  35 (R=0.075)  charge=  1.8964  magn=  0.0009
     atom  36 (R=0.075)  charge=  1.8964  magn=  0.0009
     atom  37 (R=0.075)  charge=  1.8974  magn=  0.0212
     atom  38 (R=0.075)  charge=  1.8974  magn=  0.0212
     atom  39 (R=0.075)  charge=  1.8984  magn=  0.0007
     atom  40 (R=0.075)  charge=  1.8984  magn=  0.0007
     atom  41 (R=0.075)  charge=  0.4006  magn=  0.0000
     atom  42 (R=0.075)  charge=  0.4006  magn=  0.0000
     atom  43 (R=0.075)  charge=  0.3994  magn= -0.0000
     atom  44 (R=0.075)  charge=  0.3994  magn= -0.0000

     total cpu time spent up to now is    42212.3 secs

     End of self-consistent calculation

 ------ SPIN UP ------------


          k = 0.0000 0.0000 0.0000 ( 25799 PWs)   bands (ev):

   -80.6378 -67.4778 -67.4506 -67.3195 -66.9022 -66.8795 -47.6852 -46.4892
   -45.9442 -34.2497 -34.2267 -34.2216 -34.2071 -34.2050 -34.1918 -34.0814
   -34.0809 -34.0543 -33.6768 -33.6528 -33.6512 -33.6411 -33.6410 -33.5989
   -22.9537 -22.9005 -15.0293 -14.9749 -14.0849 -14.0395 -13.5587 -13.5361
   -13.3808 -13.2389 -13.1874 -13.0643 -12.8226 -12.8054 -12.8009 -12.7704
   -12.6875 -12.5764 -12.4701 -12.4048 -12.2150 -12.1915 -12.1413 -12.0035
   -11.1497 -10.8980  -6.5217  -6.4652  -6.4500  -6.4390  -6.3851  -6.3793
    -4.2146  -4.1564  -2.3559  -2.2532  -1.7841  -1.3484  -1.1027  -1.0887
    -1.0356  -0.9416  -0.6240  -0.4960  -0.4274  -0.2865  -0.2865  -0.0962
     0.0206   0.1369   0.2605   0.5529   0.6540   0.6690   0.7417   0.9370
     0.9411   1.1633   1.2478   1.3309   1.4345   1.5434   1.5746   1.7083
     1.8332   1.8531   1.9935   2.0876   2.1699   2.1982   2.2068   2.3465
     2.4160   2.4479   2.5627   2.7171   2.7628   2.7830   2.8330   2.8522
     2.9437   3.0628   3.0855   3.0954   3.1744   3.1934   3.3322   3.3778
     3.4258   3.4680   3.5118   3.5210   3.6196   3.7492   3.8540   3.8878
     3.9136   3.9856   3.9942   4.0388   4.0487   4.2987   4.4554   4.5587
     5.7709   5.9368   7.0146   7.5416   7.9183   9.2391  10.7493  11.4037
    11.7044  12.0466  12.2463  12.3564  12.6609  12.7723  13.1143  13.1743
    13.2221  13.3974  13.4214  13.6319  13.7262  13.7313  13.9072  13.9175
    13.9415  14.1842  14.3166  14.3451  14.4311

     occupation numbers 
     1.0000   1.0000   1.0000   1.0000   1.0000   1.0000   1.0000   1.0000
     1.0000   1.0000   1.0000   1.0000   1.0000   1.0000   1.0000   1.0000
     1.0000   1.0000   1.0000   1.0000   1.0000   1.0000   1.0000   1.0000
     1.0000   1.0000   1.0000   1.0000   1.0000   1.0000   1.0000   1.0000
     1.0000   1.0000   1.0000   1.0000   1.0000   1.0000   1.0000   1.0000
     1.0000   1.0000   1.0000   1.0000   1.0000   1.0000   1.0000   1.0000
     1.0000   1.0000   1.0000   1.0000   1.0000   1.0000   1.0000   1.0000
     1.0000   1.0000   1.0000   1.0000   1.0000   1.0000   1.0000   1.0000
     1.0000   1.0000   1.0000   1.0000   1.0000   1.0000   1.0000   1.0000
     1.0000   1.0000   1.0000   1.0000   1.0000   1.0000   1.0000   1.0000
     1.0000   1.0000   1.0000   1.0000   1.0000   1.0000   1.0000   1.0000
     1.0000   1.0000   1.0000   1.0000   1.0000   1.0000   1.0000   1.0000
     1.0000   1.0000   1.0000   1.0000   1.0000   1.0000   1.0000   1.0000
     1.0000   1.0000   1.0000   1.0000   1.0000   1.0000   1.0000   1.0000
     1.0000   1.0000   1.0000   1.0000   1.0000   1.0000   1.0000   1.0000
     1.0000   1.0000   1.0000   1.0000   1.0000   1.0000   1.0000   1.0000
     1.0000   1.0000   1.0000   1.0000   1.0000   0.0000   0.0000   0.0000
     0.0000   0.0000   0.0000   0.0000   0.0000   0.0000   0.0000   0.0000
     0.0000   0.0000   0.0000   0.0000   0.0000   0.0000   0.0000   0.0000
     0.0000   0.0000   0.0000   0.0000   0.0000

          k = 0.0000 0.0000 0.1756 ( 25812 PWs)   bands (ev):

   -80.6378 -67.4778 -67.4506 -67.3195 -66.9022 -66.8795 -47.6852 -46.4892
   -45.9442 -34.2497 -34.2267 -34.2216 -34.2071 -34.2050 -34.1918 -34.0814
   -34.0809 -34.0543 -33.6768 -33.6528 -33.6512 -33.6411 -33.6410 -33.5989
   -22.9537 -22.9005 -15.0164 -14.9887 -14.0740 -14.0509 -13.5592 -13.5355
   -13.3708 -13.2590 -13.1791 -13.0593 -12.8236 -12.8060 -12.7953 -12.7803
   -12.6801 -12.5804 -12.4620 -12.4126 -12.2192 -12.1856 -12.1362 -12.0100
   -11.1494 -10.8988  -6.5217  -6.4652  -6.4500  -6.4389  -6.3850  -6.3793
    -4.2104  -4.1611  -2.3324  -2.2810  -1.7527  -1.3376  -1.1158  -1.0655
    -1.0319  -0.9649  -0.5953  -0.5058  -0.4679  -0.2960  -0.2640  -0.1878
     0.0311   0.1791   0.2231   0.4960   0.6434   0.6509   0.7577   0.9552
     0.9947   1.1839   1.2269   1.3214   1.4899   1.5177   1.6182   1.7277
     1.8488   1.8680   2.0305   2.1452   2.1851   2.1894   2.2455   2.3514
     2.3636   2.4504   2.5780   2.7018   2.7130   2.7430   2.7876   2.8590
     2.8931   2.9854   3.0632   3.1720   3.1800   3.2181   3.3588   3.3620
     3.4039   3.4622   3.4774   3.6031   3.6447   3.7930   3.8079   3.8572
     3.9158   3.9607   3.9813   4.0244   4.0279   4.3480   4.4509   4.5619
     5.7707   5.9359   7.0159   7.5320   7.9225   9.5490  10.2771  11.4675
    11.7532  11.9203  12.2606  12.3089  12.7888  12.9987  13.0753  13.1853
    13.3250  13.3702  13.4490  13.5739  13.6066  13.7879  13.8757  13.8980
    14.0320  14.1318  14.2351  14.3658  14.3874

     occupation numbers 
     1.0000   1.0000   1.0000   1.0000   1.0000   1.0000   1.0000   1.0000
     1.0000   1.0000   1.0000   1.0000   1.0000   1.0000   1.0000   1.0000
     1.0000   1.0000   1.0000   1.0000   1.0000   1.0000   1.0000   1.0000
     1.0000   1.0000   1.0000   1.0000   1.0000   1.0000   1.0000   1.0000
     1.0000   1.0000   1.0000   1.0000   1.0000   1.0000   1.0000   1.0000
     1.0000   1.0000   1.0000   1.0000   1.0000   1.0000   1.0000   1.0000
     1.0000   1.0000   1.0000   1.0000   1.0000   1.0000   1.0000   1.0000
     1.0000   1.0000   1.0000   1.0000   1.0000   1.0000   1.0000   1.0000
     1.0000   1.0000   1.0000   1.0000   1.0000   1.0000   1.0000   1.0000
     1.0000   1.0000   1.0000   1.0000   1.0000   1.0000   1.0000   1.0000
     1.0000   1.0000   1.0000   1.0000   1.0000   1.0000   1.0000   1.0000
     1.0000   1.0000   1.0000   1.0000   1.0000   1.0000   1.0000   1.0000
     1.0000   1.0000   1.0000   1.0000   1.0000   1.0000   1.0000   1.0000
     1.0000   1.0000   1.0000   1.0000   1.0000   1.0000   1.0000   1.0000
     1.0000   1.0000   1.0000   1.0000   1.0000   1.0000   1.0000   1.0000
     1.0000   1.0000   1.0000   1.0000   1.0000   1.0000   1.0000   1.0000
     1.0000   1.0000   1.0000   1.0000   1.0000   0.0000   0.0000   0.0000
     0.0000   0.0000   0.0000   0.0000   0.0000   0.0000   0.0000   0.0000
     0.0000   0.0000   0.0000   0.0000   0.0000   0.0000   0.0000   0.0000
     0.0000   0.0000   0.0000   0.0000   0.0000

          k = 0.0000 0.1919 0.0000 ( 25771 PWs)   bands (ev):

   -80.6377 -67.4778 -67.4506 -67.3195 -66.9022 -66.8795 -47.6851 -46.4891
   -45.9442 -34.2497 -34.2267 -34.2216 -34.2071 -34.2050 -34.1918 -34.0814
   -34.0809 -34.0543 -33.6768 -33.6528 -33.6512 -33.6411 -33.6410 -33.5989
   -22.9537 -22.9005 -15.0241 -14.9698 -14.1213 -14.0710 -13.5588 -13.5362
   -13.2941 -13.1768 -13.1304 -13.0714 -12.8959 -12.8628 -12.8075 -12.7848
   -12.7109 -12.5736 -12.4565 -12.4003 -12.2149 -12.1909 -12.1362 -11.9999
   -11.1481 -10.8976  -6.5201  -6.4670  -6.4498  -6.4380  -6.3856  -6.3800
    -4.1755  -4.1156  -2.4993  -2.3936  -1.7324  -1.3994  -1.0378  -1.0178
    -0.9256  -0.8682  -0.6931  -0.5694  -0.4337  -0.2522  -0.2032  -0.0854
    -0.0336   0.1712   0.2564   0.5256   0.5972   0.6386   0.7504   0.9157
     0.9642   1.1340   1.1779   1.3121   1.4439   1.5865   1.6134   1.7444
     1.8777   1.8849   2.0224   2.1491   2.1775   2.1892   2.2269   2.3627
     2.4154   2.5084   2.6015   2.6372   2.7211   2.7482   2.8041   2.9294
     2.9999   3.0581   3.0766   3.0891   3.1779   3.2067   3.3150   3.3237
     3.4314   3.4564   3.5009   3.5647   3.6537   3.6696   3.8703   3.8916
     3.8950   3.9616   4.0149   4.0361   4.0558   4.2348   4.2996   4.5439
     5.7858   5.9323   7.0149   7.5063   7.9262   9.6421  10.5921  10.9782
    11.5875  11.9763  12.4027  12.6864  12.7117  12.9240  13.0236  13.1793
    13.2666  13.4000  13.4460  13.5784  13.5928  13.7239  13.7697  13.8857
    13.9222  13.9427  14.3967  14.4600  14.5862

     occupation numbers 
     1.0000   1.0000   1.0000   1.0000   1.0000   1.0000   1.0000   1.0000
     1.0000   1.0000   1.0000   1.0000   1.0000   1.0000   1.0000   1.0000
     1.0000   1.0000   1.0000   1.0000   1.0000   1.0000   1.0000   1.0000
     1.0000   1.0000   1.0000   1.0000   1.0000   1.0000   1.0000   1.0000
     1.0000   1.0000   1.0000   1.0000   1.0000   1.0000   1.0000   1.0000
     1.0000   1.0000   1.0000   1.0000   1.0000   1.0000   1.0000   1.0000
     1.0000   1.0000   1.0000   1.0000   1.0000   1.0000   1.0000   1.0000
     1.0000   1.0000   1.0000   1.0000   1.0000   1.0000   1.0000   1.0000
     1.0000   1.0000   1.0000   1.0000   1.0000   1.0000   1.0000   1.0000
     1.0000   1.0000   1.0000   1.0000   1.0000   1.0000   1.0000   1.0000
     1.0000   1.0000   1.0000   1.0000   1.0000   1.0000   1.0000   1.0000
     1.0000   1.0000   1.0000   1.0000   1.0000   1.0000   1.0000   1.0000
     1.0000   1.0000   1.0000   1.0000   1.0000   1.0000   1.0000   1.0000
     1.0000   1.0000   1.0000   1.0000   1.0000   1.0000   1.0000   1.0000
     1.0000   1.0000   1.0000   1.0000   1.0000   1.0000   1.0000   1.0000
     1.0000   1.0000   1.0000   1.0000   1.0000   1.0000   1.0000   1.0000
     1.0000   1.0000   1.0000   1.0000   1.0000   0.0000   0.0000   0.0000
     0.0000   0.0000   0.0000   0.0000   0.0000   0.0000   0.0000   0.0000
     0.0000   0.0000   0.0000   0.0000   0.0000   0.0000   0.0000   0.0000
     0.0000   0.0000   0.0000   0.0000   0.0000

          k = 0.0000 0.1919 0.1756 ( 25786 PWs)   bands (ev):

   -80.6377 -67.4778 -67.4506 -67.3195 -66.9022 -66.8795 -47.6851 -46.4891
   -45.9442 -34.2497 -34.2267 -34.2216 -34.2071 -34.2050 -34.1918 -34.0814
   -34.0809 -34.0543 -33.6769 -33.6528 -33.6512 -33.6411 -33.6410 -33.5989
   -22.9537 -22.9005 -15.0111 -14.9837 -14.1093 -14.0839 -13.5594 -13.5356
   -13.2876 -13.1714 -13.1492 -13.0595 -12.9098 -12.8474 -12.8097 -12.7873
   -12.7079 -12.5776 -12.4489 -12.4079 -12.2188 -12.1854 -12.1307 -12.0064
   -11.1477 -10.8983  -6.5202  -6.4671  -6.4498  -6.4379  -6.3855  -6.3800
    -4.1682  -4.1234  -2.4749  -2.4206  -1.7055  -1.3891  -1.0312  -1.0183
    -0.9177  -0.8839  -0.6691  -0.6017  -0.4469  -0.2552  -0.2093  -0.1624
     0.0064   0.1812   0.2083   0.5015   0.5927   0.6041   0.7791   0.9228
     1.0181   1.0919   1.1625   1.3536   1.5283   1.5961   1.6890   1.7349
     1.8448   1.9343   2.0458   2.0945   2.1474   2.2054   2.2947   2.3693
     2.4561   2.4759   2.5847   2.6479   2.6739   2.7296   2.8256   2.8693
     2.9414   2.9860   3.0739   3.1441   3.1510   3.2206   3.2810   3.3399
     3.4527   3.4775   3.5175   3.5596   3.6697   3.7138   3.7943   3.8791
     3.9226   3.9559   3.9973   4.0142   4.0396   4.2450   4.3497   4.5501
     5.7863   5.9298   7.0162   7.4952   7.9305   9.9097  10.5628  10.7777
    11.2924  11.9572  12.3788  12.7436  12.8177  13.0074  13.1826  13.2123
    13.3365  13.3893  13.5079  13.5540  13.6564  13.7147  13.7360  13.8443
    13.8939  14.0827  14.3310  14.3946  14.4969

     occupation numbers 
     1.0000   1.0000   1.0000   1.0000   1.0000   1.0000   1.0000   1.0000
     1.0000   1.0000   1.0000   1.0000   1.0000   1.0000   1.0000   1.0000
     1.0000   1.0000   1.0000   1.0000   1.0000   1.0000   1.0000   1.0000
     1.0000   1.0000   1.0000   1.0000   1.0000   1.0000   1.0000   1.0000
     1.0000   1.0000   1.0000   1.0000   1.0000   1.0000   1.0000   1.0000
     1.0000   1.0000   1.0000   1.0000   1.0000   1.0000   1.0000   1.0000
     1.0000   1.0000   1.0000   1.0000   1.0000   1.0000   1.0000   1.0000
     1.0000   1.0000   1.0000   1.0000   1.0000   1.0000   1.0000   1.0000
     1.0000   1.0000   1.0000   1.0000   1.0000   1.0000   1.0000   1.0000
     1.0000   1.0000   1.0000   1.0000   1.0000   1.0000   1.0000   1.0000
     1.0000   1.0000   1.0000   1.0000   1.0000   1.0000   1.0000   1.0000
     1.0000   1.0000   1.0000   1.0000   1.0000   1.0000   1.0000   1.0000
     1.0000   1.0000   1.0000   1.0000   1.0000   1.0000   1.0000   1.0000
     1.0000   1.0000   1.0000   1.0000   1.0000   1.0000   1.0000   1.0000
     1.0000   1.0000   1.0000   1.0000   1.0000   1.0000   1.0000   1.0000
     1.0000   1.0000   1.0000   1.0000   1.0000   1.0000   1.0000   1.0000
     1.0000   1.0000   1.0000   1.0000   1.0000   0.0000   0.0000   0.0000
     0.0000   0.0000   0.0000   0.0000   0.0000   0.0000   0.0000   0.0000
     0.0000   0.0000   0.0000   0.0000   0.0000   0.0000   0.0000   0.0000
     0.0000   0.0000   0.0000   0.0000   0.0000

          k = 0.1667 0.0000 0.0295 ( 25803 PWs)   bands (ev):

   -80.6377 -67.4778 -67.4506 -67.3195 -66.9022 -66.8795 -47.6852 -46.4891
   -45.9442 -34.2494 -34.2278 -34.2208 -34.2077 -34.2043 -34.1919 -34.0815
   -34.0808 -34.0543 -33.6768 -33.6535 -33.6501 -33.6423 -33.6401 -33.5991
   -22.9535 -22.9004 -14.9705 -14.9173 -14.1039 -14.0611 -13.6767 -13.6451
   -13.3104 -13.1690 -13.1354 -13.0439 -12.8521 -12.8151 -12.7876 -12.7735
   -12.6774 -12.5845 -12.4849 -12.4164 -12.2828 -12.2374 -12.1212 -11.9910
   -11.1460 -10.9022  -6.5220  -6.4689  -6.4487  -6.4376  -6.3849  -6.3758
    -4.0573  -3.9962  -2.3250  -2.2202  -1.7690  -1.3849  -1.3502  -1.2886
    -0.8347  -0.7449  -0.6267  -0.5567  -0.4434  -0.2713  -0.2536  -0.0967
    -0.0071   0.1845   0.2438   0.5237   0.5853   0.6973   0.7170   0.8279
     1.0810   1.1905   1.2835   1.3132   1.3879   1.4470   1.6004   1.6458
     1.7255   1.9530   1.9890   2.0585   2.1376   2.2281   2.3249   2.3696
     2.3998   2.4747   2.5582   2.6854   2.7518   2.7744   2.8155   2.8962
     2.9720   2.9914   3.0621   3.1130   3.1600   3.2542   3.3046   3.3257
     3.4275   3.4621   3.5045   3.5621   3.6391   3.7276   3.8037   3.8624
     3.8838   3.9589   3.9892   4.0206   4.0283   4.2317   4.3792   4.4865
     5.7657   5.9018   7.0226   7.5475   7.9178   9.5623  10.9280  11.4727
    11.8241  12.0909  12.2602  12.5073  12.6434  12.8919  13.0053  13.1226
    13.2468  13.3722  13.4274  13.6216  13.6884  13.7278  13.8257  13.8824
    13.9757  14.2526  14.2663  14.3465  14.4757

     occupation numbers 
     1.0000   1.0000   1.0000   1.0000   1.0000   1.0000   1.0000   1.0000
     1.0000   1.0000   1.0000   1.0000   1.0000   1.0000   1.0000   1.0000
     1.0000   1.0000   1.0000   1.0000   1.0000   1.0000   1.0000   1.0000
     1.0000   1.0000   1.0000   1.0000   1.0000   1.0000   1.0000   1.0000
     1.0000   1.0000   1.0000   1.0000   1.0000   1.0000   1.0000   1.0000
     1.0000   1.0000   1.0000   1.0000   1.0000   1.0000   1.0000   1.0000
     1.0000   1.0000   1.0000   1.0000   1.0000   1.0000   1.0000   1.0000
     1.0000   1.0000   1.0000   1.0000   1.0000   1.0000   1.0000   1.0000
     1.0000   1.0000   1.0000   1.0000   1.0000   1.0000   1.0000   1.0000
     1.0000   1.0000   1.0000   1.0000   1.0000   1.0000   1.0000   1.0000
     1.0000   1.0000   1.0000   1.0000   1.0000   1.0000   1.0000   1.0000
     1.0000   1.0000   1.0000   1.0000   1.0000   1.0000   1.0000   1.0000
     1.0000   1.0000   1.0000   1.0000   1.0000   1.0000   1.0000   1.0000
     1.0000   1.0000   1.0000   1.0000   1.0000   1.0000   1.0000   1.0000
     1.0000   1.0000   1.0000   1.0000   1.0000   1.0000   1.0000   1.0000
     1.0000   1.0000   1.0000   1.0000   1.0000   1.0000   1.0000   1.0000
     1.0000   1.0000   1.0000   1.0000   1.0000   0.0000   0.0000   0.0000
     0.0000   0.0000   0.0000   0.0000   0.0000   0.0000   0.0000   0.0000
     0.0000   0.0000   0.0000   0.0000   0.0000   0.0000   0.0000   0.0000
     0.0000   0.0000   0.0000   0.0000   0.0000

          k = 0.1667 0.0000 0.2050 ( 25826 PWs)   bands (ev):

   -80.6378 -67.4778 -67.4506 -67.3195 -66.9022 -66.8795 -47.6852 -46.4891
   -45.9442 -34.2494 -34.2278 -34.2208 -34.2077 -34.2043 -34.1919 -34.0815
   -34.0808 -34.0543 -33.6768 -33.6535 -33.6501 -33.6423 -33.6401 -33.5991
   -22.9535 -22.9004 -14.9543 -14.9345 -14.0944 -14.0712 -13.6722 -13.6498
   -13.3010 -13.1878 -13.1291 -13.0370 -12.8500 -12.8148 -12.7918 -12.7774
   -12.6702 -12.5886 -12.4790 -12.4228 -12.2783 -12.2422 -12.1118 -11.9991
   -11.1455 -10.9031  -6.5221  -6.4690  -6.4487  -6.4375  -6.3848  -6.3758
    -4.0587  -3.9951  -2.3049  -2.2453  -1.7345  -1.4146  -1.3388  -1.2646
    -0.8333  -0.7448  -0.6164  -0.5727  -0.4439  -0.2848  -0.2382  -0.2002
     0.0262   0.1945   0.2328   0.4609   0.5681   0.6731   0.7160   0.8813
     1.1331   1.1604   1.2857   1.3137   1.4039   1.4948   1.5907   1.6952
     1.7549   1.9537   2.0263   2.0631   2.1870   2.2387   2.2918   2.3647
     2.4396   2.4837   2.5600   2.6391   2.6749   2.7430   2.7954   2.8556
     2.9429   2.9896   3.0523   3.1276   3.1954   3.2574   3.2808   3.3643
     3.4016   3.4632   3.5051   3.5640   3.6714   3.7526   3.8119   3.8529
     3.8762   3.9299   3.9565   3.9864   4.0219   4.2914   4.3803   4.4987
     5.7646   5.9012   7.0239   7.5405   7.9179   9.9239  10.3982  11.5255
    11.8576  11.9864  12.3026  12.4274  12.6015  12.9372  13.1606  13.2770
    13.3213  13.4534  13.4676  13.5032  13.6503  13.7391  13.8497  13.9120
    13.9647  14.0397  14.1849  14.4379  14.4730

     occupation numbers 
     1.0000   1.0000   1.0000   1.0000   1.0000   1.0000   1.0000   1.0000
     1.0000   1.0000   1.0000   1.0000   1.0000   1.0000   1.0000   1.0000
     1.0000   1.0000   1.0000   1.0000   1.0000   1.0000   1.0000   1.0000
     1.0000   1.0000   1.0000   1.0000   1.0000   1.0000   1.0000   1.0000
     1.0000   1.0000   1.0000   1.0000   1.0000   1.0000   1.0000   1.0000
     1.0000   1.0000   1.0000   1.0000   1.0000   1.0000   1.0000   1.0000
     1.0000   1.0000   1.0000   1.0000   1.0000   1.0000   1.0000   1.0000
     1.0000   1.0000   1.0000   1.0000   1.0000   1.0000   1.0000   1.0000
     1.0000   1.0000   1.0000   1.0000   1.0000   1.0000   1.0000   1.0000
     1.0000   1.0000   1.0000   1.0000   1.0000   1.0000   1.0000   1.0000
     1.0000   1.0000   1.0000   1.0000   1.0000   1.0000   1.0000   1.0000
     1.0000   1.0000   1.0000   1.0000   1.0000   1.0000   1.0000   1.0000
     1.0000   1.0000   1.0000   1.0000   1.0000   1.0000   1.0000   1.0000
     1.0000   1.0000   1.0000   1.0000   1.0000   1.0000   1.0000   1.0000
     1.0000   1.0000   1.0000   1.0000   1.0000   1.0000   1.0000   1.0000
     1.0000   1.0000   1.0000   1.0000   1.0000   1.0000   1.0000   1.0000
     1.0000   1.0000   1.0000   1.0000   1.0000   0.0000   0.0000   0.0000
     0.0000   0.0000   0.0000   0.0000   0.0000   0.0000   0.0000   0.0000
     0.0000   0.0000   0.0000   0.0000   0.0000   0.0000   0.0000   0.0000
     0.0000   0.0000   0.0000   0.0000   0.0000

          k = 0.1667 0.0000-0.1461 ( 25786 PWs)   bands (ev):

   -80.6377 -67.4778 -67.4506 -67.3195 -66.9022 -66.8795 -47.6852 -46.4891
   -45.9442 -34.2494 -34.2278 -34.2208 -34.2077 -34.2043 -34.1919 -34.0815
   -34.0808 -34.0543 -33.6768 -33.6535 -33.6501 -33.6423 -33.6401 -33.5991
   -22.9535 -22.9004 -14.9612 -14.9272 -14.0952 -14.0704 -13.6711 -13.6508
   -13.3039 -13.1776 -13.1375 -13.0376 -12.8504 -12.8125 -12.7975 -12.7701
   -12.6739 -12.5880 -12.4739 -12.4276 -12.2660 -12.2549 -12.1118 -11.9980
   -11.1453 -10.9030  -6.5222  -6.4690  -6.4487  -6.4375  -6.3848  -6.3758
    -4.0416  -4.0125  -2.3014  -2.2472  -1.7475  -1.4162  -1.3295  -1.2732
    -0.8174  -0.7648  -0.5895  -0.5562  -0.4743  -0.2749  -0.2605  -0.1703
    -0.0033   0.1973   0.2379   0.4730   0.6004   0.6977   0.7292   0.8699
     1.0984   1.1318   1.2835   1.3076   1.4298   1.5268   1.5838   1.6193
     1.7787   1.9489   2.0132   2.0692   2.1175   2.2262   2.3385   2.3559
     2.4104   2.4973   2.5460   2.6675   2.7323   2.7639   2.7700   2.8886
     2.9165   2.9927   3.0989   3.1573   3.1820   3.2455   3.2890   3.3546
     3.4140   3.4500   3.5275   3.5835   3.6380   3.7234   3.7938   3.8330
     3.8766   3.9382   3.9586   3.9942   4.0133   4.2872   4.3826   4.5040
     5.7646   5.9026   7.0228   7.5387   7.9196   9.7531  10.6185  11.5816
    11.9042  11.9593  12.3421  12.3974  12.6417  13.0116  13.0431  13.1782
    13.2642  13.3688  13.4660  13.5352  13.6231  13.7443  13.7883  13.9096
    13.9930  14.1473  14.2734  14.4012  14.4728

     occupation numbers 
     1.0000   1.0000   1.0000   1.0000   1.0000   1.0000   1.0000   1.0000
     1.0000   1.0000   1.0000   1.0000   1.0000   1.0000   1.0000   1.0000
     1.0000   1.0000   1.0000   1.0000   1.0000   1.0000   1.0000   1.0000
     1.0000   1.0000   1.0000   1.0000   1.0000   1.0000   1.0000   1.0000
     1.0000   1.0000   1.0000   1.0000   1.0000   1.0000   1.0000   1.0000
     1.0000   1.0000   1.0000   1.0000   1.0000   1.0000   1.0000   1.0000
     1.0000   1.0000   1.0000   1.0000   1.0000   1.0000   1.0000   1.0000
     1.0000   1.0000   1.0000   1.0000   1.0000   1.0000   1.0000   1.0000
     1.0000   1.0000   1.0000   1.0000   1.0000   1.0000   1.0000   1.0000
     1.0000   1.0000   1.0000   1.0000   1.0000   1.0000   1.0000   1.0000
     1.0000   1.0000   1.0000   1.0000   1.0000   1.0000   1.0000   1.0000
     1.0000   1.0000   1.0000   1.0000   1.0000   1.0000   1.0000   1.0000
     1.0000   1.0000   1.0000   1.0000   1.0000   1.0000   1.0000   1.0000
     1.0000   1.0000   1.0000   1.0000   1.0000   1.0000   1.0000   1.0000
     1.0000   1.0000   1.0000   1.0000   1.0000   1.0000   1.0000   1.0000
     1.0000   1.0000   1.0000   1.0000   1.0000   1.0000   1.0000   1.0000
     1.0000   1.0000   1.0000   1.0000   1.0000   0.0000   0.0000   0.0000
     0.0000   0.0000   0.0000   0.0000   0.0000   0.0000   0.0000   0.0000
     0.0000   0.0000   0.0000   0.0000   0.0000   0.0000   0.0000   0.0000
     0.0000   0.0000   0.0000   0.0000   0.0000

          k = 0.1667 0.1919 0.0295 ( 25796 PWs)   bands (ev):

   -80.6377 -67.4778 -67.4506 -67.3195 -66.9022 -66.8795 -47.6852 -46.4891
   -45.9442 -34.2494 -34.2278 -34.2208 -34.2077 -34.2043 -34.1919 -34.0814
   -34.0808 -34.0543 -33.6768 -33.6535 -33.6501 -33.6423 -33.6401 -33.5991
   -22.9535 -22.9004 -14.9655 -14.9124 -14.1357 -14.0883 -13.6624 -13.6352
   -13.2533 -13.1542 -13.0780 -13.0286 -12.8814 -12.8648 -12.8165 -12.7909
   -12.7048 -12.5816 -12.4768 -12.4052 -12.2782 -12.2385 -12.1184 -11.9890
   -11.1447 -10.9019  -6.5210  -6.4705  -6.4487  -6.4367  -6.3851  -6.3762
    -4.0213  -3.9586  -2.4807  -2.3757  -1.6998  -1.3682  -1.2361  -1.2021
    -0.8314  -0.7471  -0.7001  -0.5323  -0.4505  -0.2313  -0.1995  -0.0693
     0.0055   0.1598   0.2294   0.5037   0.5497   0.6735   0.7127   0.7898
     1.0909   1.1124   1.2662   1.3282   1.3724   1.4826   1.6137   1.6871
     1.7786   1.9085   1.9707   2.0941   2.1633   2.2311   2.3186   2.3758
     2.4329   2.5401   2.5837   2.6692   2.7468   2.7852   2.8306   2.9112
     2.9776   3.0251   3.0645   3.1229   3.1651   3.2377   3.2902   3.3298
     3.4095   3.4429   3.4813   3.5815   3.6647   3.6768   3.7831   3.8404
     3.8676   3.9289   3.9666   4.0247   4.0658   4.2011   4.2850   4.4757
     5.7799   5.8961   7.0226   7.5136   7.9297   9.9157  10.7724  11.1365
    11.6836  12.0192  12.3781  12.6805  12.7856  12.8834  13.1095  13.1475
    13.2645  13.3893  13.4291  13.5389  13.5865  13.6808  13.7847  13.8627
    14.0328  14.0901  14.3343  14.5066  14.6500

     occupation numbers 
     1.0000   1.0000   1.0000   1.0000   1.0000   1.0000   1.0000   1.0000
     1.0000   1.0000   1.0000   1.0000   1.0000   1.0000   1.0000   1.0000
     1.0000   1.0000   1.0000   1.0000   1.0000   1.0000   1.0000   1.0000
     1.0000   1.0000   1.0000   1.0000   1.0000   1.0000   1.0000   1.0000
     1.0000   1.0000   1.0000   1.0000   1.0000   1.0000   1.0000   1.0000
     1.0000   1.0000   1.0000   1.0000   1.0000   1.0000   1.0000   1.0000
     1.0000   1.0000   1.0000   1.0000   1.0000   1.0000   1.0000   1.0000
     1.0000   1.0000   1.0000   1.0000   1.0000   1.0000   1.0000   1.0000
     1.0000   1.0000   1.0000   1.0000   1.0000   1.0000   1.0000   1.0000
     1.0000   1.0000   1.0000   1.0000   1.0000   1.0000   1.0000   1.0000
     1.0000   1.0000   1.0000   1.0000   1.0000   1.0000   1.0000   1.0000
     1.0000   1.0000   1.0000   1.0000   1.0000   1.0000   1.0000   1.0000
     1.0000   1.0000   1.0000   1.0000   1.0000   1.0000   1.0000   1.0000
     1.0000   1.0000   1.0000   1.0000   1.0000   1.0000   1.0000   1.0000
     1.0000   1.0000   1.0000   1.0000   1.0000   1.0000   1.0000   1.0000
     1.0000   1.0000   1.0000   1.0000   1.0000   1.0000   1.0000   1.0000
     1.0000   1.0000   1.0000   1.0000   1.0000   0.0000   0.0000   0.0000
     0.0000   0.0000   0.0000   0.0000   0.0000   0.0000   0.0000   0.0000
     0.0000   0.0000   0.0000   0.0000   0.0000   0.0000   0.0000   0.0000
     0.0000   0.0000   0.0000   0.0000   0.0000

          k = 0.1667 0.1919 0.2050 ( 25776 PWs)   bands (ev):

   -80.6377 -67.4778 -67.4506 -67.3195 -66.9022 -66.8795 -47.6852 -46.4891
   -45.9442 -34.2493 -34.2278 -34.2208 -34.2077 -34.2043 -34.1919 -34.0814
   -34.0808 -34.0543 -33.6768 -33.6535 -33.6500 -33.6423 -33.6401 -33.5991
   -22.9535 -22.9004 -14.9492 -14.9296 -14.1232 -14.1016 -13.6606 -13.6371
   -13.2468 -13.1498 -13.0979 -13.0135 -12.8935 -12.8575 -12.8150 -12.7905
   -12.7018 -12.5863 -12.4726 -12.4101 -12.2759 -12.2409 -12.1091 -11.9970
   -11.1442 -10.9028  -6.5210  -6.4706  -6.4487  -6.4367  -6.3850  -6.3762
    -4.0191  -3.9610  -2.4551  -2.4043  -1.6729  -1.3576  -1.2557  -1.1836
    -0.8336  -0.7465  -0.6937  -0.5379  -0.4521  -0.2835  -0.1807  -0.1242
     0.0373   0.1476   0.2222   0.4617   0.5320   0.6569   0.7015   0.8332
     1.0625   1.1335   1.2590   1.3544   1.4324   1.5386   1.6165   1.7302
     1.8419   1.8814   1.9555   2.0797   2.1543   2.2639   2.3248   2.3874
     2.4511   2.5520   2.5794   2.6615   2.7004   2.7230   2.8311   2.8888
     2.9223   3.0022   3.0547   3.1258   3.1739   3.2211   3.2759   3.3233
     3.4127   3.4671   3.5577   3.5916   3.6557   3.6916   3.7528   3.8459
     3.8625   3.9028   3.9558   3.9854   4.0658   4.2287   4.3243   4.4866
     5.7792   5.8943   7.0239   7.5061   7.9305  10.2203  10.6786  10.9653
    11.3836  11.9940  12.3513  12.6765  12.8557  12.9291  13.1796  13.3322
    13.3597  13.4269  13.4886  13.5266  13.6189  13.7187  13.7865  13.8574
    13.9451  14.0935  14.2456  14.3870  14.6051

     occupation numbers 
     1.0000   1.0000   1.0000   1.0000   1.0000   1.0000   1.0000   1.0000
     1.0000   1.0000   1.0000   1.0000   1.0000   1.0000   1.0000   1.0000
     1.0000   1.0000   1.0000   1.0000   1.0000   1.0000   1.0000   1.0000
     1.0000   1.0000   1.0000   1.0000   1.0000   1.0000   1.0000   1.0000
     1.0000   1.0000   1.0000   1.0000   1.0000   1.0000   1.0000   1.0000
     1.0000   1.0000   1.0000   1.0000   1.0000   1.0000   1.0000   1.0000
     1.0000   1.0000   1.0000   1.0000   1.0000   1.0000   1.0000   1.0000
     1.0000   1.0000   1.0000   1.0000   1.0000   1.0000   1.0000   1.0000
     1.0000   1.0000   1.0000   1.0000   1.0000   1.0000   1.0000   1.0000
     1.0000   1.0000   1.0000   1.0000   1.0000   1.0000   1.0000   1.0000
     1.0000   1.0000   1.0000   1.0000   1.0000   1.0000   1.0000   1.0000
     1.0000   1.0000   1.0000   1.0000   1.0000   1.0000   1.0000   1.0000
     1.0000   1.0000   1.0000   1.0000   1.0000   1.0000   1.0000   1.0000
     1.0000   1.0000   1.0000   1.0000   1.0000   1.0000   1.0000   1.0000
     1.0000   1.0000   1.0000   1.0000   1.0000   1.0000   1.0000   1.0000
     1.0000   1.0000   1.0000   1.0000   1.0000   1.0000   1.0000   1.0000
     1.0000   1.0000   1.0000   1.0000   1.0000   0.0000   0.0000   0.0000
     0.0000   0.0000   0.0000   0.0000   0.0000   0.0000   0.0000   0.0000
     0.0000   0.0000   0.0000   0.0000   0.0000   0.0000   0.0000   0.0000
     0.0000   0.0000   0.0000   0.0000   0.0000

          k = 0.1667 0.1919-0.1461 ( 25782 PWs)   bands (ev):

   -80.6377 -67.4778 -67.4506 -67.3195 -66.9022 -66.8795 -47.6852 -46.4891
   -45.9442 -34.2494 -34.2278 -34.2208 -34.2077 -34.2043 -34.1919 -34.0814
   -34.0808 -34.0543 -33.6768 -33.6535 -33.6501 -33.6423 -33.6401 -33.5991
   -22.9535 -22.9004 -14.9561 -14.9224 -14.1258 -14.0989 -13.6578 -13.6400
   -13.2487 -13.1510 -13.0903 -13.0205 -12.8919 -12.8549 -12.8194 -12.7901
   -12.7024 -12.5849 -12.4662 -12.4157 -12.2659 -12.2518 -12.1091 -11.9960
   -11.1440 -10.9027  -6.5211  -6.4706  -6.4487  -6.4366  -6.3850  -6.3762
    -4.0032  -3.9773  -2.4565  -2.4023  -1.6825  -1.3614  -1.2591  -1.1794
    -0.8129  -0.7677  -0.6640  -0.5349  -0.4874  -0.2521  -0.1951  -0.1088
     0.0042   0.1688   0.1981   0.4934   0.5587   0.6556   0.7356   0.8274
     1.0591   1.0937   1.2500   1.3336   1.4457   1.5252   1.6385   1.7166
     1.7567   1.9005   1.9605   2.1094   2.1784   2.2448   2.3054   2.3818
     2.4505   2.5145   2.5952   2.6617   2.7187   2.7623   2.8374   2.8647
     2.9291   2.9988   3.0860   3.1636   3.1803   3.2181   3.2813   3.3402
     3.4376   3.4707   3.5063   3.5965   3.6539   3.6932   3.7359   3.8323
     3.8593   3.9083   3.9661   3.9931   4.0215   4.2358   4.3213   4.4847
     5.7796   5.8968   7.0227   7.5030   7.9311  10.0953  10.8528  10.9223
    11.4695  12.0591  12.3955  12.6933  12.7690  12.9226  13.1286  13.2398
    13.3085  13.3939  13.4727  13.5471  13.6306  13.7046  13.7413  13.9570
    13.9978  14.0328  14.2043  14.4274  14.5666

     occupation numbers 
     1.0000   1.0000   1.0000   1.0000   1.0000   1.0000   1.0000   1.0000
     1.0000   1.0000   1.0000   1.0000   1.0000   1.0000   1.0000   1.0000
     1.0000   1.0000   1.0000   1.0000   1.0000   1.0000   1.0000   1.0000
[...]
     atom   13 type  7   force =     0.00000000    0.00000000    0.00000000
     atom   14 type  7   force =     0.00000000    0.00000000    0.00000000
     atom   15 type  1   force =     0.00000000    0.00000000    0.00000000
     atom   16 type  1   force =     0.00000000    0.00000000    0.00000000
     atom   17 type  6   force =     0.00000000    0.00000000    0.00000000
     atom   18 type  6   force =     0.00000000    0.00000000    0.00000000
     atom   19 type  6   force =     0.00000000    0.00000000    0.00000000
     atom   20 type  6   force =     0.00000000    0.00000000    0.00000000
     atom   21 type  6   force =     0.00000000    0.00000000    0.00000000
     atom   22 type  6   force =     0.00000000    0.00000000    0.00000000
     atom   23 type  6   force =     0.00000000    0.00000000    0.00000000
     atom   24 type  6   force =     0.00000000    0.00000000    0.00000000
     atom   25 type  6   force =     0.00000000    0.00000000    0.00000000
     atom   26 type  6   force =     0.00000000    0.00000000    0.00000000
     atom   27 type  6   force =     0.00000000    0.00000000    0.00000000
     atom   28 type  6   force =     0.00000000    0.00000000    0.00000000
     atom   29 type  6   force =     0.00000000    0.00000000    0.00000000
     atom   30 type  6   force =     0.00000000    0.00000000    0.00000000
     atom   31 type  6   force =     0.00000000    0.00000000    0.00000000
     atom   32 type  6   force =     0.00000000    0.00000000    0.00000000
     atom   33 type  6   force =     0.00000000    0.00000000    0.00000000
     atom   34 type  6   force =     0.00000000    0.00000000    0.00000000
     atom   35 type  6   force =     0.00000000    0.00000000    0.00000000
     atom   36 type  6   force =     0.00000000    0.00000000    0.00000000
     atom   37 type  6   force =     0.00000000    0.00000000    0.00000000
     atom   38 type  6   force =     0.00000000    0.00000000    0.00000000
     atom   39 type  6   force =     0.00000000    0.00000000    0.00000000
     atom   40 type  6   force =     0.00000000    0.00000000    0.00000000
     atom   41 type  3   force =     0.00000000    0.00000000    0.00000000
     atom   42 type  3   force =     0.00000000    0.00000000    0.00000000
     atom   43 type  3   force =     0.00000000    0.00000000    0.00000000
     atom   44 type  3   force =     0.00000000    0.00000000    0.00000000
     The SCF correction term to forces
     atom    1 type  4   force =    -0.00000000    0.00001022   -0.00000000
     atom    2 type  4   force =     0.00000000   -0.00002113    0.00000000
     atom    3 type  5   force =    -0.00000000    0.00001186    0.00000000
     atom    4 type  5   force =     0.00000000   -0.00000937   -0.00000000
     atom    5 type  5   force =     0.00000000   -0.00002164   -0.00000000
     atom    6 type  5   force =     0.00000000   -0.00004994    0.00000000
     atom    7 type  5   force =    -0.00000000    0.00005216    0.00000000
     atom    8 type  2   force =     0.00000000    0.00001265   -0.00000000
     atom    9 type  7   force =     0.00000043    0.00000282   -0.00000646
     atom   10 type  7   force =    -0.00000043    0.00000282    0.00000646
     atom   11 type  7   force =     0.00000107   -0.00000128    0.00000814
     atom   12 type  7   force =    -0.00000107   -0.00000128   -0.00000814
     atom   13 type  7   force =    -0.00000071   -0.00000341   -0.00001224
     atom   14 type  7   force =     0.00000071   -0.00000341    0.00001224
     atom   15 type  1   force =     0.00000306    0.00000383    0.00000466
     atom   16 type  1   force =    -0.00000306    0.00000383   -0.00000466
     atom   17 type  6   force =     0.00000518    0.00002452   -0.00000644
     atom   18 type  6   force =    -0.00000518    0.00002452    0.00000644
     atom   19 type  6   force =    -0.00000612   -0.00000418    0.00003304
     atom   20 type  6   force =     0.00000612   -0.00000418   -0.00003304
     atom   21 type  6   force =    -0.00001864   -0.00002258    0.00000270
     atom   22 type  6   force =     0.00001864   -0.00002258   -0.00000270
     atom   23 type  6   force =     0.00004059    0.00002572   -0.00002330
     atom   24 type  6   force =    -0.00004059    0.00002572    0.00002330
     atom   25 type  6   force =    -0.00000883    0.00003890   -0.00000390
     atom   26 type  6   force =     0.00000883    0.00003890    0.00000390
     atom   27 type  6   force =    -0.00002856    0.00000370    0.00006393
     atom   28 type  6   force =     0.00002856    0.00000370   -0.00006393
     atom   29 type  6   force =    -0.00002030   -0.00001282    0.00002150
     atom   30 type  6   force =     0.00002030   -0.00001282   -0.00002150
     atom   31 type  6   force =    -0.00000677   -0.00001649   -0.00001878
     atom   32 type  6   force =     0.00000677   -0.00001649    0.00001878
     atom   33 type  6   force =     0.00001460    0.00000783   -0.00002262
     atom   34 type  6   force =    -0.00001460    0.00000783    0.00002262
     atom   35 type  6   force =    -0.00000065    0.00000604    0.00001385
     atom   36 type  6   force =     0.00000065    0.00000604   -0.00001385
     atom   37 type  6   force =     0.00001360   -0.00000253   -0.00002812
     atom   38 type  6   force =    -0.00001360   -0.00000253    0.00002812
     atom   39 type  6   force =     0.00000225    0.00000306   -0.00003111
     atom   40 type  6   force =    -0.00000225    0.00000306    0.00003111
     atom   41 type  3   force =     0.00000140   -0.00000055   -0.00000306
     atom   42 type  3   force =    -0.00000140   -0.00000055    0.00000306
     atom   43 type  3   force =     0.00000085   -0.00000032   -0.00000365
     atom   44 type  3   force =    -0.00000085   -0.00000032    0.00000365

     DFT-D3 dispersion contribution to forces:
     atom    1 type  4   force =    -0.00000000    0.00046030    0.00000000
     atom    2 type  4   force =     0.00000000   -0.00031844    0.00000000
     atom    3 type  5   force =    -0.00000000    0.00025376   -0.00000000
     atom    4 type  5   force =     0.00000000    0.00088363   -0.00000000
     atom    5 type  5   force =     0.00000000   -0.00128078    0.00000000
     atom    6 type  5   force =     0.00000000    0.00108177   -0.00000000
     atom    7 type  5   force =     0.00000000   -0.00035002   -0.00000000
     atom    8 type  2   force =    -0.00000000   -0.00053988   -0.00000000
     atom    9 type  7   force =     0.00004799   -0.00017250   -0.00040423
     atom   10 type  7   force =    -0.00004799   -0.00017250    0.00040423
     atom   11 type  7   force =     0.00003155    0.00017918    0.00037047
     atom   12 type  7   force =    -0.00003155    0.00017918   -0.00037047
     atom   13 type  7   force =    -0.00009862    0.00009170   -0.00010963
     atom   14 type  7   force =     0.00009862    0.00009170    0.00010963
     atom   15 type  1   force =     0.00009252    0.00010568   -0.00119711
     atom   16 type  1   force =    -0.00009252    0.00010568    0.00119711
     atom   17 type  6   force =    -0.00001198    0.00001133    0.00042165
     atom   18 type  6   force =     0.00001198    0.00001133   -0.00042165
     atom   19 type  6   force =     0.00001006    0.00005224   -0.00033679
     atom   20 type  6   force =    -0.00001006    0.00005224    0.00033679
     atom   21 type  6   force =    -0.00005172   -0.00011175    0.00042315
     atom   22 type  6   force =     0.00005172   -0.00011175   -0.00042315
     atom   23 type  6   force =    -0.00000719    0.00006200    0.00008499
     atom   24 type  6   force =     0.00000719    0.00006200   -0.00008499
     atom   25 type  6   force =    -0.00016508    0.00096158    0.00011395
     atom   26 type  6   force =     0.00016508    0.00096158   -0.00011395
     atom   27 type  6   force =     0.00076318    0.00006623    0.00018710
     atom   28 type  6   force =    -0.00076318    0.00006623   -0.00018710
     atom   29 type  6   force =     0.00043481   -0.00063952   -0.00015378
     atom   30 type  6   force =    -0.00043481   -0.00063952    0.00015378
     atom   31 type  6   force =    -0.00029586    0.00050780    0.00019007
     atom   32 type  6   force =     0.00029586    0.00050780   -0.00019007
     atom   33 type  6   force =     0.00087834   -0.00042423    0.00036622
     atom   34 type  6   force =    -0.00087834   -0.00042423   -0.00036622
     atom   35 type  6   force =     0.00060404   -0.00049494   -0.00031680
     atom   36 type  6   force =    -0.00060404   -0.00049494    0.00031680
     atom   37 type  6   force =     0.00016062   -0.00002692   -0.00044477
     atom   38 type  6   force =    -0.00016062   -0.00002692    0.00044477
     atom   39 type  6   force =     0.00000099    0.00006659   -0.00051683
     atom   40 type  6   force =    -0.00000099    0.00006659    0.00051683
     atom   41 type  3   force =    -0.00009599    0.00011109   -0.00014767
     atom   42 type  3   force =     0.00009599    0.00011109    0.00014767
     atom   43 type  3   force =     0.00009118   -0.00044070   -0.00030571
     atom   44 type  3   force =    -0.00009118   -0.00044070    0.00030571

     Total force =     0.004057     Total SCF correction =     0.000202

     DFT-D3 dispersion Force =     0.004418


     Computing stress (Cartesian axis) and pressure


     negative rho (up, down):  0.000E+00 1.544E-04
          total   stress  (Ry/bohr**3)                   (kbar)     P=       23.20
   0.00017087   0.00000000  -0.00000387           25.14        0.00       -0.57
   0.00000000   0.00018269   0.00000000            0.00       26.87        0.00
  -0.00000387   0.00000000   0.00011962           -0.57        0.00       17.60

     kinetic stress (kbar)  20972.79      0.00     19.83
                                0.00  20884.67      0.00
                               19.83      0.00  20704.12

     local   stress (kbar) -38419.92     -0.00    158.10
                               -0.00 -38264.77      0.00
                              158.10      0.00  17131.35

     nonloc. stress (kbar)   3947.61      0.00      0.79
                                0.00   3950.06      0.00
                                0.79      0.00   3927.78

     hartree stress (kbar)  21976.52     -0.00    -59.08
                               -0.00  21906.15     -0.00
                              -59.08     -0.00  -5187.57

     exc-cor stress (kbar)  -2937.31     -0.00     -0.11
                               -0.00  -2937.74      0.00
                               -0.11      0.00  -2933.85

     corecor stress (kbar)  -1932.78      0.00     -0.10
                                0.00  -1932.20     -0.00
                               -0.10     -0.00  -1934.52

     ewald   stress (kbar)  -3566.07      0.00   -120.11
                                0.00  -3563.42     -0.00
                             -120.11     -0.00 -31677.65

     hubbard stress (kbar)      0.00      0.00      0.00
                                0.00      0.00      0.00
                                0.00      0.00      0.00

     DFT-D   stress (kbar)    -15.71      0.00      0.12
                                0.00    -15.87      0.00
                                0.12      0.00    -12.08

     XDM     stress (kbar)      0.00      0.00      0.00
                                0.00      0.00      0.00
                                0.00      0.00      0.00

     dft-nl  stress (kbar)      0.00      0.00      0.00
                                0.00      0.00      0.00
                                0.00      0.00      0.00

     TS-vdW  stress (kbar)      0.00      0.00      0.00
                                0.00      0.00      0.00
                                0.00      0.00      0.00

     MDB     stress (kbar)      0.00      0.00      0.00
                                0.00      0.00      0.00
                                0.00      0.00      0.00

     3D-RISM stress (kbar)      0.00      0.00      0.00
                                0.00      0.00      0.00
                                0.00      0.00      0.00

     Energy error            =      2.8E-05 Ry
     Gradient error          =      8.8E-04 Ry/Bohr

     bfgs converged in  14 scf cycles and  13 bfgs steps
     (criteria: energy <  1.0E-04 Ry, force <  1.0E-03 Ry/Bohr)

     End of BFGS Geometry Optimization

     Final energy             =   -2631.2435390373 Ry

     File ./temp/phl-fe1-dftd3.bfgs deleted, as requested
Begin final coordinates

ATOMIC_POSITIONS (crystal)
K                0.0000000000        0.4943811957        0.0000000000
K                0.5000000000        0.0034097014        0.0000000000
Mg               0.0000000000        0.0037453791        0.5000000000
Mg               0.0000000000        0.3325113648        0.5000000000
Mg               0.0000000000        0.6654105277        0.5000000000
Mg               0.5000000000        0.8352489560        0.5000000000
Mg               0.5000000000        0.1691145871        0.5000000000
Fe               0.5000000000        0.4920051638        0.5000000000
Si               0.0832030392        0.1650846834        0.2212002646
Si               0.9167969458        0.1650846834        0.7787997504
Si               0.9341898148        0.8346199288        0.7727767080
Si               0.0658101852        0.8346199288        0.2272232920
Si               0.5650963142        0.6676639546        0.2256317866
Si               0.4349036858        0.6676639546        0.7743682434
Al               0.4151449705        0.3309962122        0.7766715745
Al               0.5848549995        0.3309962122        0.2233284255
O                0.1276212972        0.1631963555        0.3837437791
O                0.8723786728        0.1631963555        0.6162561909
O                0.8743202881        0.8331642249        0.6115740014
O                0.1256797119        0.8331642249        0.3884259986
O                0.6282988441        0.6740691285        0.3873205889
O                0.3717011559        0.6740691285        0.6126793811
O                0.3591435461        0.3279669315        0.6039090403
O                0.6408564539        0.3279669315        0.3960909597
O                0.3440930940        0.2021990624        0.1637190064
O                0.6559069060        0.2021990624        0.8362809786
O                0.9933976791        0.9974976725        0.1657379590
O                0.0066023209        0.9974976725        0.8342620560
O                0.6810702708        0.7769523579        0.8330604640
O                0.3189297292        0.7769523579        0.1669395360
O                0.8178380582        0.7308678746        0.1655951746
O                0.1821619418        0.7308678746        0.8344048554
O                0.4937045261        0.5080838973        0.1628618983
O                0.5062954739        0.5080838973        0.8371381017
O                0.1420023385        0.2777358753        0.8423318763
O                0.8579976465        0.2777358753        0.1576681237
O                0.1196118962        0.5034146447        0.3914668805
O                0.8803880738        0.5034146447        0.6085330895
O                0.6334335773        0.9989868567        0.3969507567
O                0.3665664227        0.9989868567        0.6030492433
H                0.1110154393        0.4951358206        0.2962901358
H                0.8889845527        0.4951358206        0.7037098642
H                0.5963370455        0.0145010579        0.3017800606
H                0.4036629545        0.0145010579        0.6982199094
End final coordinates



     Writing all to output data dir ./temp/phl-fe1-dftd3.save/ :
     XML data file, charge density, pseudopotentials, collected wavefunctions

     init_run     :    429.38s CPU    440.21s WALL (       1 calls)
     electrons    : 207261.73s CPU 208405.58s WALL (      14 calls)
     update_pot   :     42.26s CPU     42.64s WALL (      13 calls)
     forces       :   4242.50s CPU   4258.80s WALL (      14 calls)
     force_dftd3  :     69.80s CPU     69.92s WALL (      14 calls)
     stress       :  11230.61s CPU  11325.57s WALL (      14 calls)
     stres_dftd3  :     70.23s CPU     70.40s WALL (      14 calls)

     Called by init_run:
     wfcinit      :    415.69s CPU    425.32s WALL (       1 calls)
     wfcinit:atom :      0.51s CPU      0.52s WALL (      40 calls)
     wfcinit:wfcr :    410.89s CPU    420.39s WALL (      40 calls)
     potinit      :      3.62s CPU      3.76s WALL (       1 calls)
     hinit0       :      1.66s CPU      1.79s WALL (       1 calls)

     Called by electrons:
     c_bands      : 190865.69s CPU 191707.01s WALL (     137 calls)
     sum_band     :  14962.41s CPU  15161.52s WALL (     137 calls)
     v_of_rho     :     88.00s CPU     91.24s WALL (     142 calls)
     v_h          :      3.58s CPU      3.75s WALL (     142 calls)
     v_xc         :    101.25s CPU    104.89s WALL (     170 calls)
     newd         :   1080.25s CPU   1189.26s WALL (     142 calls)
     PAW_pot      :    367.17s CPU    367.75s WALL (     155 calls)
     mix_rho      :     15.00s CPU     15.43s WALL (     137 calls)
     energy_dftd3 :     54.53s CPU     54.63s WALL (      14 calls)

     Called by c_bands:
     init_us_2    :    388.88s CPU    390.13s WALL (   12640 calls)
     cegterg      : 190127.33s CPU 190963.39s WALL (    5480 calls)

     Called by sum_band:
     sum_band:wei :      0.10s CPU      0.10s WALL (     137 calls)
     sum_band:loo :  12854.61s CPU  12941.39s WALL (     137 calls)
     sum_band:buf :     45.96s CPU     46.20s WALL (    5480 calls)
     sum_band:ini :    170.20s CPU    170.66s WALL (    5480 calls)
     sum_band:cal :  10497.24s CPU  10514.35s WALL (    6000 calls)
     sum_band:bec :     12.72s CPU     12.78s WALL (    6000 calls)
     addusdens    :   2089.23s CPU   2200.76s WALL (     137 calls)
                                        0.00s GPU  (     137 calls)
     addusd:skk   :      6.95s CPU      9.70s WALL (     959 calls)
                                        0.00s GPU  (     959 calls)

     Called by *egterg:
     cdiaghg      :   3437.07s CPU   3473.42s WALL (   39469 calls)
     cegterg:over :  25700.80s CPU  25744.33s WALL (   34869 calls)
     cegterg:upda :  14756.85s CPU  14781.61s WALL (   34869 calls)
     cegterg:last :  38836.09s CPU  38897.28s WALL (   14722 calls)
     cdiaghg:chol :     74.85s CPU     75.06s WALL (   39469 calls)
     cdiaghg:inve :     64.77s CPU     64.94s WALL (   39469 calls)
     cdiaghg:para :   1381.15s CPU   1398.72s WALL (   78938 calls)
     h_psi        :  73114.57s CPU  73659.37s WALL (   40389 calls)
     s_psi        :  29127.67s CPU  29171.18s WALL (   40389 calls)
     g_psi        :     78.04s CPU     78.25s WALL (   34869 calls)

     Called by h_psi:
     h_psi:calbec :  29416.96s CPU  29466.00s WALL (   40389 calls)
     vloc_psi     :  14389.27s CPU  14786.48s WALL (   40389 calls)
     add_vuspsi   :  29193.79s CPU  29238.57s WALL (   40389 calls)

     General routines
     calbec       :  44843.54s CPU  44915.34s WALL (   49189 calls)
     fft          :     65.48s CPU     69.71s WALL (    4113 calls)
     ffts         :      2.36s CPU      2.51s WALL (     558 calls)
     fftw         :  11723.27s CPU  12036.97s WALL ( 6108988 calls)
     interpolate  :      6.84s CPU      7.13s WALL (     284 calls)

     Parallel routines

     PAW routines
     PAW_pot      :    367.17s CPU    367.75s WALL (     155 calls)
     PAW_symme    :      0.14s CPU      0.14s WALL (     292 calls)

     PWSCF        :   2d14h17m CPU   2d14h39m WALL


   This run was terminated on:  14:52:11  30Dec2024            

=------------------------------------------------------------------------------=
   JOB DONE.
=------------------------------------------------------------------------------=
