 INFO
nunit      1    1    1
unit   cell
celltype   primcell
shape   parapipedal
 END_INFO
 DIM-GROUP
           3           1
 PRIMVEC
   10.6725136770    0.0000000000    0.0000000000
    0.0000000000    9.2777121920    0.0000000000
   -1.8137510090    0.0000000000   10.2457945630
 CONVVEC
   10.6725136770    0.0000000000    0.0000000000
    0.0000000000    9.2777121920    0.0000000000
   -1.8137510090    0.0000000000   10.2457945630
 PRIMCOORD
          88           1
 19      0.0000000000     4.5342593540     0.0000000000    -0.0000205200    -0.0007166500    -0.0000167000
 19      5.3362568390     4.5342593540     0.0000000000     0.0000205200    -0.0007166500     0.0000167000
 19      2.6681282590     0.0862045680     0.0000000000     0.0000000000     0.0005990200     0.0000000000
 19      8.0043852580     0.0862045680     0.0000000000     0.0000000000     0.0006023200     0.0000000000
 12     -0.9068754500     0.0370929890     5.1228969740     0.0000453500    -0.0002914500    -0.0000053900
 12      4.4293813890     0.0370929890     5.1228969740    -0.0000453500    -0.0002914500     0.0000053900
 12     -0.9068754500     3.0829879740     5.1228969740     0.0000234900    -0.0001246900    -0.0000149300
 12      4.4293813890     3.0829879740     5.1228969740    -0.0000234900    -0.0001246900     0.0000149300
 12     -0.9068754500     6.1779604600     5.1228969740     0.0000798400     0.0003261600    -0.0000424200
 12      4.4293813890     6.1779604600     5.1228969740    -0.0000798400     0.0003261600     0.0000424200
 12      1.7612532890     7.7471084680     5.1228969740     0.0000000000     0.0003382300     0.0000000000
 12      7.0975098080     7.7471084680     5.1228969740     0.0000000000     0.0003527500     0.0000000000
 12      1.7612532890     1.5718944610     5.1228969740     0.0000000000    -0.0001051800     0.0000000000
 12      7.0975098080     1.5718944610     5.1228969740     0.0000000000    -0.0000322700     0.0000000000
 26      1.7612532890     4.5558012650     5.1228969740     0.0000000000     0.0003502900     0.0000000000
 26      7.0975098080     4.5558012650     5.1228969740     0.0000000000     0.0002579200     0.0000000000
 14      0.0405681880     1.5282681540     2.3181917160    -0.0001027200     0.0000090400     0.0000274500
 14      5.3768247500     1.5282681540     2.3181917160    -0.0001067200     0.0000147200     0.0000357800
 14      3.4819383190     1.5282681540     7.9276023970     0.0001027200     0.0000090400    -0.0000274500
 14      8.8181948370     1.5282681540     7.9276023970     0.0001067200     0.0000147200    -0.0000357800
 14      3.5875395910     7.7403099460     7.8641418200     0.0000936700     0.0000268600     0.0004393900
 14      8.9237964290     7.7403099460     7.8641418200     0.0000993200     0.0000271800     0.0004391800
 14     -0.0650330280     7.7403099460     2.3816519750    -0.0000936700     0.0000268600    -0.0004393900
 14      5.2712238540     7.7403099460     2.3816519750    -0.0000993200     0.0000271800    -0.0004391800
 14      2.6037002770     6.1947244880     2.3652358350    -0.0001756000     0.0000990100    -0.0002768300
 14      7.9399574360     6.1947244880     2.3652358350    -0.0001886000     0.0000455600    -0.0002613600
 14      0.9188063160     6.1947244880     7.8805579700     0.0001756000     0.0000990100     0.0002768300
 14      6.2550634750     6.1947244880     7.8805579700     0.0001886000     0.0000455600     0.0002613600
 13      0.8077013680     3.0740855910     7.9044563680     0.0002579100    -0.0000121300     0.0000880200
 13      6.1439583670     3.0740855910     7.9044563680     0.0002674700     0.0000234800     0.0000920400
 13      2.7148053440     3.0740855910     2.3413377340    -0.0002579100    -0.0000121300    -0.0000880200
 13      8.0510618620     3.0740855910     2.3413377340    -0.0002674700     0.0000234800    -0.0000920400
  8     -0.0162220410     1.5122214870     3.9529249900     0.0001913600     0.0000141500    -0.0000375400
  8      5.3200347980     1.5122214870     3.9529249900     0.0001814200     0.0000370000    -0.0000694000
  8      3.5387283520     1.5122214870     6.2928686610    -0.0001913600     0.0000141500     0.0000375400
  8      8.8749855000     1.5122214870     6.2928686610    -0.0001814200     0.0000370000     0.0000694000
  8      3.5580204420     7.7326725420     6.2426705890     0.0003216700    -0.0002945500     0.0004057400
  8      8.8942776010     7.7326725420     6.2426705890     0.0003650900    -0.0002917100     0.0004320200
  8     -0.0355136610     7.7326725420     4.0031230620    -0.0003216700    -0.0002945500    -0.0004057400
  8      5.3007433380     7.7326725420     4.0031230620    -0.0003650900    -0.0002917100    -0.0004320200
  8      2.6471632700     6.2521878350     3.9918178320    -0.0000333900     0.0003138700    -0.0001820300
  8      7.9834201090     6.2521878350     3.9918178320    -0.0000509000     0.0002517100    -0.0001733100
  8      0.8753434700     6.2521878350     6.2539752050     0.0000333900     0.0003138700     0.0001820300
  8      6.2116003090     6.2521878350     6.2539752050     0.0000509000     0.0002517100     0.0001733100
  8      0.8225117750     3.0425261820     6.1648427650    -0.0002582900    -0.0002384600     0.0001338000
  8      6.1587689340     3.0425261820     6.1648427650    -0.0002507700    -0.0002042700     0.0001135200
  8      2.6999949110     3.0425261820     4.0809505790     0.0002582900    -0.0002384600    -0.0001338000
  8      8.0362520690     3.0425261820     4.0809505790     0.0002507700    -0.0002042700    -0.0001135200
  8      1.5081857630     1.9275766650     1.7333942720     0.0001519400    -0.0002836200    -0.0000824600
  8      6.8444426020     1.9275766650     1.7333942720     0.0001252600    -0.0002809300    -0.0000960000
  8      2.0143208140     1.9275766650     8.5123996870    -0.0001519400    -0.0002836200     0.0000824600
  8      7.3505776530     1.9275766650     8.5123996870    -0.0001252600    -0.0002809300     0.0000960000
  8     -0.2787925750     9.2493413480     1.7628358190     0.0000345000     0.0001242800     0.0000940800
  8      5.0574642640     9.2493413480     1.7628358190     0.0000118500     0.0001186600     0.0001000400
  8      3.8012988580     9.2493413480     8.4829579860    -0.0000345000     0.0001242800    -0.0000940800
  8      9.1375560170     9.2493413480     8.4829579860    -0.0000118500     0.0001186600    -0.0001000400
  8      2.1620786600     7.1483080650     8.4676099500    -0.0002644800     0.0004939700    -0.0000937800
  8      7.4983351790     7.1483080650     8.4676099500    -0.0002210200     0.0004901800    -0.0000911900
  8      1.3604279440     7.1483080650     1.7781838550     0.0002644800     0.0004939700     0.0000937800
  8      6.6966844620     7.1483080650     1.7781838550     0.0002210200     0.0004901800     0.0000911900
  8      4.0267687620     6.8359384810     1.7653393690    -0.0000078500    -0.0002819500     0.0002312800
  8      9.3630256010     6.8359384810     1.7653393690     0.0000219900    -0.0002761300     0.0001990600
  8     -0.5042618690     6.8359384810     8.4804541290     0.0000078500    -0.0002819500    -0.0002312800
  8      4.8319947350     6.8359384810     8.4804541290    -0.0000219900    -0.0002761300    -0.0001990600
  8      2.4029652470     4.7172652240     1.7308665940    -0.0004535000     0.0000515100    -0.0004695300
  8      7.7392220860     4.7172652240     1.7308665940    -0.0004760600     0.0000391100    -0.0004561000
  8      1.1195414810     4.7172652240     8.5149273550     0.0004535000     0.0000515100     0.0004695300
  8      6.4557981590     4.7172652240     8.5149273550     0.0004760600     0.0000391100     0.0004561000
  8     -0.7380275340     2.5251849460     8.5701209280     0.0002297000    -0.0001340800    -0.0001633000
  8      4.5982293900     2.5251849460     8.5701209280     0.0002378300    -0.0001528300    -0.0001257900
  8      4.2605343180     2.5251849460     1.6756731850    -0.0002297000    -0.0001340800     0.0001633000
  8      9.5967914770     2.5251849460     1.6756731850    -0.0002378300    -0.0001528300     0.0001257900
  8     -0.0731766060     4.6716470290     4.0461530730    -0.0002777000    -0.0000659500     0.0000572400
  8      5.2630802330     4.6716470290     4.0461530730    -0.0002019000    -0.0000777100     0.0000679300
  8      3.5956832810     4.6716470290     6.1996402710     0.0002777000    -0.0000659500    -0.0000572400
  8      8.9319401190     4.6716470290     6.1996402710     0.0002019000    -0.0000777100    -0.0000679300
  8      2.6600211190     9.2715568110     4.0968045830    -0.0005784400     0.0001290500     0.0001207300
  8      7.9962776380     9.2715568110     4.0968045830    -0.0005788400     0.0001407200     0.0001176800
  8      0.8624856100     9.2715568110     6.1489884540     0.0005784400     0.0001290500    -0.0001207300
  8      6.1987421390     9.2715568110     6.1489884540     0.0005788400     0.0001407200    -0.0001176800
  1      0.0297011600     4.6084784360     3.0870806880    -0.0000837700     0.0001552800     0.0001679500
  1      5.3659577110     4.6084784360     3.0870806880    -0.0000641300     0.0001507200     0.0001586100
  1      3.4928055370     4.6084784360     7.1587123480     0.0000837700     0.0001552800    -0.0001679500
  1      8.8290626960     4.6084784360     7.1587123480     0.0000641300     0.0001507200    -0.0001586100
  1      2.6434788870     0.1263563350     3.1394339120    -0.0000440900    -0.0002690900     0.0003980300
  1      7.9797357260     0.1263563350     3.1394339120    -0.0000437200    -0.0002675600     0.0003982800
  1      0.8790278930     0.1263563350     7.1063597390     0.0000440900    -0.0002690900    -0.0003980300
  1      6.2152845720     0.1263563350     7.1063597390     0.0000437200    -0.0002675600    -0.0003982800
 CONVCOORD
          88           1
 19      0.0000000000     4.5342593540     0.0000000000
 19      5.3362568390     4.5342593540     0.0000000000
 19      2.6681282590     0.0862045680     0.0000000000
 19      8.0043852580     0.0862045680     0.0000000000
 12     -0.9068754500     0.0370929890     5.1228969740
 12      4.4293813890     0.0370929890     5.1228969740
 12     -0.9068754500     3.0829879740     5.1228969740
 12      4.4293813890     3.0829879740     5.1228969740
 12     -0.9068754500     6.1779604600     5.1228969740
 12      4.4293813890     6.1779604600     5.1228969740
 12      1.7612532890     7.7471084680     5.1228969740
 12      7.0975098080     7.7471084680     5.1228969740
 12      1.7612532890     1.5718944610     5.1228969740
 12      7.0975098080     1.5718944610     5.1228969740
 26      1.7612532890     4.5558012650     5.1228969740
 26      7.0975098080     4.5558012650     5.1228969740
 14      0.0405681880     1.5282681540     2.3181917160
 14      5.3768247500     1.5282681540     2.3181917160
 14      3.4819383190     1.5282681540     7.9276023970
 14      8.8181948370     1.5282681540     7.9276023970
 14      3.5875395910     7.7403099460     7.8641418200
 14      8.9237964290     7.7403099460     7.8641418200
 14     -0.0650330280     7.7403099460     2.3816519750
 14      5.2712238540     7.7403099460     2.3816519750
 14      2.6037002770     6.1947244880     2.3652358350
 14      7.9399574360     6.1947244880     2.3652358350
 14      0.9188063160     6.1947244880     7.8805579700
 14      6.2550634750     6.1947244880     7.8805579700
 13      0.8077013680     3.0740855910     7.9044563680
 13      6.1439583670     3.0740855910     7.9044563680
 13      2.7148053440     3.0740855910     2.3413377340
 13      8.0510618620     3.0740855910     2.3413377340
  8     -0.0162220410     1.5122214870     3.9529249900
  8      5.3200347980     1.5122214870     3.9529249900
  8      3.5387283520     1.5122214870     6.2928686610
  8      8.8749855000     1.5122214870     6.2928686610
  8      3.5580204420     7.7326725420     6.2426705890
  8      8.8942776010     7.7326725420     6.2426705890
  8     -0.0355136610     7.7326725420     4.0031230620
  8      5.3007433380     7.7326725420     4.0031230620
  8      2.6471632700     6.2521878350     3.9918178320
  8      7.9834201090     6.2521878350     3.9918178320
  8      0.8753434700     6.2521878350     6.2539752050
  8      6.2116003090     6.2521878350     6.2539752050
  8      0.8225117750     3.0425261820     6.1648427650
  8      6.1587689340     3.0425261820     6.1648427650
  8      2.6999949110     3.0425261820     4.0809505790
  8      8.0362520690     3.0425261820     4.0809505790
  8      1.5081857630     1.9275766650     1.7333942720
  8      6.8444426020     1.9275766650     1.7333942720
  8      2.0143208140     1.9275766650     8.5123996870
  8      7.3505776530     1.9275766650     8.5123996870
  8     -0.2787925750     9.2493413480     1.7628358190
  8      5.0574642640     9.2493413480     1.7628358190
  8      3.8012988580     9.2493413480     8.4829579860
  8      9.1375560170     9.2493413480     8.4829579860
  8      2.1620786600     7.1483080650     8.4676099500
  8      7.4983351790     7.1483080650     8.4676099500
  8      1.3604279440     7.1483080650     1.7781838550
  8      6.6966844620     7.1483080650     1.7781838550
  8      4.0267687620     6.8359384810     1.7653393690
  8      9.3630256010     6.8359384810     1.7653393690
  8     -0.5042618690     6.8359384810     8.4804541290
  8      4.8319947350     6.8359384810     8.4804541290
  8      2.4029652470     4.7172652240     1.7308665940
  8      7.7392220860     4.7172652240     1.7308665940
  8      1.1195414810     4.7172652240     8.5149273550
  8      6.4557981590     4.7172652240     8.5149273550
  8     -0.7380275340     2.5251849460     8.5701209280
  8      4.5982293900     2.5251849460     8.5701209280
  8      4.2605343180     2.5251849460     1.6756731850
  8      9.5967914770     2.5251849460     1.6756731850
  8     -0.0731766060     4.6716470290     4.0461530730
  8      5.2630802330     4.6716470290     4.0461530730
  8      3.5956832810     4.6716470290     6.1996402710
  8      8.9319401190     4.6716470290     6.1996402710
  8      2.6600211190     9.2715568110     4.0968045830
  8      7.9962776380     9.2715568110     4.0968045830
  8      0.8624856100     9.2715568110     6.1489884540
  8      6.1987421390     9.2715568110     6.1489884540
  1      0.0297011600     4.6084784360     3.0870806880
  1      5.3659577110     4.6084784360     3.0870806880
  1      3.4928055370     4.6084784360     7.1587123480
  1      8.8290626960     4.6084784360     7.1587123480
  1      2.6434788870     0.1263563350     3.1394339120
  1      7.9797357260     0.1263563350     3.1394339120
  1      0.8790278930     0.1263563350     7.1063597390
  1      6.2152845720     0.1263563350     7.1063597390
 RECIP-PRIMVEC
    0.0936986384   -0.0000000000    0.0165869029

    0.0000000000    0.1077851931   -0.0000000000

    0.0000000000    0.0000000000    0.0976010200

 RECIP-CONVVEC
    0.0936986384   -0.0000000000    0.0165869029

    0.0000000000    0.1077851931   -0.0000000000

    0.0000000000    0.0000000000    0.0976010200

 WIGNER-SEITZ-PRIMCELL
           6
 -0.5336257E+01 -0.4638856E+01 -0.4338791E+01   0.0000000E+00 -0.1000000E+01  0.4245398E-15
 -0.3522506E+01 -0.4638856E+01 -0.5907004E+01   0.0000000E+00 -0.1000000E+01  0.4245398E-15
  0.5336257E+01 -0.4638856E+01 -0.4338791E+01   0.0000000E+00 -0.1000000E+01  0.4245398E-15
  0.5336257E+01 -0.4638856E+01  0.4338791E+01   0.0000000E+00 -0.1000000E+01  0.4245398E-15
  0.3522506E+01 -0.4638856E+01  0.5907004E+01   0.0000000E+00 -0.1000000E+01  0.4245398E-15
 -0.5336257E+01 -0.4638856E+01  0.4338791E+01   0.0000000E+00 -0.1000000E+01  0.4245398E-15
           4
  0.3522506E+01 -0.4638856E+01  0.5907004E+01   0.6540478E+00 -0.7614043E-16  0.7564532E+00
  0.5336257E+01 -0.4638856E+01  0.4338791E+01   0.6540478E+00 -0.7614043E-16  0.7564532E+00
  0.5336257E+01  0.4638856E+01  0.4338791E+01   0.6540478E+00 -0.7614043E-16  0.7564532E+00
  0.3522506E+01  0.4638856E+01  0.5907004E+01   0.6540478E+00 -0.7614043E-16  0.7564532E+00
           4
  0.3522506E+01  0.4638856E+01  0.5907004E+01  -0.1743137E+00  0.2227175E-16  0.9846902E+00
 -0.5336257E+01  0.4638856E+01  0.4338791E+01  -0.1743137E+00  0.2227175E-16  0.9846902E+00
 -0.5336257E+01 -0.4638856E+01  0.4338791E+01  -0.1743137E+00  0.2227175E-16  0.9846902E+00
  0.3522506E+01 -0.4638856E+01  0.5907004E+01  -0.1743137E+00  0.2227175E-16  0.9846902E+00
           4
  0.5336257E+01 -0.4638856E+01  0.4338791E+01   0.1000000E+01  0.9573248E-16 -0.1023532E-15
  0.5336257E+01 -0.4638856E+01 -0.4338791E+01   0.1000000E+01  0.9573248E-16 -0.1023532E-15
  0.5336257E+01  0.4638856E+01 -0.4338791E+01   0.1000000E+01  0.9573248E-16 -0.1023532E-15
  0.5336257E+01  0.4638856E+01  0.4338791E+01   0.1000000E+01  0.9573248E-16 -0.1023532E-15
           4
 -0.5336257E+01  0.4638856E+01  0.4338791E+01  -0.1000000E+01  0.9573248E-16 -0.1023532E-15
 -0.5336257E+01  0.4638856E+01 -0.4338791E+01  -0.1000000E+01  0.9573248E-16 -0.1023532E-15
 -0.5336257E+01 -0.4638856E+01 -0.4338791E+01  -0.1000000E+01  0.9573248E-16 -0.1023532E-15
 -0.5336257E+01 -0.4638856E+01  0.4338791E+01  -0.1000000E+01  0.9573248E-16 -0.1023532E-15
           4
  0.5336257E+01  0.4638856E+01 -0.4338791E+01   0.1743137E+00  0.8512867E-16 -0.9846902E+00
  0.5336257E+01 -0.4638856E+01 -0.4338791E+01   0.1743137E+00  0.8512867E-16 -0.9846902E+00
 -0.3522506E+01 -0.4638856E+01 -0.5907004E+01   0.1743137E+00  0.8512867E-16 -0.9846902E+00
 -0.3522506E+01  0.4638856E+01 -0.5907004E+01   0.1743137E+00  0.8512867E-16 -0.9846902E+00
           4
 -0.3522506E+01  0.4638856E+01 -0.5907004E+01  -0.6540478E+00  0.1597069E-15 -0.7564532E+00
 -0.3522506E+01 -0.4638856E+01 -0.5907004E+01  -0.6540478E+00  0.1597069E-15 -0.7564532E+00
 -0.5336257E+01 -0.4638856E+01 -0.4338791E+01  -0.6540478E+00  0.1597069E-15 -0.7564532E+00
 -0.5336257E+01  0.4638856E+01 -0.4338791E+01  -0.6540478E+00  0.1597069E-15 -0.7564532E+00
           6
  0.3522506E+01  0.4638856E+01  0.5907004E+01   0.0000000E+00  0.1000000E+01  0.0000000E+00
  0.5336257E+01  0.4638856E+01  0.4338791E+01   0.0000000E+00  0.1000000E+01  0.0000000E+00
  0.5336257E+01  0.4638856E+01 -0.4338791E+01   0.0000000E+00  0.1000000E+01  0.0000000E+00
 -0.3522506E+01  0.4638856E+01 -0.5907004E+01   0.0000000E+00  0.1000000E+01  0.0000000E+00
 -0.5336257E+01  0.4638856E+01 -0.4338791E+01   0.0000000E+00  0.1000000E+01  0.0000000E+00
 -0.5336257E+01  0.4638856E+01  0.4338791E+01   0.0000000E+00  0.1000000E+01  0.0000000E+00
 WIGNER-SEITZ-PRIMCELL_END
 WIGNER-SEITZ-CONVCELL
           6
 -0.5336257E+01 -0.4638856E+01 -0.4338791E+01   0.0000000E+00 -0.1000000E+01  0.4245398E-15
 -0.3522506E+01 -0.4638856E+01 -0.5907004E+01   0.0000000E+00 -0.1000000E+01  0.4245398E-15
  0.5336257E+01 -0.4638856E+01 -0.4338791E+01   0.0000000E+00 -0.1000000E+01  0.4245398E-15
  0.5336257E+01 -0.4638856E+01  0.4338791E+01   0.0000000E+00 -0.1000000E+01  0.4245398E-15
  0.3522506E+01 -0.4638856E+01  0.5907004E+01   0.0000000E+00 -0.1000000E+01  0.4245398E-15
 -0.5336257E+01 -0.4638856E+01  0.4338791E+01   0.0000000E+00 -0.1000000E+01  0.4245398E-15
           4
  0.3522506E+01 -0.4638856E+01  0.5907004E+01   0.6540478E+00 -0.7614043E-16  0.7564532E+00
  0.5336257E+01 -0.4638856E+01  0.4338791E+01   0.6540478E+00 -0.7614043E-16  0.7564532E+00
  0.5336257E+01  0.4638856E+01  0.4338791E+01   0.6540478E+00 -0.7614043E-16  0.7564532E+00
  0.3522506E+01  0.4638856E+01  0.5907004E+01   0.6540478E+00 -0.7614043E-16  0.7564532E+00
           4
  0.3522506E+01  0.4638856E+01  0.5907004E+01  -0.1743137E+00  0.2227175E-16  0.9846902E+00
 -0.5336257E+01  0.4638856E+01  0.4338791E+01  -0.1743137E+00  0.2227175E-16  0.9846902E+00
 -0.5336257E+01 -0.4638856E+01  0.4338791E+01  -0.1743137E+00  0.2227175E-16  0.9846902E+00
  0.3522506E+01 -0.4638856E+01  0.5907004E+01  -0.1743137E+00  0.2227175E-16  0.9846902E+00
           4
  0.5336257E+01 -0.4638856E+01  0.4338791E+01   0.1000000E+01  0.9573248E-16 -0.1023532E-15
  0.5336257E+01 -0.4638856E+01 -0.4338791E+01   0.1000000E+01  0.9573248E-16 -0.1023532E-15
  0.5336257E+01  0.4638856E+01 -0.4338791E+01   0.1000000E+01  0.9573248E-16 -0.1023532E-15
  0.5336257E+01  0.4638856E+01  0.4338791E+01   0.1000000E+01  0.9573248E-16 -0.1023532E-15
           4
 -0.5336257E+01  0.4638856E+01  0.4338791E+01  -0.1000000E+01  0.9573248E-16 -0.1023532E-15
 -0.5336257E+01  0.4638856E+01 -0.4338791E+01  -0.1000000E+01  0.9573248E-16 -0.1023532E-15
 -0.5336257E+01 -0.4638856E+01 -0.4338791E+01  -0.1000000E+01  0.9573248E-16 -0.1023532E-15
 -0.5336257E+01 -0.4638856E+01  0.4338791E+01  -0.1000000E+01  0.9573248E-16 -0.1023532E-15
           4
  0.5336257E+01  0.4638856E+01 -0.4338791E+01   0.1743137E+00  0.8512867E-16 -0.9846902E+00
  0.5336257E+01 -0.4638856E+01 -0.4338791E+01   0.1743137E+00  0.8512867E-16 -0.9846902E+00
 -0.3522506E+01 -0.4638856E+01 -0.5907004E+01   0.1743137E+00  0.8512867E-16 -0.9846902E+00
 -0.3522506E+01  0.4638856E+01 -0.5907004E+01   0.1743137E+00  0.8512867E-16 -0.9846902E+00
           4
 -0.3522506E+01  0.4638856E+01 -0.5907004E+01  -0.6540478E+00  0.1597069E-15 -0.7564532E+00
 -0.3522506E+01 -0.4638856E+01 -0.5907004E+01  -0.6540478E+00  0.1597069E-15 -0.7564532E+00
 -0.5336257E+01 -0.4638856E+01 -0.4338791E+01  -0.6540478E+00  0.1597069E-15 -0.7564532E+00
 -0.5336257E+01  0.4638856E+01 -0.4338791E+01  -0.6540478E+00  0.1597069E-15 -0.7564532E+00
           6
  0.3522506E+01  0.4638856E+01  0.5907004E+01   0.0000000E+00  0.1000000E+01  0.0000000E+00
  0.5336257E+01  0.4638856E+01  0.4338791E+01   0.0000000E+00  0.1000000E+01  0.0000000E+00
  0.5336257E+01  0.4638856E+01 -0.4338791E+01   0.0000000E+00  0.1000000E+01  0.0000000E+00
 -0.3522506E+01  0.4638856E+01 -0.5907004E+01   0.0000000E+00  0.1000000E+01  0.0000000E+00
 -0.5336257E+01  0.4638856E+01 -0.4338791E+01   0.0000000E+00  0.1000000E+01  0.0000000E+00
 -0.5336257E+01  0.4638856E+01  0.4338791E+01   0.0000000E+00  0.1000000E+01  0.0000000E+00
 WIGNER-SEITZ-CONVCELL_END
 BRILLOUIN-ZONE-PRIMCELL
           4
 -0.5402004E-01 -0.5389260E-01  0.3221361E-01  -0.9846902E+00  0.0000000E+00 -0.1743137E+00
 -0.5402004E-01  0.5389260E-01  0.3221361E-01  -0.9846902E+00  0.0000000E+00 -0.1743137E+00
 -0.3967860E-01  0.5389260E-01 -0.4880051E-01  -0.9846902E+00  0.0000000E+00 -0.1743137E+00
 -0.3967860E-01 -0.5389260E-01 -0.4880051E-01  -0.9846902E+00  0.0000000E+00 -0.1743137E+00
           4
 -0.3967860E-01  0.5389260E-01  0.4880051E-01  -0.7564532E+00 -0.2064336E-15  0.6540478E+00
 -0.5402004E-01  0.5389260E-01  0.3221361E-01  -0.7564532E+00 -0.2064336E-15  0.6540478E+00
 -0.5402004E-01 -0.5389260E-01  0.3221361E-01  -0.7564532E+00 -0.2064336E-15  0.6540478E+00
 -0.3967860E-01 -0.5389260E-01  0.4880051E-01  -0.7564532E+00 -0.2064336E-15  0.6540478E+00
           6
  0.3967860E-01 -0.5389260E-01  0.4880051E-01   0.0000000E+00 -0.1000000E+01  0.6589442E-15
 -0.3967860E-01 -0.5389260E-01  0.4880051E-01   0.0000000E+00 -0.1000000E+01  0.6589442E-15
 -0.5402004E-01 -0.5389260E-01  0.3221361E-01   0.0000000E+00 -0.1000000E+01  0.6589442E-15
 -0.3967860E-01 -0.5389260E-01 -0.4880051E-01   0.0000000E+00 -0.1000000E+01  0.6589442E-15
  0.3967860E-01 -0.5389260E-01 -0.4880051E-01   0.0000000E+00 -0.1000000E+01  0.6589442E-15
  0.5402004E-01 -0.5389260E-01 -0.3221361E-01   0.0000000E+00 -0.1000000E+01  0.6589442E-15
           4
 -0.3967860E-01  0.5389260E-01 -0.4880051E-01   0.0000000E+00  0.0000000E+00 -0.1000000E+01
  0.3967860E-01  0.5389260E-01 -0.4880051E-01   0.0000000E+00  0.0000000E+00 -0.1000000E+01
  0.3967860E-01 -0.5389260E-01 -0.4880051E-01   0.0000000E+00  0.0000000E+00 -0.1000000E+01
 -0.3967860E-01 -0.5389260E-01 -0.4880051E-01   0.0000000E+00  0.0000000E+00 -0.1000000E+01
           4
 -0.3967860E-01 -0.5389260E-01  0.4880051E-01  -0.0000000E+00 -0.0000000E+00  0.1000000E+01
  0.3967860E-01 -0.5389260E-01  0.4880051E-01  -0.0000000E+00 -0.0000000E+00  0.1000000E+01
  0.3967860E-01  0.5389260E-01  0.4880051E-01  -0.0000000E+00 -0.0000000E+00  0.1000000E+01
 -0.3967860E-01  0.5389260E-01  0.4880051E-01  -0.0000000E+00 -0.0000000E+00  0.1000000E+01
           6
  0.5402004E-01  0.5389260E-01 -0.3221361E-01  -0.0000000E+00  0.1000000E+01 -0.0000000E+00
  0.3967860E-01  0.5389260E-01 -0.4880051E-01  -0.0000000E+00  0.1000000E+01 -0.0000000E+00
 -0.3967860E-01  0.5389260E-01 -0.4880051E-01  -0.0000000E+00  0.1000000E+01 -0.0000000E+00
 -0.5402004E-01  0.5389260E-01  0.3221361E-01  -0.0000000E+00  0.1000000E+01 -0.0000000E+00
 -0.3967860E-01  0.5389260E-01  0.4880051E-01  -0.0000000E+00  0.1000000E+01 -0.0000000E+00
  0.3967860E-01  0.5389260E-01  0.4880051E-01  -0.0000000E+00  0.1000000E+01 -0.0000000E+00
           4
  0.5402004E-01  0.5389260E-01 -0.3221361E-01   0.7564532E+00  0.1376224E-15 -0.6540478E+00
  0.5402004E-01 -0.5389260E-01 -0.3221361E-01   0.7564532E+00  0.1376224E-15 -0.6540478E+00
  0.3967860E-01 -0.5389260E-01 -0.4880051E-01   0.7564532E+00  0.1376224E-15 -0.6540478E+00
  0.3967860E-01  0.5389260E-01 -0.4880051E-01   0.7564532E+00  0.1376224E-15 -0.6540478E+00
           4
  0.5402004E-01 -0.5389260E-01 -0.3221361E-01   0.9846902E+00 -0.2445232E-16  0.1743137E+00
  0.5402004E-01  0.5389260E-01 -0.3221361E-01   0.9846902E+00 -0.2445232E-16  0.1743137E+00
  0.3967860E-01  0.5389260E-01  0.4880051E-01   0.9846902E+00 -0.2445232E-16  0.1743137E+00
  0.3967860E-01 -0.5389260E-01  0.4880051E-01   0.9846902E+00 -0.2445232E-16  0.1743137E+00
 BRILLOUIN-ZONE-PRIMCELL_END
 BRILLOUIN-ZONE-CONVCELL
           4
 -0.5402004E-01 -0.5389260E-01  0.3221361E-01  -0.9846902E+00  0.0000000E+00 -0.1743137E+00
 -0.5402004E-01  0.5389260E-01  0.3221361E-01  -0.9846902E+00  0.0000000E+00 -0.1743137E+00
 -0.3967860E-01  0.5389260E-01 -0.4880051E-01  -0.9846902E+00  0.0000000E+00 -0.1743137E+00
 -0.3967860E-01 -0.5389260E-01 -0.4880051E-01  -0.9846902E+00  0.0000000E+00 -0.1743137E+00
           4
 -0.3967860E-01  0.5389260E-01  0.4880051E-01  -0.7564532E+00 -0.2064336E-15  0.6540478E+00
 -0.5402004E-01  0.5389260E-01  0.3221361E-01  -0.7564532E+00 -0.2064336E-15  0.6540478E+00
 -0.5402004E-01 -0.5389260E-01  0.3221361E-01  -0.7564532E+00 -0.2064336E-15  0.6540478E+00
 -0.3967860E-01 -0.5389260E-01  0.4880051E-01  -0.7564532E+00 -0.2064336E-15  0.6540478E+00
           6
  0.3967860E-01 -0.5389260E-01  0.4880051E-01   0.0000000E+00 -0.1000000E+01  0.6589442E-15
 -0.3967860E-01 -0.5389260E-01  0.4880051E-01   0.0000000E+00 -0.1000000E+01  0.6589442E-15
 -0.5402004E-01 -0.5389260E-01  0.3221361E-01   0.0000000E+00 -0.1000000E+01  0.6589442E-15
 -0.3967860E-01 -0.5389260E-01 -0.4880051E-01   0.0000000E+00 -0.1000000E+01  0.6589442E-15
  0.3967860E-01 -0.5389260E-01 -0.4880051E-01   0.0000000E+00 -0.1000000E+01  0.6589442E-15
  0.5402004E-01 -0.5389260E-01 -0.3221361E-01   0.0000000E+00 -0.1000000E+01  0.6589442E-15
           4
 -0.3967860E-01  0.5389260E-01 -0.4880051E-01   0.0000000E+00  0.0000000E+00 -0.1000000E+01
  0.3967860E-01  0.5389260E-01 -0.4880051E-01   0.0000000E+00  0.0000000E+00 -0.1000000E+01
  0.3967860E-01 -0.5389260E-01 -0.4880051E-01   0.0000000E+00  0.0000000E+00 -0.1000000E+01
 -0.3967860E-01 -0.5389260E-01 -0.4880051E-01   0.0000000E+00  0.0000000E+00 -0.1000000E+01
           4
 -0.3967860E-01 -0.5389260E-01  0.4880051E-01  -0.0000000E+00 -0.0000000E+00  0.1000000E+01
  0.3967860E-01 -0.5389260E-01  0.4880051E-01  -0.0000000E+00 -0.0000000E+00  0.1000000E+01
  0.3967860E-01  0.5389260E-01  0.4880051E-01  -0.0000000E+00 -0.0000000E+00  0.1000000E+01
 -0.3967860E-01  0.5389260E-01  0.4880051E-01  -0.0000000E+00 -0.0000000E+00  0.1000000E+01
           6
  0.5402004E-01  0.5389260E-01 -0.3221361E-01  -0.0000000E+00  0.1000000E+01 -0.0000000E+00
  0.3967860E-01  0.5389260E-01 -0.4880051E-01  -0.0000000E+00  0.1000000E+01 -0.0000000E+00
 -0.3967860E-01  0.5389260E-01 -0.4880051E-01  -0.0000000E+00  0.1000000E+01 -0.0000000E+00
 -0.5402004E-01  0.5389260E-01  0.3221361E-01  -0.0000000E+00  0.1000000E+01 -0.0000000E+00
 -0.3967860E-01  0.5389260E-01  0.4880051E-01  -0.0000000E+00  0.1000000E+01 -0.0000000E+00
  0.3967860E-01  0.5389260E-01  0.4880051E-01  -0.0000000E+00  0.1000000E+01 -0.0000000E+00
           4
  0.5402004E-01  0.5389260E-01 -0.3221361E-01   0.7564532E+00  0.1376224E-15 -0.6540478E+00
  0.5402004E-01 -0.5389260E-01 -0.3221361E-01   0.7564532E+00  0.1376224E-15 -0.6540478E+00
  0.3967860E-01 -0.5389260E-01 -0.4880051E-01   0.7564532E+00  0.1376224E-15 -0.6540478E+00
  0.3967860E-01  0.5389260E-01 -0.4880051E-01   0.7564532E+00  0.1376224E-15 -0.6540478E+00
           4
  0.5402004E-01 -0.5389260E-01 -0.3221361E-01   0.9846902E+00 -0.2445232E-16  0.1743137E+00
  0.5402004E-01  0.5389260E-01 -0.3221361E-01   0.9846902E+00 -0.2445232E-16  0.1743137E+00
  0.3967860E-01  0.5389260E-01  0.4880051E-01   0.9846902E+00 -0.2445232E-16  0.1743137E+00
  0.3967860E-01 -0.5389260E-01  0.4880051E-01   0.9846902E+00 -0.2445232E-16  0.1743137E+00
 BRILLOUIN-ZONE-CONVCELL_END
 ATOMS
   19    0.0000000000    4.5342593540    0.0000000000   -0.0000205200   -0.0007166500   -0.0000167000
   19    5.3362568390    4.5342593540    0.0000000000    0.0000205200   -0.0007166500    0.0000167000
   19    2.6681282590    0.0862045680    0.0000000000    0.0000000000    0.0005990200    0.0000000000
   19    8.0043852580    0.0862045680    0.0000000000    0.0000000000    0.0006023200    0.0000000000
   12   -0.9068754500    0.0370929890    5.1228969740    0.0000453500   -0.0002914500   -0.0000053900
   12    4.4293813890    0.0370929890    5.1228969740   -0.0000453500   -0.0002914500    0.0000053900
   12   -0.9068754500    3.0829879740    5.1228969740    0.0000234900   -0.0001246900   -0.0000149300
   12    4.4293813890    3.0829879740    5.1228969740   -0.0000234900   -0.0001246900    0.0000149300
   12   -0.9068754500    6.1779604600    5.1228969740    0.0000798400    0.0003261600   -0.0000424200