
     Program PWSCF v.7.3.1 starts on  4Jan2025 at 18:38:59 

     This program is part of the open-source Quantum ESPRESSO suite
     for quantum simulation of materials; please cite
         "P. Giannozzi et al., J. Phys.:Condens. Matter 21 395502 (2009);
         "P. Giannozzi et al., J. Phys.:Condens. Matter 29 465901 (2017);
         "P. Giannozzi et al., J. Chem. Phys. 152 154105 (2020);
          URL http://www.quantum-espresso.org", 
     in publications or presentations arising from this work. More details at
     http://www.quantum-espresso.org/quote

     Parallel version (MPI), running on     6 processors

     MPI processes distributed on     1 nodes
     2152 MiB available memory on the printing compute node when the environment starts

     Reading input from relax.in

     Current dimensions of program PWSCF are:
     Max number of different atomic species (ntypx) = 10
     Max number of k-points (npk) =  40000
     Max angular momentum in pseudopotentials (lmaxx) =  4
     file Al.pbe-n-kjpaw_psl.1.0.0.UPF: wavefunction(s)  3S 3P renormalized
     file Fe.pbe-spn-kjpaw_psl.1.0.0.UPF: wavefunction(s)  3P 3D renormalized
     file Fe.pbe-spn-kjpaw_psl.1.0.0.UPF: wavefunction(s)  3P 3D renormalized
     file H.pbe-kjpaw_psl.1.0.0.UPF: wavefunction(s)  1S renormalized
     file K.pbe-spn-kjpaw_psl.1.0.0.UPF: wavefunction(s)  3S renormalized
     file Mg.pbe-spnl-kjpaw_psl.1.0.0.UPF: wavefunction(s)  2P renormalized
     file O.pbe-n-kjpaw_psl.1.0.0.UPF: wavefunction(s)  2S 2P renormalized
     file Si.pbe-n-kjpaw_psl.1.0.0.UPF: wavefunction(s)  3S 3P renormalized

     R & G space division:  proc/nbgrp/npool/nimage =       6
     Subspace diagonalization in iterative solution of the eigenvalue problem:
     one sub-group per band group will be used
     custom distributed-memory algorithm (size of sub-group:  2*  2 procs)


     Parallelization info
     --------------------
     sticks:   dense  smooth     PW     G-vecs:    dense   smooth      PW
     Min        2251    1125    297               202600    71638    9673
     Max        2252    1126    298               202603    71640    9674
     Sum       13511    6753   1783              1215615   429835   58039

     Using Slab Decomposition



     bravais-lattice index     =          -12
     lattice parameter (alat)  =      20.1681  a.u.
     unit-cell volume          =    6846.2028 (a.u.)^3
     number of atoms/cell      =           88
     number of atomic types    =            8
     number of electrons       =       524.00
     number of Kohn-Sham states=          314
     kinetic-energy cutoff     =      60.0000  Ry
     charge density cutoff     =     480.0000  Ry
     scf convergence threshold =      1.0E-06
     mixing beta               =       0.7000
     number of iterations used =            8  plain     mixing
     energy convergence thresh.=      1.0E-04
     force convergence thresh. =      1.0E-03
     Exchange-correlation= SLA  PW   PBX  PBC
                           (   1   4   3   4   0   0   0)
     nstep                     =           50


     celldm(1)=  20.168128  celldm(2)=   0.869309  celldm(3)=   0.974943
     celldm(4)=   0.000000  celldm(5)=  -0.174314  celldm(6)=   0.000000

     crystal axes: (cart. coord. in units of alat)
               a(1) = (   1.000000   0.000000   0.000000 )  
               a(2) = (   0.000000   0.869309   0.000000 )  
               a(3) = (  -0.169946   0.000000   0.960017 )  

     reciprocal axes: (cart. coord. in units 2 pi/alat)
               b(1) = (  1.000000 -0.000000  0.177024 )  
               b(2) = (  0.000000  1.150339 -0.000000 )  
               b(3) = (  0.000000  0.000000  1.041649 )  


     PseudoPot. # 1 for Al read from file:
     ./../../pseudos/Al.pbe-n-kjpaw_psl.1.0.0.UPF
     MD5 check sum: 502b6b27b9c6270cab5dd1084b96fa6d
     Pseudo is Projector augmented-wave + core cor, Zval =  3.0
     Generated using &quot;atomic&quot; code by A. Dal Corso  v.6.3
     Shape of augmentation charge: PSQ
     Using radial grid of 1135 points,  6 beta functions with: 
                l(1) =   0
                l(2) =   0
                l(3) =   1
                l(4) =   1
                l(5) =   2
                l(6) =   2
     Q(r) pseudized with 0 coefficients 


     PseudoPot. # 2 for Fe read from file:
     ./../../pseudos/Fe.pbe-spn-kjpaw_psl.1.0.0.UPF
     MD5 check sum: fc81f059e5c5069939230b1155715ae8
     Pseudo is Projector augmented-wave + core cor, Zval = 16.0
     Generated using &quot;atomic&quot; code by A. Dal Corso  v.6.3
     Shape of augmentation charge: PSQ
     Using radial grid of 1191 points,  6 beta functions with: 
                l(1) =   0
                l(2) =   0
                l(3) =   1
                l(4) =   1
                l(5) =   2
                l(6) =   2
     Q(r) pseudized with 0 coefficients 


     PseudoPot. # 3 for Fe read from file:
     ./../../pseudos/Fe.pbe-spn-kjpaw_psl.1.0.0.UPF
     MD5 check sum: fc81f059e5c5069939230b1155715ae8
     Pseudo is Projector augmented-wave + core cor, Zval = 16.0
     Generated using &quot;atomic&quot; code by A. Dal Corso  v.6.3
     Shape of augmentation charge: PSQ
     Using radial grid of 1191 points,  6 beta functions with: 
                l(1) =   0
                l(2) =   0
                l(3) =   1
                l(4) =   1
                l(5) =   2
                l(6) =   2
     Q(r) pseudized with 0 coefficients 


     PseudoPot. # 4 for H  read from file:
     ./../../pseudos/H.pbe-kjpaw_psl.1.0.0.UPF
     MD5 check sum: d81a744832360e4a8af0b0b5b123bc2a
     Pseudo is Projector augmented-wave, Zval =  1.0
     Generated using &quot;atomic&quot; code by A. Dal Corso  v.6.3MaX
     Shape of augmentation charge: PSQ
     Using radial grid of  929 points,  2 beta functions with: 
                l(1) =   0
                l(2) =   0
     Q(r) pseudized with 0 coefficients 


     PseudoPot. # 5 for K  read from file:
     ./../../pseudos/K.pbe-spn-kjpaw_psl.1.0.0.UPF
     MD5 check sum: 34cc42130a09071ebe376fd42eb21491
     Pseudo is Projector augmented-wave + core cor, Zval =  9.0
     Generated using &quot;atomic&quot; code by A. Dal Corso  v.6.2.2
     Shape of augmentation charge: PSQ
     Using radial grid of 1165 points,  6 beta functions with: 
                l(1) =   0
                l(2) =   0
                l(3) =   1
                l(4) =   1
                l(5) =   2
                l(6) =   2
     Q(r) pseudized with 0 coefficients 


     PseudoPot. # 6 for Mg read from file:
     ./../../pseudos/Mg.pbe-spnl-kjpaw_psl.1.0.0.UPF
     MD5 check sum: fda14e0d92a6a9a5ebed782e5a4b3067
     Pseudo is Projector augmented-wave + core cor, Zval = 10.0
     Generated using &quot;atomic&quot; code by A. Dal Corso  v.6.3
     Shape of augmentation charge: PSQ
     Using radial grid of 1129 points,  4 beta functions with: 
                l(1) =   0
                l(2) =   0
                l(3) =   1
                l(4) =   1
     Q(r) pseudized with 0 coefficients 


     PseudoPot. # 7 for O  read from file:
     ./../../pseudos/O.pbe-n-kjpaw_psl.1.0.0.UPF
     MD5 check sum: e99d9cef9b487d1ca56f5b95ecd0fd7a
     Pseudo is Projector augmented-wave + core cor, Zval =  6.0
     Generated using &quot;atomic&quot; code by A. Dal Corso  v.6.3
     Shape of augmentation charge: PSQ
     Using radial grid of 1095 points,  4 beta functions with: 
                l(1) =   0
                l(2) =   0
                l(3) =   1
                l(4) =   1
     Q(r) pseudized with 0 coefficients 


     PseudoPot. # 8 for Si read from file:
     ./../../pseudos/Si.pbe-n-kjpaw_psl.1.0.0.UPF
     MD5 check sum: c39c59da582df4a0d9f10159256ea34e
     Pseudo is Projector augmented-wave + core cor, Zval =  4.0
     Generated using &quot;atomic&quot; code by A. Dal Corso  v.6.3
     Shape of augmentation charge: PSQ
     Using radial grid of 1141 points,  6 beta functions with: 
                l(1) =   0
                l(2) =   0
                l(3) =   1
                l(4) =   1
                l(5) =   2
                l(6) =   2
     Q(r) pseudized with 0 coefficients 


     atomic species   valence    mass     pseudopotential
     Al                3.00    26.98154     Al( 1.00)
     Fe1              16.00    55.84500     Fe( 1.00)
     Fe2              16.00    55.84500     Fe( 1.00)
     H                 1.00     1.00794     H ( 1.00)
     K                 9.00    39.09830     K ( 1.00)
     Mg               10.00    24.30500     Mg( 1.00)
     O                 6.00    15.99940     O ( 1.00)
     Si                4.00    28.08550     Si( 1.00)

     Starting magnetic structure 
     atomic species   magnetization
     Al              0.000
     Fe1             0.300
     Fe2            -0.300
     H               0.000
     K               0.000
     Mg              0.000
     O               0.000
     Si              0.000

      2 Sym. Ops. (no inversion) found ( 1 have fractional translation)


                                    s                        frac. trans.

      isym =  1     identity                                     

 cryst.   s( 1) = (     1          0          0      )
                  (     0          1          0      )
                  (     0          0          1      )

 cart.    s( 1) = (  1.0000000  0.0000000  0.0000000 )
                  (  0.0000000  1.0000000  0.0000000 )
                  (  0.0000000  0.0000000  1.0000000 )


      isym =  2     180 deg rotation - cart. axis [0,1,0]        

 cryst.   s( 2) = (    -1          0          0      )    f =(  0.5000000 )
                  (     0          1          0      )       (  0.0000000 )
                  (     0          0         -1      )       (  0.0000000 )

 cart.    s( 2) = ( -1.0000000  0.0000000  0.0000000 )    f =(  0.5000000 )
                  (  0.0000000  1.0000000  0.0000000 )       (  0.0000000 )
                  (  0.0000000  0.0000000 -1.0000000 )       (  0.0000000 )


     point group C_2  (2)   
     there are  2 classes
     the character table:

       E     C2   
A      1.00  1.00
B      1.00 -1.00

     the symmetry operations in each class and the name of the first element:

     E        1
          identity                                               
     C2       2
          180 deg rotation - cart. axis [0,1,0]                  

   Cartesian axes

     site n.     atom                  positions (alat units)
         1        K      tau(   1) = (   0.0000000   0.4248539   0.0000000  )
         2        K      tau(   2) = (   0.5000000   0.4248539   0.0000000  )
         3        K      tau(   3) = (   0.2500000   0.0080773   0.0000000  )
         4        K      tau(   4) = (   0.7500000   0.0080773   0.0000000  )
         5        Mg     tau(   5) = (  -0.0849732   0.0034756   0.4800083  )
         6        Mg     tau(   6) = (   0.4150268   0.0034756   0.4800083  )
         7        Mg     tau(   7) = (  -0.0849732   0.2888718   0.4800083  )
         8        Mg     tau(   8) = (   0.4150268   0.2888718   0.4800083  )
         9        Mg     tau(   9) = (  -0.0849732   0.5788665   0.4800083  )
        10        Mg     tau(  10) = (   0.4150268   0.5788665   0.4800083  )
        11        Mg     tau(  11) = (   0.1650268   0.7258935   0.4800083  )
        12        Mg     tau(  12) = (   0.6650268   0.7258935   0.4800083  )
        13        Mg     tau(  13) = (   0.1650268   0.1472844   0.4800083  )
        14        Mg     tau(  14) = (   0.6650268   0.1472844   0.4800083  )
        15        Fe1    tau(  15) = (   0.1650268   0.4268724   0.4800083  )
        16        Fe2    tau(  16) = (   0.6650268   0.4268724   0.4800083  )
        17        Si     tau(  17) = (   0.0038011   0.1431967   0.2172113  )
        18        Si     tau(  18) = (   0.5038011   0.1431967   0.2172113  )
        19        Si     tau(  19) = (   0.3262526   0.1431967   0.7428053  )
        20        Si     tau(  20) = (   0.8262526   0.1431967   0.7428053  )
        21        Si     tau(  21) = (   0.3361473   0.7252565   0.7368591  )
        22        Si     tau(  22) = (   0.8361473   0.7252565   0.7368591  )
        23        Si     tau(  23) = (  -0.0060936   0.7252565   0.2231575  )
        24        Si     tau(  24) = (   0.4939064   0.7252565   0.2231575  )
        25        Si     tau(  25) = (   0.2439631   0.5804373   0.2216193  )
        26        Si     tau(  26) = (   0.7439631   0.5804373   0.2216193  )
        27        Si     tau(  27) = (   0.0860906   0.5804373   0.7383973  )
        28        Si     tau(  28) = (   0.5860906   0.5804373   0.7383973  )
        29        Al     tau(  29) = (   0.0756802   0.2880376   0.7406365  )
        30        Al     tau(  30) = (   0.5756802   0.2880376   0.7406365  )
        31        Al     tau(  31) = (   0.2543735   0.2880376   0.2193801  )
        32        Al     tau(  32) = (   0.7543734   0.2880376   0.2193801  )
        33        O      tau(  33) = (  -0.0015201   0.1416931   0.3703836  )
        34        O      tau(  34) = (   0.4984799   0.1416931   0.3703836  )
        35        O      tau(  35) = (   0.3315738   0.1416931   0.5896330  )
        36        O      tau(  36) = (   0.8315738   0.1416931   0.5896330  )
        37        O      tau(  37) = (   0.3333814   0.7245409   0.5849295  )
        38        O      tau(  38) = (   0.8333815   0.7245409   0.5849295  )
        39        O      tau(  39) = (  -0.0033277   0.7245409   0.3750870  )
        40        O      tau(  40) = (   0.4966723   0.7245409   0.3750870  )
        41        O      tau(  41) = (   0.2480354   0.5858215   0.3740278  )
        42        O      tau(  42) = (   0.7480354   0.5858215   0.3740278  )
        43        O      tau(  43) = (   0.0820183   0.5858215   0.5859888  )
        44        O      tau(  44) = (   0.5820183   0.5858215   0.5859888  )
        45        O      tau(  45) = (   0.0770680   0.2850806   0.5776372  )
        46        O      tau(  46) = (   0.5770680   0.2850806   0.5776372  )
        47        O      tau(  47) = (   0.2529857   0.2850806   0.3823794  )
        48        O      tau(  48) = (   0.7529857   0.2850806   0.3823794  )
        49        O      tau(  49) = (   0.1413149   0.1806113   0.1624166  )
        50        O      tau(  50) = (   0.6413149   0.1806113   0.1624166  )
        51        O      tau(  51) = (   0.1887388   0.1806113   0.7976000  )
        52        O      tau(  52) = (   0.6887388   0.1806113   0.7976000  )
        53        O      tau(  53) = (  -0.0261225   0.8666507   0.1651753  )
        54        O      tau(  54) = (   0.4738775   0.8666507   0.1651753  )
        55        O      tau(  55) = (   0.3561762   0.8666507   0.7948413  )
        56        O      tau(  56) = (   0.8561762   0.8666507   0.7948413  )
        57        O      tau(  57) = (   0.2025835   0.6697868   0.7934032  )
        58        O      tau(  58) = (   0.7025835   0.6697868   0.7934032  )
        59        O      tau(  59) = (   0.1274702   0.6697868   0.1666133  )
        60        O      tau(  60) = (   0.6274702   0.6697868   0.1666133  )
        61        O      tau(  61) = (   0.3773027   0.6405182   0.1654098  )
        62        O      tau(  62) = (   0.8773027   0.6405182   0.1654098  )
        63        O      tau(  63) = (  -0.0472490   0.6405182   0.7946067  )
        64        O      tau(  64) = (   0.4527510   0.6405182   0.7946067  )
        65        O      tau(  65) = (   0.2251545   0.4420013   0.1621798  )
        66        O      tau(  66) = (   0.7251545   0.4420013   0.1621798  )
        67        O      tau(  67) = (   0.1048992   0.4420013   0.7978368  )
        68        O      tau(  68) = (   0.6048992   0.4420013   0.7978368  )
        69        O      tau(  69) = (  -0.0691525   0.2366064   0.8030084  )
        70        O      tau(  70) = (   0.4308475   0.2366064   0.8030084  )
        71        O      tau(  71) = (   0.3992062   0.2366064   0.1570082  )
        72        O      tau(  72) = (   0.8992062   0.2366064   0.1570082  )
        73        O      tau(  73) = (  -0.0068567   0.4377270   0.3791189  )
        74        O      tau(  74) = (   0.4931433   0.4377270   0.3791189  )
        75        O      tau(  75) = (   0.3369104   0.4377270   0.5808976  )
        76        O      tau(  76) = (   0.8369104   0.4377270   0.5808976  )
        77        O      tau(  77) = (   0.2492402   0.8687323   0.3838649  )
        78        O      tau(  78) = (   0.7492402   0.8687323   0.3838649  )
        79        O      tau(  79) = (   0.0808135   0.8687323   0.5761516  )
        80        O      tau(  80) = (   0.5808135   0.8687323   0.5761516  )
        81        H      tau(  81) = (   0.0027828   0.4318082   0.2892552  )
        82        H      tau(  82) = (   0.5027828   0.4318082   0.2892552  )
        83        H      tau(  83) = (   0.3272709   0.4318082   0.6707614  )
        84        H      tau(  84) = (   0.8272709   0.4318082   0.6707614  )
        85        H      tau(  85) = (   0.2476903   0.0118394   0.2941606  )
        86        H      tau(  86) = (   0.7476903   0.0118394   0.2941606  )
        87        H      tau(  87) = (   0.0823635   0.0118394   0.6658560  )
        88        H      tau(  88) = (   0.5823634   0.0118394   0.6658560  )

     --------------------------------------------
     DFT-D3 Dispersion Correction (3-body terms):
     --------------------------------------------
       Reference C6 values for interpolation: 

         atom   Coordination number   C6
         H          0.912             6.05
         H          0.000            15.18
         O          0.000            31.01
         O          0.993            25.63
         O          1.989            20.74
         Mg         0.000          1366.75
         Mg         0.963           902.54
         Mg         1.950           351.12
         Al         0.000          1081.08
         Al         0.965           875.51
         Al         1.931           513.50
         Al         2.915           307.19
         Si         0.000           635.71
         Si         0.951           540.53
         Si         1.944           466.25
         Si         2.941           443.01
         Si         3.868           299.55
         K          0.000          9967.00
         K          0.977           676.04
         Fe1        0.000           982.67
         Fe1        1.648           409.99
         Fe1        9.138           219.01
         Fe2        0.000           982.67
         Fe2        1.648           409.99
         Fe2        9.138           219.01

       Values used:

         atom   Coordination number  R0_AB[au]  C6      C8
         K         11.800            4.007    676.04 129074.98
         K         11.800            4.007    676.04 129074.98
         K         12.137            4.007    676.04 129074.98
         K         12.137            4.007    676.04 129074.98
         Mg        11.651            3.292    351.12  31436.69
         Mg        11.651            3.292    351.12  31436.69
         Mg        11.356            3.292    351.12  31436.69
         Mg        11.356            3.292    351.12  31436.69
         Mg        10.852            3.292    351.12  31436.69
         Mg        10.852            3.292    351.12  31436.69
         Mg        11.187            3.292    351.12  31436.69
         Mg        11.187            3.292    351.12  31436.69
         Mg        11.746            3.292    351.12  31436.69
         Mg        11.746            3.292    351.12  31436.69
         Fe1        7.155            3.252    219.01  20487.87
         Fe2        7.155            3.252    219.01  20487.87
         Si         6.692            3.583    299.55  21425.58
         Si         6.692            3.583    299.55  21425.58
         Si         6.692            3.583    299.55  21425.58
         Si         6.692            3.583    299.55  21425.58
         Si         6.206            3.583    299.55  21425.58
         Si         6.206            3.583    299.55  21425.58
         Si         6.206            3.583    299.55  21425.58
         Si         6.206            3.583    299.55  21425.58
         Si         6.078            3.583    299.55  21425.58
         Si         6.078            3.583    299.55  21425.58
         Si         6.078            3.583    299.55  21425.58
         Si         6.078            3.583    299.55  21425.58
         Al         7.319            3.789    307.19  29441.29
         Al         7.319            3.789    307.19  29441.29
         Al         7.319            3.789    307.19  29441.29
         Al         7.319            3.789    307.19  29441.29
         O          3.900            2.345     20.74    418.58
         O          3.900            2.345     20.74    418.58
         O          3.900            2.345     20.74    418.58
         O          3.900            2.345     20.74    418.58
         O          3.904            2.345     20.74    418.58
         O          3.904            2.345     20.74    418.58
         O          3.904            2.345     20.74    418.58
         O          3.904            2.345     20.74    418.58
         O          3.481            2.345     20.74    418.58
         O          3.481            2.345     20.74    418.58
         O          3.481            2.345     20.74    418.58
         O          3.481            2.345     20.74    418.58
         O          3.789            2.345     20.74    418.58
         O          3.789            2.345     20.74    418.58
         O          3.789            2.345     20.74    418.58
         O          3.789            2.345     20.74    418.58
         O          3.162            2.345     20.74    418.58
         O          3.162            2.345     20.74    418.58
         O          3.162            2.345     20.74    418.58
         O          3.162            2.345     20.74    418.58
         O          3.044            2.345     20.74    418.58
         O          3.044            2.345     20.74    418.58
         O          3.044            2.345     20.74    418.58
         O          3.044            2.345     20.74    418.58
         O          2.851            2.345     20.74    418.58
         O          2.851            2.345     20.74    418.58
         O          2.851            2.345     20.74    418.58
         O          2.851            2.345     20.74    418.58
         O          2.843            2.345     20.74    418.58
         O          2.843            2.345     20.74    418.58
         O          2.843            2.345     20.74    418.58
         O          2.843            2.345     20.74    418.58
         O          3.054            2.345     20.74    418.58
         O          3.054            2.345     20.74    418.58
         O          3.054            2.345     20.74    418.58
         O          3.054            2.345     20.74    418.58
         O          3.226            2.345     20.74    418.58
         O          3.226            2.345     20.74    418.58
         O          3.226            2.345     20.74    418.58
         O          3.226            2.345     20.74    418.58
         O          3.690            2.345     20.74    418.58
         O          3.690            2.345     20.74    418.58
         O          3.690            2.345     20.74    418.58
         O          3.690            2.345     20.74    418.58
         O          3.987            2.345     20.74    418.58
         O          3.987            2.345     20.74    418.58
         O          3.987            2.345     20.74    418.58
         O          3.987            2.345     20.74    418.58
         H          1.225            2.062      6.08     73.48
         H          1.225            2.062      6.08     73.48
         H          1.225            2.062      6.08     73.48
         H          1.225            2.062      6.08     73.48
         H          1.236            2.062      6.08     73.45
         H          1.236            2.062      6.08     73.45
         H          1.236            2.062      6.08     73.45
         H          1.236            2.062      6.08     73.45

         Molecular C6 ( Ry / a.u.^6 ) =    661237.17


   Crystallographic axes

     site n.     atom                  positions (cryst. coord.)
         1        K      tau(   1) = (  0.0000000  0.4887260  0.0000000  )
         2        K      tau(   2) = (  0.5000000  0.4887260  0.0000000  )
         3        K      tau(   3) = (  0.2500000  0.0092916  0.0000000  )
         4        K      tau(   4) = (  0.7500000  0.0092916  0.0000000  )
         5        Mg     tau(   5) = (  0.0000000  0.0039981  0.5000000  )
         6        Mg     tau(   6) = (  0.5000000  0.0039981  0.5000000  )
         7        Mg     tau(   7) = (  0.0000000  0.3323005  0.5000000  )
         8        Mg     tau(   8) = (  0.5000000  0.3323005  0.5000000  )
         9        Mg     tau(   9) = (  0.0000000  0.6658927  0.5000000  )
        10        Mg     tau(  10) = (  0.5000000  0.6658927  0.5000000  )
        11        Mg     tau(  11) = (  0.2500000  0.8350236  0.5000000  )
        12        Mg     tau(  12) = (  0.7500000  0.8350236  0.5000000  )
        13        Mg     tau(  13) = (  0.2500000  0.1694269  0.5000000  )
        14        Mg     tau(  14) = (  0.7500000  0.1694269  0.5000000  )
        15        Fe1    tau(  15) = (  0.2500000  0.4910479  0.5000000  )
        16        Fe2    tau(  16) = (  0.7500000  0.4910479  0.5000000  )
        17        Si     tau(  17) = (  0.0422528  0.1647247  0.2262579  )
        18        Si     tau(  18) = (  0.5422528  0.1647247  0.2262579  )
        19        Si     tau(  19) = (  0.4577473  0.1647247  0.7737421  )
        20        Si     tau(  20) = (  0.9577472  0.1647247  0.7737421  )
        21        Si     tau(  21) = (  0.4665893  0.8342908  0.7675483  )
        22        Si     tau(  22) = (  0.9665893  0.8342908  0.7675483  )
        23        Si     tau(  23) = (  0.0334107  0.8342908  0.2324517  )
        24        Si     tau(  24) = (  0.5334107  0.8342908  0.2324517  )
        25        Si     tau(  25) = (  0.2831951  0.6676996  0.2308494  )
        26        Si     tau(  26) = (  0.7831951  0.6676996  0.2308494  )
        27        Si     tau(  27) = (  0.2168050  0.6676996  0.7691505  )
        28        Si     tau(  28) = (  0.7168050  0.6676996  0.7691505  )
        29        Al     tau(  29) = (  0.2067910  0.3313409  0.7714830  )
        30        Al     tau(  30) = (  0.7067910  0.3313409  0.7714830  )
        31        Al     tau(  31) = (  0.2932091  0.3313409  0.2285170  )
        32        Al     tau(  32) = (  0.7932091  0.3313409  0.2285170  )
        33        O      tau(  33) = (  0.0640468  0.1629951  0.3858095  )
        34        O      tau(  34) = (  0.5640468  0.1629951  0.3858095  )
        35        O      tau(  35) = (  0.4359532  0.1629951  0.6141904  )
        36        O      tau(  36) = (  0.9359533  0.1629951  0.6141904  )
        37        O      tau(  37) = (  0.4369282  0.8334676  0.6092910  )
        38        O      tau(  38) = (  0.9369283  0.8334676  0.6092910  )
        39        O      tau(  39) = (  0.0630718  0.8334676  0.3907089  )
        40        O      tau(  40) = (  0.5630718  0.8334676  0.3907089  )
        41        O      tau(  41) = (  0.3142475  0.6738933  0.3896055  )
        42        O      tau(  42) = (  0.8142475  0.6738933  0.3896055  )
        43        O      tau(  43) = (  0.1857526  0.6738933  0.6103944  )
        44        O      tau(  44) = (  0.6857526  0.6738933  0.6103944  )
        45        O      tau(  45) = (  0.1793239  0.3279393  0.6016949  )
        46        O      tau(  46) = (  0.6793239  0.3279393  0.6016949  )
        47        O      tau(  47) = (  0.3206762  0.3279393  0.3983049  )
        48        O      tau(  48) = (  0.8206762  0.3279393  0.3983049  )
        49        O      tau(  49) = (  0.1700666  0.2077642  0.1691810  )
        50        O      tau(  50) = (  0.6700666  0.2077642  0.1691810  )
        51        O      tau(  51) = (  0.3299335  0.2077642  0.8308189  )
        52        O      tau(  52) = (  0.8299335  0.2077642  0.8308189  )
        53        O      tau(  53) = (  0.0031175  0.9969420  0.1720546  )
        54        O      tau(  54) = (  0.5031175  0.9969420  0.1720546  )
        55        O      tau(  55) = (  0.4968825  0.9969420  0.8279454  )
        56        O      tau(  56) = (  0.9968826  0.9969420  0.8279454  )
        57        O      tau(  57) = (  0.3430353  0.7704818  0.8264474  )
        58        O      tau(  58) = (  0.8430352  0.7704818  0.8264474  )
        59        O      tau(  59) = (  0.1569648  0.7704818  0.1735526  )
        60        O      tau(  60) = (  0.6569648  0.7704818  0.1735526  )
        61        O      tau(  61) = (  0.4065843  0.7368129  0.1722989  )
        62        O      tau(  62) = (  0.9065843  0.7368129  0.1722989  )
        63        O      tau(  63) = (  0.0934158  0.7368129  0.8277010  )
        64        O      tau(  64) = (  0.5934158  0.7368129  0.8277010  )
        65        O      tau(  65) = (  0.2538643  0.5084513  0.1689343  )
        66        O      tau(  66) = (  0.7538643  0.5084513  0.1689343  )
        67        O      tau(  67) = (  0.2461358  0.5084513  0.8310656  )
        68        O      tau(  68) = (  0.7461358  0.5084513  0.8310656  )
        69        O      tau(  69) = (  0.0729996  0.2721775  0.8364525  )
        70        O      tau(  70) = (  0.5729996  0.2721775  0.8364525  )
        71        O      tau(  71) = (  0.4270005  0.2721775  0.1635474  )
        72        O      tau(  72) = (  0.9270005  0.2721775  0.1635474  )
        73        O      tau(  73) = (  0.0602566  0.5035344  0.3949087  )
        74        O      tau(  74) = (  0.5602566  0.5035344  0.3949087  )
        75        O      tau(  75) = (  0.4397435  0.5035344  0.6050912  )
        76        O      tau(  76) = (  0.9397435  0.5035344  0.6050912  )
        77        O      tau(  77) = (  0.3171937  0.9993365  0.3998523  )
        78        O      tau(  78) = (  0.8171936  0.9993365  0.3998523  )
        79        O      tau(  79) = (  0.1828064  0.9993365  0.6001475  )
        80        O      tau(  80) = (  0.6828064  0.9993365  0.6001475  )
        81        H      tau(  81) = (  0.0539881  0.4967257  0.3013022  )
        82        H      tau(  82) = (  0.5539880  0.4967257  0.3013022  )
        83        H      tau(  83) = (  0.4460120  0.4967257  0.6986976  )
        84        H      tau(  84) = (  0.9460120  0.4967257  0.6986976  )
        85        H      tau(  85) = (  0.2997639  0.0136193  0.3064120  )
        86        H      tau(  86) = (  0.7997639  0.0136193  0.3064120  )
        87        H      tau(  87) = (  0.2002362  0.0136193  0.6935880  )
        88        H      tau(  88) = (  0.7002362  0.0136193  0.6935880  )

     number of k points=    10  Gaussian smearing, width (Ry)=  0.0010
                       cart. coord. in units 2pi/alat
        k(    1) = (   0.0000000   0.0000000   0.0000000), wk =   0.0370370
        k(    2) = (   0.0000000   0.0000000   0.3472162), wk =   0.0740741
        k(    3) = (   0.0000000   0.3834463   0.0000000), wk =   0.0740741
        k(    4) = (   0.0000000   0.3834463   0.3472162), wk =   0.1481481
        k(    5) = (   0.3333333   0.0000000   0.0590081), wk =   0.0740741
        k(    6) = (   0.3333333   0.0000000   0.4062243), wk =   0.0740741
        k(    7) = (   0.3333333   0.0000000  -0.2882081), wk =   0.0740741
        k(    8) = (   0.3333333   0.3834463   0.0590081), wk =   0.1481481
        k(    9) = (   0.3333333   0.3834463   0.4062243), wk =   0.1481481
        k(   10) = (   0.3333333   0.3834463  -0.2882081), wk =   0.1481481

                       cryst. coord.
        k(    1) = (   0.0000000   0.0000000   0.0000000), wk =   0.0370370
        k(    2) = (   0.0000000   0.0000000   0.3333333), wk =   0.0740741
        k(    3) = (   0.0000000   0.3333333   0.0000000), wk =   0.0740741
        k(    4) = (   0.0000000   0.3333333   0.3333333), wk =   0.1481481
        k(    5) = (   0.3333333   0.0000000   0.0000000), wk =   0.0740741
        k(    6) = (   0.3333333   0.0000000   0.3333333), wk =   0.0740741
        k(    7) = (   0.3333333   0.0000000  -0.3333333), wk =   0.0740741
        k(    8) = (   0.3333333   0.3333333   0.0000000), wk =   0.1481481
        k(    9) = (   0.3333333   0.3333333   0.3333333), wk =   0.1481481
        k(   10) = (   0.3333333   0.3333333  -0.3333333), wk =   0.1481481

     Dense  grid:  1215615 G-vectors     FFT dimensions: ( 144, 125, 144)

     Smooth grid:   429835 G-vectors     FFT dimensions: ( 100,  90, 100)

     Dynamical RAM for                 wfc:      42.91 MB

     Dynamical RAM for     wfc (w. buffer):     901.02 MB

     Dynamical RAM for           str. fact:      24.73 MB

     Dynamical RAM for           local pot:       0.00 MB

     Dynamical RAM for          nlocal pot:     119.70 MB

     Dynamical RAM for                qrad:      14.06 MB

     Dynamical RAM for          rho,v,vnew:      38.32 MB

     Dynamical RAM for               rhoin:      12.77 MB

     Dynamical RAM for            rho*nmix:      98.93 MB

     Dynamical RAM for           G-vectors:      12.14 MB

     Dynamical RAM for          h,s,v(r/c):       4.51 MB

     Dynamical RAM for          <psi|beta>:       4.20 MB

     Dynamical RAM for                 psi:      85.81 MB

     Dynamical RAM for                hpsi:      85.81 MB

     Dynamical RAM for                spsi:      85.81 MB

     Dynamical RAM for      wfcinit/wfcrot:     103.09 MB

     Dynamical RAM for           addusdens:     726.50 MB

     Dynamical RAM for          addusforce:    1017.47 MB

     Dynamical RAM for         addusstress:     626.02 MB

     Estimated static dynamical RAM per process >       1.14 GB

     Estimated max dynamical RAM per process >       2.23 GB

     Estimated total dynamical RAM >      13.40 GB

     Check: negative core charge=   -0.000004
     Generating pointlists ...
     new r_m :   0.0673 (alat units)  1.3563 (a.u.) for type    1
     new r_m :   0.0797 (alat units)  1.6083 (a.u.) for type    2
     new r_m :   0.0797 (alat units)  1.6083 (a.u.) for type    3
     new r_m :   0.0374 (alat units)  0.7535 (a.u.) for type    4
     new r_m :   0.1075 (alat units)  2.1688 (a.u.) for type    5
     new r_m :   0.0781 (alat units)  1.5742 (a.u.) for type    6
     new r_m :   0.0374 (alat units)  0.7535 (a.u.) for type    7
     new r_m :   0.0626 (alat units)  1.2631 (a.u.) for type    8

     Initial potential from superposition of free atoms

     starting charge     523.8985, renormalised to     524.0000
     Starting wfcs are  366 randomized atomic wfcs
     Checking if some PAW data can be deallocated... 
       PAW data deallocated on    4 nodes for type:  1
       PAW data deallocated on    5 nodes for type:  2
       PAW data deallocated on    5 nodes for type:  3
       PAW data deallocated on    5 nodes for type:  4
       PAW data deallocated on    5 nodes for type:  5
       PAW data deallocated on    5 nodes for type:  6
       PAW data deallocated on    2 nodes for type:  7
       PAW data deallocated on    5 nodes for type:  8

     total cpu time spent up to now is      685.7 secs

     Self-consistent Calculation

     iteration #  1     ecut=    60.00 Ry     beta= 0.70
     Davidson diagonalization with overlap

---- Real-time Memory Report at c_bands before calling an iterative solver
          1290 MiB given to the printing process from OS
             0 MiB allocation reported by mallinfo(arena+hblkhd)
           961 MiB available memory on the node where the printing process lives
------------------
     ethr =  1.00E-02,  avg # of iterations =  5.9

     negative rho (up, down):  0.000E+00 5.676E-04

     total cpu time spent up to now is     2807.8 secs

     total energy              =   -5246.17218742 Ry
     estimated scf accuracy    <      26.30498765 Ry

     total magnetization       =     2.00 Bohr mag/cell
     absolute magnetization    =     8.07 Bohr mag/cell

     iteration #  2     ecut=    60.00 Ry     beta= 0.70
     Davidson diagonalization with overlap

---- Real-time Memory Report at c_bands before calling an iterative solver
          1896 MiB given to the printing process from OS
             0 MiB allocation reported by mallinfo(arena+hblkhd)
          3523 MiB available memory on the node where the printing process lives
------------------
     ethr =  5.02E-03,  avg # of iterations =  5.5

     negative rho (up, down):  1.053E-07 0.000E+00

     total cpu time spent up to now is     6128.1 secs

     total energy              =   -5246.01255709 Ry
     estimated scf accuracy    <      84.88937278 Ry

     total magnetization       =     0.33 Bohr mag/cell
     absolute magnetization    =     1.29 Bohr mag/cell

     iteration #  3     ecut=    60.00 Ry     beta= 0.70
     Davidson diagonalization with overlap

---- Real-time Memory Report at c_bands before calling an iterative solver
          1901 MiB given to the printing process from OS
             0 MiB allocation reported by mallinfo(arena+hblkhd)
          3490 MiB available memory on the node where the printing process lives
------------------
     ethr =  5.02E-03,  avg # of iterations =  6.9

     total cpu time spent up to now is     8389.7 secs

     total energy              =   -5257.31350268 Ry
     estimated scf accuracy    <      79.81841968 Ry

     total magnetization       =    -0.00 Bohr mag/cell
     absolute magnetization    =     2.08 Bohr mag/cell

     iteration #  4     ecut=    60.00 Ry     beta= 0.70
     Davidson diagonalization with overlap

---- Real-time Memory Report at c_bands before calling an iterative solver
          1905 MiB given to the printing process from OS
             0 MiB allocation reported by mallinfo(arena+hblkhd)
          3498 MiB available memory on the node where the printing process lives
------------------
     ethr =  5.02E-03,  avg # of iterations =  2.5

     negative rho (up, down):  0.000E+00 3.378E-05

     total cpu time spent up to now is    10064.5 secs

     total energy              =   -5258.98737277 Ry
     estimated scf accuracy    <      16.43013589 Ry

     total magnetization       =     2.00 Bohr mag/cell
     absolute magnetization    =     5.80 Bohr mag/cell

     iteration #  5     ecut=    60.00 Ry     beta= 0.70
     Davidson diagonalization with overlap

---- Real-time Memory Report at c_bands before calling an iterative solver
          1910 MiB given to the printing process from OS
             0 MiB allocation reported by mallinfo(arena+hblkhd)
          3425 MiB available memory on the node where the printing process lives
------------------
     ethr =  3.14E-03,  avg # of iterations =  8.8

     negative rho (up, down):  0.000E+00 2.987E-04

     total cpu time spent up to now is    11727.3 secs

     total energy              =   -5261.26297413 Ry
     estimated scf accuracy    <       8.03321389 Ry

     total magnetization       =     1.11 Bohr mag/cell
     absolute magnetization    =     8.41 Bohr mag/cell

     iteration #  6     ecut=    60.00 Ry     beta= 0.70
     Davidson diagonalization with overlap

---- Real-time Memory Report at c_bands before calling an iterative solver
          1915 MiB given to the printing process from OS
             0 MiB allocation reported by mallinfo(arena+hblkhd)
          3481 MiB available memory on the node where the printing process lives
------------------
     ethr =  1.53E-03,  avg # of iterations =  8.1

     negative rho (up, down):  0.000E+00 7.779E-06

     total cpu time spent up to now is    13934.7 secs

     total energy              =   -5263.63997850 Ry
     estimated scf accuracy    <      29.77203124 Ry

     total magnetization       =    -2.00 Bohr mag/cell
     absolute magnetization    =     4.35 Bohr mag/cell

     iteration #  7     ecut=    60.00 Ry     beta= 0.70
     Davidson diagonalization with overlap

---- Real-time Memory Report at c_bands before calling an iterative solver
          1920 MiB given to the printing process from OS
             0 MiB allocation reported by mallinfo(arena+hblkhd)
          3458 MiB available memory on the node where the printing process lives
------------------
     ethr =  1.53E-03,  avg # of iterations =  1.7

     total cpu time spent up to now is    15429.1 secs

     total energy              =   -5261.63815957 Ry
     estimated scf accuracy    <      24.65896182 Ry

     total magnetization       =    -2.00 Bohr mag/cell
     absolute magnetization    =     3.71 Bohr mag/cell

     iteration #  8     ecut=    60.00 Ry     beta= 0.70
     Davidson diagonalization with overlap

---- Real-time Memory Report at c_bands before calling an iterative solver
          1925 MiB given to the printing process from OS
             0 MiB allocation reported by mallinfo(arena+hblkhd)
          3519 MiB available memory on the node where the printing process lives
------------------
     ethr =  1.53E-03,  avg # of iterations =  2.0

     total cpu time spent up to now is    16989.6 secs

     total energy              =   -5262.44301960 Ry
     estimated scf accuracy    <       5.86382689 Ry

     total magnetization       =     2.00 Bohr mag/cell
     absolute magnetization    =     6.66 Bohr mag/cell

     iteration #  9     ecut=    60.00 Ry     beta= 0.70
     Davidson diagonalization with overlap

---- Real-time Memory Report at c_bands before calling an iterative solver
          1929 MiB given to the printing process from OS
             0 MiB allocation reported by mallinfo(arena+hblkhd)
          3522 MiB available memory on the node where the printing process lives
------------------
     ethr =  1.12E-03,  avg # of iterations =  1.1

     total cpu time spent up to now is    18348.3 secs

     total energy              =   -5262.52655604 Ry
     estimated scf accuracy    <       1.91278354 Ry

     total magnetization       =     2.00 Bohr mag/cell
     absolute magnetization    =     8.37 Bohr mag/cell

     iteration # 10     ecut=    60.00 Ry     beta= 0.70
     Davidson diagonalization with overlap

---- Real-time Memory Report at c_bands before calling an iterative solver
          1934 MiB given to the printing process from OS
             0 MiB allocation reported by mallinfo(arena+hblkhd)
          3666 MiB available memory on the node where the printing process lives
------------------
     ethr =  3.65E-04,  avg # of iterations =  1.6

     negative rho (up, down):  0.000E+00 6.385E-05

     total cpu time spent up to now is    19833.3 secs

     total energy              =   -5262.53129661 Ry
     estimated scf accuracy    <       2.10950616 Ry

     total magnetization       =     2.00 Bohr mag/cell
     absolute magnetization    =     8.12 Bohr mag/cell

     iteration # 11     ecut=    60.00 Ry     beta= 0.70
     Davidson diagonalization with overlap

---- Real-time Memory Report at c_bands before calling an iterative solver
          1934 MiB given to the printing process from OS
             0 MiB allocation reported by mallinfo(arena+hblkhd)
          3681 MiB available memory on the node where the printing process lives
------------------
     ethr =  3.65E-04,  avg # of iterations =  1.6

     negative rho (up, down):  1.463E-05 4.423E-04

     total cpu time spent up to now is    21304.7 secs

     total energy              =   -5262.54459433 Ry
     estimated scf accuracy    <       1.74431573 Ry

     total magnetization       =     2.00 Bohr mag/cell
     absolute magnetization    =     8.20 Bohr mag/cell

     iteration # 12     ecut=    60.00 Ry     beta= 0.70
     Davidson diagonalization with overlap

---- Real-time Memory Report at c_bands before calling an iterative solver
          1934 MiB given to the printing process from OS
             0 MiB allocation reported by mallinfo(arena+hblkhd)
          3664 MiB available memory on the node where the printing process lives
------------------
     ethr =  3.33E-04,  avg # of iterations =  2.0

     negative rho (up, down):  4.746E-05 5.742E-04

     total cpu time spent up to now is    22867.5 secs

     total energy              =   -5262.50701070 Ry
     estimated scf accuracy    <       1.55192563 Ry

     total magnetization       =     2.00 Bohr mag/cell
     absolute magnetization    =     8.11 Bohr mag/cell

     iteration # 13     ecut=    60.00 Ry     beta= 0.70
     Davidson diagonalization with overlap

---- Real-time Memory Report at c_bands before calling an iterative solver
          1934 MiB given to the printing process from OS
             0 MiB allocation reported by mallinfo(arena+hblkhd)
          3519 MiB available memory on the node where the printing process lives
------------------
     ethr =  2.96E-04,  avg # of iterations =  1.9

     negative rho (up, down):  0.000E+00 4.375E-04

     total cpu time spent up to now is    24413.8 secs

     total energy              =   -5262.38511910 Ry
     estimated scf accuracy    <       1.22318891 Ry

     total magnetization       =     2.00 Bohr mag/cell
     absolute magnetization    =     8.13 Bohr mag/cell

     iteration # 14     ecut=    60.00 Ry     beta= 0.70
     Davidson diagonalization with overlap

---- Real-time Memory Report at c_bands before calling an iterative solver
          1934 MiB given to the printing process from OS
             0 MiB allocation reported by mallinfo(arena+hblkhd)
          3484 MiB available memory on the node where the printing process lives
------------------
     ethr =  2.33E-04,  avg # of iterations =  2.0

     negative rho (up, down):  5.089E-05 5.631E-04

     total cpu time spent up to now is    25976.9 secs

     total energy              =   -5262.56943190 Ry
     estimated scf accuracy    <       5.72454036 Ry

     total magnetization       =    -2.00 Bohr mag/cell
     absolute magnetization    =     6.33 Bohr mag/cell

     iteration # 15     ecut=    60.00 Ry     beta= 0.70
     Davidson diagonalization with overlap

---- Real-time Memory Report at c_bands before calling an iterative solver
          1934 MiB given to the printing process from OS
             0 MiB allocation reported by mallinfo(arena+hblkhd)
          3575 MiB available memory on the node where the printing process lives
------------------
     ethr =  2.33E-04,  avg # of iterations =  1.6

     negative rho (up, down):  3.415E-05 5.678E-04

     total cpu time spent up to now is    27447.3 secs

     total energy              =   -5262.50897292 Ry
     estimated scf accuracy    <       5.94768906 Ry

     total magnetization       =    -2.00 Bohr mag/cell
     absolute magnetization    =     6.33 Bohr mag/cell

     iteration # 16     ecut=    60.00 Ry     beta= 0.70
     Davidson diagonalization with overlap

---- Real-time Memory Report at c_bands before calling an iterative solver
          1934 MiB given to the printing process from OS
             0 MiB allocation reported by mallinfo(arena+hblkhd)
          3659 MiB available memory on the node where the printing process lives
------------------
     ethr =  2.33E-04,  avg # of iterations =  1.9

     negative rho (up, down):  7.505E-05 5.944E-04

     total cpu time spent up to now is    28983.3 secs

     total energy              =   -5262.53933195 Ry
     estimated scf accuracy    <       1.92023492 Ry

     total magnetization       =    -2.00 Bohr mag/cell
     absolute magnetization    =     8.12 Bohr mag/cell

     iteration # 17     ecut=    60.00 Ry     beta= 0.70
     Davidson diagonalization with overlap

---- Real-time Memory Report at c_bands before calling an iterative solver
          1934 MiB given to the printing process from OS
             0 MiB allocation reported by mallinfo(arena+hblkhd)
          3598 MiB available memory on the node where the printing process lives
------------------
     ethr =  2.33E-04,  avg # of iterations =  1.1

     negative rho (up, down):  9.543E-05 5.591E-04

     total cpu time spent up to now is    30340.1 secs

     total energy              =   -5262.53254575 Ry
     estimated scf accuracy    <       1.87839328 Ry

     total magnetization       =    -2.00 Bohr mag/cell
     absolute magnetization    =     8.12 Bohr mag/cell

     iteration # 18     ecut=    60.00 Ry     beta= 0.70
     Davidson diagonalization with overlap

---- Real-time Memory Report at c_bands before calling an iterative solver
          1934 MiB given to the printing process from OS
             0 MiB allocation reported by mallinfo(arena+hblkhd)
          3597 MiB available memory on the node where the printing process lives
------------------
     ethr =  2.33E-04,  avg # of iterations =  1.5

     negative rho (up, down):  1.028E-04 4.783E-04

     total cpu time spent up to now is    31791.6 secs

     total energy              =   -5262.47271635 Ry
     estimated scf accuracy    <       1.77462350 Ry

     total magnetization       =    -2.00 Bohr mag/cell
     absolute magnetization    =     8.13 Bohr mag/cell

     iteration # 19     ecut=    60.00 Ry     beta= 0.70
     Davidson diagonalization with overlap

---- Real-time Memory Report at c_bands before calling an iterative solver
          1935 MiB given to the printing process from OS
             0 MiB allocation reported by mallinfo(arena+hblkhd)
          3568 MiB available memory on the node where the printing process lives
------------------
     ethr =  2.33E-04,  avg # of iterations =  1.6

     negative rho (up, down):  1.083E-04 4.679E-04

     total cpu time spent up to now is    33264.7 secs

     total energy              =   -5262.49096752 Ry
     estimated scf accuracy    <       0.11272883 Ry

     total magnetization       =     0.00 Bohr mag/cell
     absolute magnetization    =     8.09 Bohr mag/cell

     iteration # 20     ecut=    60.00 Ry     beta= 0.70
     Davidson diagonalization with overlap

---- Real-time Memory Report at c_bands before calling an iterative solver
          1935 MiB given to the printing process from OS
             0 MiB allocation reported by mallinfo(arena+hblkhd)
          3504 MiB available memory on the node where the printing process lives
------------------
     c_bands:  4 eigenvalues not converged
     c_bands:  2 eigenvalues not converged
     c_bands:  4 eigenvalues not converged
     c_bands:  3 eigenvalues not converged
     c_bands:  1 eigenvalues not converged
     c_bands:  2 eigenvalues not converged
     c_bands:  1 eigenvalues not converged
     c_bands:  1 eigenvalues not converged
     c_bands:  1 eigenvalues not converged
     c_bands:  3 eigenvalues not converged
     c_bands:  2 eigenvalues not converged
     c_bands:  1 eigenvalues not converged
     c_bands:  5 eigenvalues not converged
     c_bands:  3 eigenvalues not converged
     c_bands:  2 eigenvalues not converged
     ethr =  2.15E-05,  avg # of iterations = 20.6

     negative rho (up, down):  1.642E-04 4.511E-04

     total cpu time spent up to now is    35274.3 secs

     total energy              =   -5262.49572935 Ry
     estimated scf accuracy    <       0.10326994 Ry

     total magnetization       =    -0.00 Bohr mag/cell
     absolute magnetization    =     8.09 Bohr mag/cell

     iteration # 21     ecut=    60.00 Ry     beta= 0.70
     Davidson diagonalization with overlap

---- Real-time Memory Report at c_bands before calling an iterative solver
          1935 MiB given to the printing process from OS
             0 MiB allocation reported by mallinfo(arena+hblkhd)
          3608 MiB available memory on the node where the printing process lives
------------------
     ethr =  1.97E-05,  avg # of iterations =  3.9

     negative rho (up, down):  1.767E-04 4.602E-04

     total cpu time spent up to now is    36856.4 secs

     total energy              =   -5262.49981307 Ry
     estimated scf accuracy    <       0.06933091 Ry

     total magnetization       =    -0.00 Bohr mag/cell
     absolute magnetization    =     8.08 Bohr mag/cell

     iteration # 22     ecut=    60.00 Ry     beta= 0.70
     Davidson diagonalization with overlap

---- Real-time Memory Report at c_bands before calling an iterative solver
          1935 MiB given to the printing process from OS
             0 MiB allocation reported by mallinfo(arena+hblkhd)
          3691 MiB available memory on the node where the printing process lives
------------------
     ethr =  1.32E-05,  avg # of iterations =  1.9

     negative rho (up, down):  3.245E-04 4.495E-04

     total cpu time spent up to now is    38386.0 secs

     total energy              =   -5262.50472969 Ry
     estimated scf accuracy    <       0.18014260 Ry

     total magnetization       =    -0.52 Bohr mag/cell
     absolute magnetization    =     8.07 Bohr mag/cell

     iteration # 23     ecut=    60.00 Ry     beta= 0.70
     Davidson diagonalization with overlap

---- Real-time Memory Report at c_bands before calling an iterative solver
          1935 MiB given to the printing process from OS
             0 MiB allocation reported by mallinfo(arena+hblkhd)
          3541 MiB available memory on the node where the printing process lives
------------------
     ethr =  1.32E-05,  avg # of iterations =  3.0

     negative rho (up, down):  3.199E-04 4.549E-04

     total cpu time spent up to now is    39993.9 secs

     total energy              =   -5262.50853296 Ry
     estimated scf accuracy    <       0.02967301 Ry

     total magnetization       =    -0.03 Bohr mag/cell
     absolute magnetization    =     8.07 Bohr mag/cell

     iteration # 24     ecut=    60.00 Ry     beta= 0.70
     Davidson diagonalization with overlap

---- Real-time Memory Report at c_bands before calling an iterative solver
          1935 MiB given to the printing process from OS
             0 MiB allocation reported by mallinfo(arena+hblkhd)
          3563 MiB available memory on the node where the printing process lives
------------------
     c_bands:  2 eigenvalues not converged
     c_bands:  1 eigenvalues not converged
     c_bands:  1 eigenvalues not converged
     ethr =  5.66E-06,  avg # of iterations =  9.2

     negative rho (up, down):  4.073E-04 4.763E-04

     total cpu time spent up to now is    41729.5 secs

     total energy              =   -5262.51088493 Ry
     estimated scf accuracy    <       0.02279035 Ry

     total magnetization       =    -0.00 Bohr mag/cell
     absolute magnetization    =     8.07 Bohr mag/cell

     iteration # 25     ecut=    60.00 Ry     beta= 0.70
     Davidson diagonalization with overlap

---- Real-time Memory Report at c_bands before calling an iterative solver
          1935 MiB given to the printing process from OS
             0 MiB allocation reported by mallinfo(arena+hblkhd)
          3631 MiB available memory on the node where the printing process lives
------------------
     c_bands:  1 eigenvalues not converged
     ethr =  4.35E-06,  avg # of iterations =  3.9

     negative rho (up, down):  4.535E-04 4.761E-04

     total cpu time spent up to now is    43490.8 secs

     total energy              =   -5262.51145935 Ry
     estimated scf accuracy    <       0.01275105 Ry

     total magnetization       =    -0.00 Bohr mag/cell
     absolute magnetization    =     8.07 Bohr mag/cell

     iteration # 26     ecut=    60.00 Ry     beta= 0.70
     Davidson diagonalization with overlap

---- Real-time Memory Report at c_bands before calling an iterative solver
          1935 MiB given to the printing process from OS
             0 MiB allocation reported by mallinfo(arena+hblkhd)
          3643 MiB available memory on the node where the printing process lives
------------------
     c_bands:  1 eigenvalues not converged
     c_bands:  1 eigenvalues not converged
     c_bands:  1 eigenvalues not converged
     c_bands:  2 eigenvalues not converged
     c_bands:  2 eigenvalues not converged
     c_bands:  1 eigenvalues not converged
     c_bands:  2 eigenvalues not converged
     c_bands:  2 eigenvalues not converged
     ethr =  2.43E-06,  avg # of iterations = 10.2

     negative rho (up, down):  4.738E-04 4.720E-04

     total cpu time spent up to now is    45156.7 secs

     total energy              =   -5262.51222521 Ry
     estimated scf accuracy    <       0.00847235 Ry

     total magnetization       =    -0.00 Bohr mag/cell
     absolute magnetization    =     8.08 Bohr mag/cell

     iteration # 27     ecut=    60.00 Ry     beta= 0.70
     Davidson diagonalization with overlap

---- Real-time Memory Report at c_bands before calling an iterative solver
          1935 MiB given to the printing process from OS
             0 MiB allocation reported by mallinfo(arena+hblkhd)
          3592 MiB available memory on the node where the printing process lives
------------------
     c_bands:  1 eigenvalues not converged
     c_bands:  2 eigenvalues not converged
     c_bands:  1 eigenvalues not converged
     ethr =  1.62E-06,  avg # of iterations =  5.5

     negative rho (up, down):  5.361E-04 4.524E-04

     total cpu time spent up to now is    46752.0 secs

     total energy              =   -5262.51422891 Ry
     estimated scf accuracy    <       0.00678391 Ry

     total magnetization       =    -0.00 Bohr mag/cell
     absolute magnetization    =     8.08 Bohr mag/cell

     iteration # 28     ecut=    60.00 Ry     beta= 0.70
     Davidson diagonalization with overlap

---- Real-time Memory Report at c_bands before calling an iterative solver
          1935 MiB given to the printing process from OS
             0 MiB allocation reported by mallinfo(arena+hblkhd)
          3583 MiB available memory on the node where the printing process lives
------------------
     c_bands:  1 eigenvalues not converged
     c_bands:  1 eigenvalues not converged
     c_bands:  1 eigenvalues not converged
     c_bands:  1 eigenvalues not converged
     c_bands:  2 eigenvalues not converged
     c_bands:  1 eigenvalues not converged
     c_bands:  1 eigenvalues not converged
     c_bands:  2 eigenvalues not converged
     c_bands:  1 eigenvalues not converged
     ethr =  1.29E-06,  avg # of iterations = 14.9

     negative rho (up, down):  5.070E-04 4.535E-04

     total cpu time spent up to now is    48882.5 secs

     total energy              =   -5262.50580194 Ry
     estimated scf accuracy    <       1.52203196 Ry

     total magnetization       =     2.00 Bohr mag/cell
     absolute magnetization    =     8.11 Bohr mag/cell

     iteration # 29     ecut=    60.00 Ry     beta= 0.70
     Davidson diagonalization with overlap

---- Real-time Memory Report at c_bands before calling an iterative solver
          1935 MiB given to the printing process from OS
             0 MiB allocation reported by mallinfo(arena+hblkhd)
          3702 MiB available memory on the node where the printing process lives
------------------
     ethr =  1.29E-06,  avg # of iterations =  2.9

     negative rho (up, down):  5.070E-04 4.447E-04

     total cpu time spent up to now is    50500.6 secs

     total energy              =   -5262.51536342 Ry
     estimated scf accuracy    <       0.00643218 Ry

     total magnetization       =     0.00 Bohr mag/cell
     absolute magnetization    =     8.08 Bohr mag/cell

     iteration # 30     ecut=    60.00 Ry     beta= 0.70
     Davidson diagonalization with overlap

---- Real-time Memory Report at c_bands before calling an iterative solver
          1935 MiB given to the printing process from OS
             0 MiB allocation reported by mallinfo(arena+hblkhd)
          3659 MiB available memory on the node where the printing process lives
------------------
     ethr =  1.23E-06,  avg # of iterations =  2.6

     negative rho (up, down):  4.786E-04 4.669E-04

     total cpu time spent up to now is    52083.2 secs

     total energy              =   -5262.51320020 Ry
     estimated scf accuracy    <       0.01084935 Ry

     total magnetization       =     0.06 Bohr mag/cell
     absolute magnetization    =     8.08 Bohr mag/cell

     iteration # 31     ecut=    60.00 Ry     beta= 0.70
     Davidson diagonalization with overlap

---- Real-time Memory Report at c_bands before calling an iterative solver
          1935 MiB given to the printing process from OS
             0 MiB allocation reported by mallinfo(arena+hblkhd)
          3665 MiB available memory on the node where the printing process lives
------------------
     ethr =  1.23E-06,  avg # of iterations =  4.5

     negative rho (up, down):  4.731E-04 4.774E-04

     total cpu time spent up to now is    53690.6 secs

     total energy              =   -5262.51480481 Ry
     estimated scf accuracy    <       0.00111585 Ry

     total magnetization       =     0.00 Bohr mag/cell
     absolute magnetization    =     8.08 Bohr mag/cell

     iteration # 32     ecut=    60.00 Ry     beta= 0.70
     Davidson diagonalization with overlap

---- Real-time Memory Report at c_bands before calling an iterative solver
          1935 MiB given to the printing process from OS
             0 MiB allocation reported by mallinfo(arena+hblkhd)
          3626 MiB available memory on the node where the printing process lives
------------------
     ethr =  2.13E-07,  avg # of iterations =  6.3

     negative rho (up, down):  4.746E-04 4.803E-04

     total cpu time spent up to now is    55522.8 secs

     total energy              =   -5262.51510417 Ry
     estimated scf accuracy    <       0.00023891 Ry

     total magnetization       =     0.00 Bohr mag/cell
     absolute magnetization    =     8.08 Bohr mag/cell

     iteration # 33     ecut=    60.00 Ry     beta= 0.70
     Davidson diagonalization with overlap

---- Real-time Memory Report at c_bands before calling an iterative solver
          1935 MiB given to the printing process from OS
             0 MiB allocation reported by mallinfo(arena+hblkhd)
          3645 MiB available memory on the node where the printing process lives
------------------
     ethr =  4.56E-08,  avg # of iterations =  5.7

     negative rho (up, down):  4.753E-04 4.824E-04

     total cpu time spent up to now is    57312.5 secs

     total energy              =   -5262.51513788 Ry
     estimated scf accuracy    <       0.00017045 Ry

     total magnetization       =    -0.00 Bohr mag/cell
     absolute magnetization    =     8.08 Bohr mag/cell

     iteration # 34     ecut=    60.00 Ry     beta= 0.70
     Davidson diagonalization with overlap

---- Real-time Memory Report at c_bands before calling an iterative solver
          1935 MiB given to the printing process from OS
             0 MiB allocation reported by mallinfo(arena+hblkhd)
          3586 MiB available memory on the node where the printing process lives
------------------
     ethr =  3.25E-08,  avg # of iterations =  2.0

     negative rho (up, down):  4.751E-04 4.831E-04

     total cpu time spent up to now is    58934.9 secs

     total energy              =   -5262.51514887 Ry
     estimated scf accuracy    <       0.00012713 Ry

     total magnetization       =    -0.00 Bohr mag/cell
     absolute magnetization    =     8.08 Bohr mag/cell

     iteration # 35     ecut=    60.00 Ry     beta= 0.70
     Davidson diagonalization with overlap

---- Real-time Memory Report at c_bands before calling an iterative solver
          1935 MiB given to the printing process from OS
             0 MiB allocation reported by mallinfo(arena+hblkhd)
          3529 MiB available memory on the node where the printing process lives
------------------
     ethr =  2.43E-08,  avg # of iterations =  2.0

     negative rho (up, down):  4.754E-04 4.834E-04

     total cpu time spent up to now is    60517.3 secs

     total energy              =   -5262.51515391 Ry
     estimated scf accuracy    <       0.00011857 Ry

     total magnetization       =    -0.00 Bohr mag/cell
     absolute magnetization    =     8.08 Bohr mag/cell

     iteration # 36     ecut=    60.00 Ry     beta= 0.70
     Davidson diagonalization with overlap

---- Real-time Memory Report at c_bands before calling an iterative solver
          1935 MiB given to the printing process from OS
             0 MiB allocation reported by mallinfo(arena+hblkhd)
          3673 MiB available memory on the node where the printing process lives
------------------
     ethr =  2.26E-08,  avg # of iterations =  2.0

     negative rho (up, down):  4.758E-04 4.835E-04

     total cpu time spent up to now is    62083.6 secs

     total energy              =   -5262.51515535 Ry
     estimated scf accuracy    <       0.00010714 Ry

     total magnetization       =     0.00 Bohr mag/cell
     absolute magnetization    =     8.08 Bohr mag/cell

     iteration # 37     ecut=    60.00 Ry     beta= 0.70
     Davidson diagonalization with overlap

---- Real-time Memory Report at c_bands before calling an iterative solver
          1935 MiB given to the printing process from OS
             0 MiB allocation reported by mallinfo(arena+hblkhd)
          3459 MiB available memory on the node where the printing process lives
------------------
     ethr =  2.04E-08,  avg # of iterations =  2.0

     negative rho (up, down):  4.796E-04 4.827E-04

     total cpu time spent up to now is    63654.0 secs

     total energy              =   -5262.51508829 Ry
     estimated scf accuracy    <       0.00008960 Ry

     total magnetization       =     0.00 Bohr mag/cell
     absolute magnetization    =     8.08 Bohr mag/cell

     iteration # 38     ecut=    60.00 Ry     beta= 0.70
     Davidson diagonalization with overlap

---- Real-time Memory Report at c_bands before calling an iterative solver
          1935 MiB given to the printing process from OS
             0 MiB allocation reported by mallinfo(arena+hblkhd)
          3780 MiB available memory on the node where the printing process lives
------------------
     ethr =  1.71E-08,  avg # of iterations =  5.1

     negative rho (up, down):  4.802E-04 4.816E-04

     total cpu time spent up to now is    65360.1 secs

     total energy              =   -5262.51514504 Ry
     estimated scf accuracy    <       0.00000854 Ry

     total magnetization       =    -0.00 Bohr mag/cell
     absolute magnetization    =     8.08 Bohr mag/cell

     iteration # 39     ecut=    60.00 Ry     beta= 0.70
     Davidson diagonalization with overlap

---- Real-time Memory Report at c_bands before calling an iterative solver
          1935 MiB given to the printing process from OS
             0 MiB allocation reported by mallinfo(arena+hblkhd)
          3661 MiB available memory on the node where the printing process lives
------------------
     ethr =  1.63E-09,  avg # of iterations =  8.5

     negative rho (up, down):  4.807E-04 4.811E-04

     total cpu time spent up to now is    67813.0 secs

     total energy              =   -5262.51514952 Ry
     estimated scf accuracy    <       0.00000241 Ry

     total magnetization       =    -0.00 Bohr mag/cell
     absolute magnetization    =     8.08 Bohr mag/cell

     iteration # 40     ecut=    60.00 Ry     beta= 0.70
     Davidson diagonalization with overlap

---- Real-time Memory Report at c_bands before calling an iterative solver
          1935 MiB given to the printing process from OS
             0 MiB allocation reported by mallinfo(arena+hblkhd)
          3790 MiB available memory on the node where the printing process lives
------------------
     ethr =  4.60E-10,  avg # of iterations =  6.3

     negative rho (up, down):  4.807E-04 4.811E-04

     Magnetic moment per site  (integrated on atomic sphere of radius R)
     atom   1 (R=0.108)  charge=  7.5459  magn= -0.0000
     atom   2 (R=0.108)  charge=  7.5459  magn= -0.0000
     atom   3 (R=0.108)  charge=  7.5492  magn=  0.0000
     atom   4 (R=0.108)  charge=  7.5492  magn= -0.0000
     atom   5 (R=0.078)  charge=  8.0985  magn= -0.0000
     atom   6 (R=0.078)  charge=  8.0985  magn= -0.0000
     atom   7 (R=0.078)  charge=  8.1018  magn= -0.0000
     atom   8 (R=0.078)  charge=  8.1018  magn= -0.0000
     atom   9 (R=0.078)  charge=  8.0965  magn= -0.0000
     atom  10 (R=0.078)  charge=  8.0965  magn= -0.0000
     atom  11 (R=0.078)  charge=  8.0987  magn=  0.0001
     atom  12 (R=0.078)  charge=  8.0987  magn= -0.0001
     atom  13 (R=0.078)  charge=  8.1050  magn=  0.0004
     atom  14 (R=0.078)  charge=  8.1050  magn= -0.0004
     atom  15 (R=0.080)  charge= 13.3656  magn=  3.3199
     atom  16 (R=0.080)  charge= 13.3658  magn= -3.3198
     atom  17 (R=0.063)  charge=  0.5503  magn=  0.0000
     atom  18 (R=0.063)  charge=  0.5503  magn= -0.0000
     atom  19 (R=0.063)  charge=  0.5503  magn=  0.0000
     atom  20 (R=0.063)  charge=  0.5503  magn= -0.0000
     atom  21 (R=0.063)  charge=  0.5433  magn=  0.0000
     atom  22 (R=0.063)  charge=  0.5433  magn= -0.0000
     atom  23 (R=0.063)  charge=  0.5433  magn=  0.0000
     atom  24 (R=0.063)  charge=  0.5433  magn= -0.0000
     atom  25 (R=0.063)  charge=  0.5424  magn=  0.0009
     atom  26 (R=0.063)  charge=  0.5424  magn= -0.0009
     atom  27 (R=0.063)  charge=  0.5424  magn=  0.0009
     atom  28 (R=0.063)  charge=  0.5424  magn= -0.0009
     atom  29 (R=0.067)  charge=  0.3372  magn=  0.0011
     atom  30 (R=0.067)  charge=  0.3372  magn= -0.0011
     atom  31 (R=0.067)  charge=  0.3372  magn=  0.0011
     atom  32 (R=0.067)  charge=  0.3372  magn= -0.0011
     atom  33 (R=0.037)  charge=  1.9398  magn= -0.0003
     atom  34 (R=0.037)  charge=  1.9398  magn=  0.0003
     atom  35 (R=0.037)  charge=  1.9398  magn= -0.0003
     atom  36 (R=0.037)  charge=  1.9398  magn=  0.0003
     atom  37 (R=0.037)  charge=  1.9427  magn= -0.0001
     atom  38 (R=0.037)  charge=  1.9427  magn=  0.0001
     atom  39 (R=0.037)  charge=  1.9427  magn= -0.0001
     atom  40 (R=0.037)  charge=  1.9427  magn=  0.0001
     atom  41 (R=0.037)  charge=  1.9393  magn=  0.0145
     atom  42 (R=0.037)  charge=  1.9393  magn= -0.0145
     atom  43 (R=0.037)  charge=  1.9393  magn=  0.0145
     atom  44 (R=0.037)  charge=  1.9393  magn= -0.0145
     atom  45 (R=0.037)  charge=  1.9368  magn=  0.0267
     atom  46 (R=0.037)  charge=  1.9367  magn= -0.0267
     atom  47 (R=0.037)  charge=  1.9368  magn=  0.0267
     atom  48 (R=0.037)  charge=  1.9367  magn= -0.0267
     atom  49 (R=0.037)  charge=  1.9451  magn=  0.0003
     atom  50 (R=0.037)  charge=  1.9451  magn= -0.0003
     atom  51 (R=0.037)  charge=  1.9451  magn=  0.0003
     atom  52 (R=0.037)  charge=  1.9451  magn= -0.0003
     atom  53 (R=0.037)  charge=  1.9479  magn= -0.0000
     atom  54 (R=0.037)  charge=  1.9479  magn=  0.0000
     atom  55 (R=0.037)  charge=  1.9479  magn= -0.0000
     atom  56 (R=0.037)  charge=  1.9479  magn=  0.0000
     atom  57 (R=0.037)  charge=  1.9474  magn=  0.0003
     atom  58 (R=0.037)  charge=  1.9474  magn= -0.0003
     atom  59 (R=0.037)  charge=  1.9474  magn=  0.0003
     atom  60 (R=0.037)  charge=  1.9474  magn= -0.0003
     atom  61 (R=0.037)  charge=  1.9482  magn=  0.0006
     atom  62 (R=0.037)  charge=  1.9482  magn= -0.0006
     atom  63 (R=0.037)  charge=  1.9482  magn=  0.0006
     atom  64 (R=0.037)  charge=  1.9482  magn= -0.0006
     atom  65 (R=0.037)  charge=  1.9398  magn= -0.0003
     atom  66 (R=0.037)  charge=  1.9399  magn=  0.0003
     atom  67 (R=0.037)  charge=  1.9398  magn= -0.0003
     atom  68 (R=0.037)  charge=  1.9399  magn=  0.0003
     atom  69 (R=0.037)  charge=  1.9451  magn=  0.0005
     atom  70 (R=0.037)  charge=  1.9451  magn= -0.0005
     atom  71 (R=0.037)  charge=  1.9451  magn=  0.0005
     atom  72 (R=0.037)  charge=  1.9451  magn= -0.0005
     atom  73 (R=0.037)  charge=  1.9388  magn=  0.0203
     atom  74 (R=0.037)  charge=  1.9387  magn= -0.0203
     atom  75 (R=0.037)  charge=  1.9388  magn=  0.0203
     atom  76 (R=0.037)  charge=  1.9387  magn= -0.0203
     atom  77 (R=0.037)  charge=  1.9455  magn=  0.0006
     atom  78 (R=0.037)  charge=  1.9455  magn= -0.0006
     atom  79 (R=0.037)  charge=  1.9455  magn=  0.0006
     atom  80 (R=0.037)  charge=  1.9455  magn= -0.0006
     atom  81 (R=0.037)  charge=  0.4012  magn=  0.0000
     atom  82 (R=0.037)  charge=  0.4012  magn= -0.0000
     atom  83 (R=0.037)  charge=  0.4012  magn=  0.0000
     atom  84 (R=0.037)  charge=  0.4012  magn= -0.0000
     atom  85 (R=0.037)  charge=  0.4004  magn= -0.0000
     atom  86 (R=0.037)  charge=  0.4004  magn=  0.0000
     atom  87 (R=0.037)  charge=  0.4004  magn= -0.0000
     atom  88 (R=0.037)  charge=  0.4004  magn=  0.0000

     total cpu time spent up to now is    69856.9 secs

     End of self-consistent calculation

 ------ SPIN UP ------------


          k = 0.0000 0.0000 0.0000 ( 53739 PWs)   bands (ev):

   -81.6206 -77.4825 -67.8964 -67.8963 -67.8887 -67.8885 -67.8219 -67.8219
   -67.3928 -67.3927 -67.3704 -67.3699 -48.6332 -47.5109 -46.8803 -43.9486
   -43.6133 -43.3532 -34.6669 -34.6625 -34.6591 -34.6504 -34.6502 -34.6459
   -34.6382 -34.6370 -34.6365 -34.6350 -34.6259 -34.6257 -34.5832 -34.5828
   -34.5807 -34.5803 -34.5549 -34.5547 -34.1648 -34.1629 -34.1589 -34.1565
   -34.1403 -34.1397 -34.1222 -34.1217 -34.1135 -34.1123 -34.1062 -34.1043
   -23.5211 -23.5206 -23.5189 -23.5185 -15.2682 -15.2229 -14.9040 -14.8710
   -14.6371 -14.6074 -14.3534 -14.3163 -14.0909 -14.0639 -13.8261 -13.8107
   -13.6403 -13.5279 -13.5038 -13.4095 -13.3621 -13.3530 -13.2704 -13.2285
   -13.1885 -13.1670 -13.1521 -13.1486 -13.1113 -13.0973 -13.0909 -13.0691
   -13.0124 -13.0056 -12.9200 -12.8934 -12.8425 -12.7969 -12.7551 -12.7010
   -12.6975 -12.6292 -12.5272 -12.5130 -12.4824 -12.4379 -12.3615 -12.3388
   -11.6412 -11.5330 -11.4284 -11.3207  -7.0756  -7.0731  -7.0652  -7.0550
    -6.9994  -6.9962  -6.9935  -6.9865  -6.9855  -6.9847  -6.9828  -6.9782
    -4.5248  -4.4867  -3.5862  -3.5270  -3.0534  -2.9938  -2.6735  -2.5900
    -2.0603  -1.9780  -1.8915  -1.6508  -1.5552  -1.5145  -1.4463  -1.3983
    -1.3044  -1.2500  -1.1810  -1.0315  -0.9629  -0.9176  -0.9124  -0.8390
    -0.6573  -0.6267  -0.5796  -0.5761  -0.5360  -0.4701  -0.4160  -0.3964
    -0.2848  -0.2232  -0.2168  -0.1831  -0.0578   0.1533   0.1598   0.2023
     0.2189   0.3149   0.3455   0.3549   0.4109   0.4438   0.4626   0.6415
     0.6589   0.6857   0.7685   0.8436   0.8658   0.9017   0.9556   0.9902
     1.1573   1.1915   1.2182   1.2331   1.2562   1.2706   1.3093   1.3871
     1.3992   1.4438   1.4972   1.5336   1.5485   1.5563   1.7027   1.8049
     1.8258   1.8563   1.9273   1.9403   1.9683   2.0415   2.0689   2.1155
     2.1233   2.1378   2.1541   2.3086   2.3178   2.3658   2.3811   2.3856
     2.4157   2.4246   2.4633   2.4697   2.5360   2.5392   2.5659   2.5958
     2.6582   2.6707   2.7021   2.7082   2.7395   2.7502   2.7520   2.7985
     2.8334   2.8729   2.8819   2.8932   2.9626   2.9912   3.0059   3.0155
     3.0684   3.0924   3.0925   3.1147   3.1465   3.1652   3.2011   3.2119
     3.2540   3.2545   3.2719   3.3041   3.3473   3.4101   3.4148   3.4297
     3.4572   3.4829   3.5253   3.5289   3.5542   3.5913   3.6007   3.6405
     3.7040   3.7201   3.7524   3.8028   3.8758   3.9495   4.0345   4.0825
     4.8542   4.9175   6.0706   6.4438   6.6513   7.9008   8.4163   8.5311
     8.6719   9.6129  10.0873  10.1480  10.5494  10.6963  10.8340  11.1358
    11.2602  11.2909  11.4482  11.5174  11.5744  11.6008  11.8241  12.0735
    12.0823  12.1191  12.2131  12.3037  12.3394  12.5333  12.5713  12.6751
    12.7206  12.7343  12.8392  12.9394  12.9463  12.9632  13.0995  13.1061
    13.1573  13.2393  13.2447  13.3626  13.3878  13.3918  13.4429  13.4563
    13.4651  13.4883  13.5012  13.6005  13.6175  13.6424  13.6912  13.8798
    13.9079  13.9370

     occupation numbers 
     1.0000   1.0000   1.0000   1.0000   1.0000   1.0000   1.0000   1.0000
     1.0000   1.0000   1.0000   1.0000   1.0000   1.0000   1.0000   1.0000
     1.0000   1.0000   1.0000   1.0000   1.0000   1.0000   1.0000   1.0000
     1.0000   1.0000   1.0000   1.0000   1.0000   1.0000   1.0000   1.0000
     1.0000   1.0000   1.0000   1.0000   1.0000   1.0000   1.0000   1.0000
     1.0000   1.0000   1.0000   1.0000   1.0000   1.0000   1.0000   1.0000
     1.0000   1.0000   1.0000   1.0000   1.0000   1.0000   1.0000   1.0000
     1.0000   1.0000   1.0000   1.0000   1.0000   1.0000   1.0000   1.0000
     1.0000   1.0000   1.0000   1.0000   1.0000   1.0000   1.0000   1.0000
     1.0000   1.0000   1.0000   1.0000   1.0000   1.0000   1.0000   1.0000
     1.0000   1.0000   1.0000   1.0000   1.0000   1.0000   1.0000   1.0000
     1.0000   1.0000   1.0000   1.0000   1.0000   1.0000   1.0000   1.0000
     1.0000   1.0000   1.0000   1.0000   1.0000   1.0000   1.0000   1.0000
     1.0000   1.0000   1.0000   1.0000   1.0000   1.0000   1.0000   1.0000
     1.0000   1.0000   1.0000   1.0000   1.0000   1.0000   1.0000   1.0000
     1.0000   1.0000   1.0000   1.0000   1.0000   1.0000   1.0000   1.0000
     1.0000   1.0000   1.0000   1.0000   1.0000   1.0000   1.0000   1.0000
     1.0000   1.0000   1.0000   1.0000   1.0000   1.0000   1.0000   1.0000
     1.0000   1.0000   1.0000   1.0000   1.0000   1.0000   1.0000   1.0000
     1.0000   1.0000   1.0000   1.0000   1.0000   1.0000   1.0000   1.0000
     1.0000   1.0000   1.0000   1.0000   1.0000   1.0000   1.0000   1.0000
     1.0000   1.0000   1.0000   1.0000   1.0000   1.0000   1.0000   1.0000
     1.0000   1.0000   1.0000   1.0000   1.0000   1.0000   1.0000   1.0000
     1.0000   1.0000   1.0000   1.0000   1.0000   1.0000   1.0000   1.0000
     1.0000   1.0000   1.0000   1.0000   1.0000   1.0000   1.0000   1.0000
     1.0000   1.0000   1.0000   1.0000   1.0000   1.0000   1.0000   1.0000
     1.0000   1.0000   1.0000   1.0000   1.0000   1.0000   1.0000   1.0000
     1.0000   1.0000   1.0000   1.0000   1.0000   1.0000   1.0000   1.0000
     1.0000   1.0000   1.0000   1.0000   1.0000   1.0000   1.0000   1.0000
     1.0000   1.0000   1.0000   1.0000   1.0000   1.0000   1.0000   1.0000
     1.0000   1.0000   1.0000   1.0000   1.0000   1.0000   1.0000   1.0000
     1.0000   1.0000   1.0000   1.0000   1.0000   1.0000   1.0000   1.0000
     1.0000   1.0000   1.0000   1.0000   1.0000   1.0000   0.0000   0.0000
     0.0000   0.0000   0.0000   0.0000   0.0000   0.0000   0.0000   0.0000
     0.0000   0.0000   0.0000   0.0000   0.0000   0.0000   0.0000   0.0000
     0.0000   0.0000   0.0000   0.0000   0.0000   0.0000   0.0000   0.0000
     0.0000   0.0000   0.0000   0.0000   0.0000   0.0000   0.0000   0.0000
     0.0000   0.0000   0.0000   0.0000   0.0000   0.0000   0.0000   0.0000
     0.0000   0.0000   0.0000   0.0000   0.0000   0.0000   0.0000   0.0000
     0.0000   0.0000

          k = 0.0000 0.0000 0.3472 ( 53718 PWs)   bands (ev):

   -81.6206 -77.4825 -67.8964 -67.8963 -67.8887 -67.8885 -67.8219 -67.8219
   -67.3928 -67.3927 -67.3704 -67.3699 -48.6332 -47.5109 -46.8802 -43.9486
   -43.6133 -43.3532 -34.6669 -34.6625 -34.6591 -34.6504 -34.6502 -34.6459
   -34.6382 -34.6370 -34.6365 -34.6350 -34.6259 -34.6257 -34.5832 -34.5828
   -34.5807 -34.5803 -34.5549 -34.5547 -34.1648 -34.1629 -34.1589 -34.1565
   -34.1403 -34.1396 -34.1222 -34.1217 -34.1135 -34.1123 -34.1062 -34.1043
   -23.5211 -23.5206 -23.5189 -23.5185 -15.2582 -15.2335 -14.8966 -14.8788
   -14.6305 -14.6142 -14.3444 -14.3258 -14.0864 -14.0685 -13.8265 -13.8103
   -13.6330 -13.5420 -13.4983 -13.4098 -13.3614 -13.3498 -13.2678 -13.2210
   -13.1944 -13.1764 -13.1514 -13.1488 -13.1078 -13.0984 -13.0861 -13.0766
   -13.0101 -13.0000 -12.9206 -12.8964 -12.8385 -12.8054 -12.7498 -12.7031
   -12.6881 -12.6384 -12.5317 -12.5050 -12.4806 -12.4308 -12.3663 -12.3451
   -11.6406 -11.5324 -11.4292 -11.3213  -7.0757  -7.0732  -7.0652  -7.0551
[...]
     atom    8 type  6   force =    -0.00000000    0.00086000   -0.00000000
     atom    9 type  6   force =    -0.00000000   -0.00122248   -0.00000000
     atom   10 type  6   force =    -0.00000000   -0.00122248   -0.00000000
     atom   11 type  6   force =     0.00000000    0.00111628   -0.00000000
     atom   12 type  6   force =    -0.00000000    0.00111628   -0.00000000
     atom   13 type  6   force =     0.00000000   -0.00033441   -0.00000000
     atom   14 type  6   force =    -0.00000000   -0.00033441   -0.00000000
     atom   15 type  2   force =    -0.00000000   -0.00061698   -0.00000000
     atom   16 type  3   force =    -0.00000000   -0.00061698   -0.00000000
     atom   17 type  8   force =     0.00004440   -0.00016099   -0.00032466
     atom   18 type  8   force =     0.00004440   -0.00016099   -0.00032466
     atom   19 type  8   force =    -0.00004440   -0.00016099    0.00032466
     atom   20 type  8   force =    -0.00004440   -0.00016099    0.00032466
     atom   21 type  8   force =     0.00002453    0.00015715    0.00026438
     atom   22 type  8   force =     0.00002453    0.00015715    0.00026438
     atom   23 type  8   force =    -0.00002453    0.00015715   -0.00026438
     atom   24 type  8   force =    -0.00002453    0.00015715   -0.00026438
     atom   25 type  8   force =    -0.00010036    0.00010123   -0.00001609
     atom   26 type  8   force =    -0.00010036    0.00010123   -0.00001609
     atom   27 type  8   force =     0.00010037    0.00010123    0.00001609
     atom   28 type  8   force =     0.00010037    0.00010123    0.00001609
     atom   29 type  1   force =     0.00012457    0.00016214   -0.00106910
     atom   30 type  1   force =     0.00012457    0.00016214   -0.00106910
     atom   31 type  1   force =    -0.00012457    0.00016214    0.00106910
     atom   32 type  1   force =    -0.00012457    0.00016214    0.00106910
     atom   33 type  7   force =    -0.00002054    0.00001262    0.00043825
     atom   34 type  7   force =    -0.00002054    0.00001262    0.00043825
     atom   35 type  7   force =     0.00002054    0.00001262   -0.00043825
     atom   36 type  7   force =     0.00002054    0.00001262   -0.00043825
     atom   37 type  7   force =     0.00001537    0.00004290   -0.00038850
     atom   38 type  7   force =     0.00001537    0.00004290   -0.00038850
     atom   39 type  7   force =    -0.00001537    0.00004290    0.00038849
     atom   40 type  7   force =    -0.00001537    0.00004290    0.00038849
     atom   41 type  7   force =    -0.00004009   -0.00008114    0.00046790
     atom   42 type  7   force =    -0.00004009   -0.00008114    0.00046790
     atom   43 type  7   force =     0.00004009   -0.00008114   -0.00046789
     atom   44 type  7   force =     0.00004009   -0.00008114   -0.00046789
     atom   45 type  7   force =    -0.00002090    0.00003402    0.00005439
     atom   46 type  7   force =    -0.00002090    0.00003402    0.00005439
     atom   47 type  7   force =     0.00002090    0.00003402   -0.00005439
     atom   48 type  7   force =     0.00002090    0.00003402   -0.00005439
     atom   49 type  7   force =    -0.00018569    0.00098968    0.00031718
     atom   50 type  7   force =    -0.00018569    0.00098968    0.00031718
     atom   51 type  7   force =     0.00018569    0.00098968   -0.00031718
     atom   52 type  7   force =     0.00018570    0.00098968   -0.00031718
     atom   53 type  7   force =     0.00083858    0.00007120    0.00019941
     atom   54 type  7   force =     0.00083858    0.00007120    0.00019941
     atom   55 type  7   force =    -0.00083858    0.00007120   -0.00019941
     atom   56 type  7   force =    -0.00083858    0.00007120   -0.00019941
     atom   57 type  7   force =     0.00032564   -0.00049032    0.00005328
     atom   58 type  7   force =     0.00032564   -0.00049032    0.00005328
     atom   59 type  7   force =    -0.00032564   -0.00049032   -0.00005328
     atom   60 type  7   force =    -0.00032564   -0.00049032   -0.00005328
     atom   61 type  7   force =    -0.00018224    0.00032214   -0.00009899
     atom   62 type  7   force =    -0.00018224    0.00032214   -0.00009899
     atom   63 type  7   force =     0.00018223    0.00032214    0.00009900
     atom   64 type  7   force =     0.00018223    0.00032214    0.00009900
     atom   65 type  7   force =     0.00091884   -0.00044255    0.00040314
     atom   66 type  7   force =     0.00091884   -0.00044255    0.00040314
     atom   67 type  7   force =    -0.00091884   -0.00044254   -0.00040314
     atom   68 type  7   force =    -0.00091884   -0.00044254   -0.00040314
     atom   69 type  7   force =     0.00065408   -0.00054202   -0.00046026
     atom   70 type  7   force =     0.00065408   -0.00054202   -0.00046026
     atom   71 type  7   force =    -0.00065408   -0.00054202    0.00046026
     atom   72 type  7   force =    -0.00065408   -0.00054202    0.00046026
     atom   73 type  7   force =     0.00013937   -0.00001459   -0.00044936
     atom   74 type  7   force =     0.00013937   -0.00001459   -0.00044936
     atom   75 type  7   force =    -0.00013937   -0.00001458    0.00044936
     atom   76 type  7   force =    -0.00013937   -0.00001458    0.00044936
     atom   77 type  7   force =     0.00001278    0.00005650   -0.00051134
     atom   78 type  7   force =     0.00001278    0.00005650   -0.00051134
     atom   79 type  7   force =    -0.00001278    0.00005650    0.00051134
     atom   80 type  7   force =    -0.00001278    0.00005650    0.00051134
     atom   81 type  4   force =    -0.00002868    0.00005787   -0.00012076
     atom   82 type  4   force =    -0.00002868    0.00005787   -0.00012076
     atom   83 type  4   force =     0.00002868    0.00005787    0.00012076
     atom   84 type  4   force =     0.00002868    0.00005787    0.00012076
     atom   85 type  4   force =     0.00001927   -0.00037525   -0.00033411
     atom   86 type  4   force =     0.00001927   -0.00037525   -0.00033411
     atom   87 type  4   force =    -0.00001927   -0.00037525    0.00033411
     atom   88 type  4   force =    -0.00001927   -0.00037525    0.00033411

     Total force =     0.003764     Total SCF correction =     0.000811

     DFT-D3 dispersion Force =     0.006439
     SCF correction compared to forces is large: reduce conv_thr to get better values


     Computing stress (Cartesian axis) and pressure


     negative rho (up, down):  4.807E-04 4.811E-04
          total   stress  (Ry/bohr**3)                   (kbar)     P=       -0.40
  -0.00000269   0.00000000   0.00000019           -0.40        0.00        0.03
   0.00000000  -0.00000455   0.00000000            0.00       -0.67        0.00
   0.00000019   0.00000000  -0.00000095            0.03        0.00       -0.14

     kinetic stress (kbar)  20098.16      0.00     18.96
                                0.00  20015.47      0.00
                               18.96      0.00  19843.55

     local   stress (kbar) -40445.43      0.00    147.93
                                0.00 -40273.25      0.00
                              147.93      0.00  19330.78

     nonloc. stress (kbar)   3792.54      0.00      0.47
                                0.00   3794.38      0.00
                                0.47      0.00   3771.04

     hartree stress (kbar)  22797.33     -0.00    -55.87
                               -0.00  22719.40     -0.00
                              -55.87     -0.00  -6429.32

     exc-cor stress (kbar)  -2815.34      0.00     -0.09
                                0.00  -2815.73     -0.00
                               -0.09     -0.00  -2812.11

     corecor stress (kbar)  -1854.53     -0.00     -0.06
                               -0.00  -1854.03      0.00
                               -0.06      0.00  -1856.22

     ewald   stress (kbar)  -1558.60     -0.00   -111.47
                               -0.00  -1572.18     -0.00
                             -111.47     -0.00 -31836.96

     hubbard stress (kbar)      0.00      0.00      0.00
                                0.00      0.00      0.00
                                0.00      0.00      0.00

     DFT-D   stress (kbar)    -14.52     -0.00      0.16
                               -0.00    -14.74      0.00
                                0.16      0.00    -10.91

     XDM     stress (kbar)      0.00      0.00      0.00
                                0.00      0.00      0.00
                                0.00      0.00      0.00

     dft-nl  stress (kbar)      0.00      0.00      0.00
                                0.00      0.00      0.00
                                0.00      0.00      0.00

     TS-vdW  stress (kbar)      0.00      0.00      0.00
                                0.00      0.00      0.00
                                0.00      0.00      0.00

     MDB     stress (kbar)      0.00      0.00      0.00
                                0.00      0.00      0.00
                                0.00      0.00      0.00

     3D-RISM stress (kbar)      0.00      0.00      0.00
                                0.00      0.00      0.00
                                0.00      0.00      0.00


     BFGS Geometry Optimization
     Energy error            =      0.0E+00 Ry
     Gradient error          =      7.2E-04 Ry/Bohr

     bfgs converged in   1 scf cycles and   0 bfgs steps
     (criteria: energy <  1.0E-04 Ry, force <  1.0E-03 Ry/Bohr)

     End of BFGS Geometry Optimization

     Final energy             =   -5262.5151504208 Ry
Begin final coordinates

ATOMIC_POSITIONS (crystal)
K                0.0000000000        0.4887260200        0.0000000000
K                0.5000000000        0.4887260200        0.0000000000
K                0.2499999850        0.0092915760        0.0000000000
K                0.7500000000        0.0092915760        0.0000000000
Mg               0.0000000000        0.0039980750        0.4999999700
Mg               0.5000000000        0.0039980750        0.4999999700
Mg               0.0000000000        0.3323004540        0.4999999700
Mg               0.5000000000        0.3323004540        0.4999999700
Mg               0.0000000000        0.6658926610        0.4999999700
Mg               0.5000000000        0.6658926610        0.4999999700
Mg               0.2500000300        0.8350235820        0.4999999700
Mg               0.7500000000        0.8350235820        0.4999999700
Mg               0.2500000300        0.1694269480        0.4999999700
Mg               0.7500000000        0.1694269480        0.4999999700
Fe1              0.2500000300        0.4910479190        0.4999999700
Fe2              0.7500000000        0.4910479190        0.4999999700
Si               0.0422528050        0.1647246780        0.2262578760
Si               0.5422527790        0.1647246780        0.2262578760
Si               0.4577472510        0.1647246780        0.7737420800
Si               0.9577472210        0.1647246780        0.7737420800
Si               0.4665893320        0.8342908020        0.7675482630
Si               0.9665893320        0.8342908020        0.7675482630
Si               0.0334107240        0.8342908020        0.2324516620
Si               0.5334107280        0.8342908020        0.2324516620
Si               0.2831951080        0.6676995750        0.2308494300
Si               0.7831951380        0.6676995750        0.2308494300
Si               0.2168049510        0.6676995750        0.7691504960
Si               0.7168049810        0.6676995750        0.7691504960
Al               0.2067909690        0.3313409090        0.7714830040
Al               0.7067909840        0.3313409090        0.7714830040
Al               0.2932091060        0.3313409090        0.2285169510
Al               0.7932090760        0.3313409090        0.2285169510
O                0.0640468000        0.1629950850        0.3858095110
O                0.5640468000        0.1629950850        0.3858095110
O                0.4359532300        0.1629950850        0.6141904000
O                0.9359532590        0.1629950850        0.6141904000
O                0.4369282420        0.8334676030        0.6092910170
O                0.9369282720        0.8334676030        0.6092910170
O                0.0630718320        0.8334676030        0.3907088940
O                0.5630718470        0.8334676030        0.3907088940
O                0.3142474890        0.6738932730        0.3896054920
O                0.8142474890        0.6738932730        0.3896054920
O                0.1857525710        0.6738932730        0.6103943590
O                0.6857525710        0.6738932730        0.6103943590
O                0.1793238820        0.3279392720        0.6016949420
O                0.6793239120        0.3279392720        0.6016949420
O                0.3206761780        0.3279392720        0.3983049390
O                0.8206762080        0.3279392720        0.3983049390
O                0.1700665950        0.2077642230        0.1691810490
O                0.6700665950        0.2077642230        0.1691810490
O                0.3299334650        0.2077642230        0.8308188920
O                0.8299334650        0.2077642230        0.8308188920
O                0.0031175020        0.9969420430        0.1720545740
O                0.5031175020        0.9969420430        0.1720545740
O                0.4968825280        0.9969420430        0.8279453520
O                0.9968825580        0.9969420430        0.8279453520
O                0.3430352510        0.7704817650        0.8264473680
O                0.8430352210        0.7704817650        0.8264473680
O                0.1569648090        0.7704817650        0.1735525580
O                0.6569647790        0.7704817650        0.1735525580
O                0.4065842630        0.7368129490        0.1722989230
O                0.9065842630        0.7368129490        0.1722989230
O                0.0934158190        0.7368129490        0.8277009730
O                0.5934157970        0.7368129490        0.8277009730
O                0.2538642880        0.5084513430        0.1689343450
O                0.7538642880        0.5084513430        0.1689343450
O                0.2461357860        0.5084513430        0.8310655950
O                0.7461357710        0.5084513430        0.8310655950
O                0.0729995890        0.2721775470        0.8364525440
O                0.5729995970        0.2721775470        0.8364525440
O                0.4270004930        0.2721775470        0.1635474120
O                0.9270005230        0.2721775470        0.1635474120
O                0.0602566000        0.5035343770        0.3949086670
O                0.5602566000        0.5035343770        0.3949086670
O                0.4397434590        0.5035343770        0.6050912140
O                0.9397434590        0.5035343770        0.6050912140
O                0.3171936570        0.9993365410        0.3998523060
O                0.8171936270        0.9993365410        0.3998523060
O                0.1828064020        0.9993365410        0.6001475450
O                0.6828063730        0.9993365410        0.6001475450
H                0.0539880660        0.4967257380        0.3013022240
H                0.5539880390        0.4967257380        0.3013022240
H                0.4460119900        0.4967257380        0.6986976270
H                0.9460120200        0.4967257380        0.6986976270
H                0.2997638580        0.0136193420        0.3064119520
H                0.7997638580        0.0136193420        0.3064119520
H                0.2002362160        0.0136193420        0.6935879590
H                0.7002362010        0.0136193420        0.6935879590
End final coordinates



     Writing all to output data dir ./temp/phl-fe1-fe4x2.save/ :
     XML data file, charge density, pseudopotentials, collected wavefunctions

     init_run     :    679.53s CPU    684.94s WALL (       1 calls)
     electrons    :  68829.71s CPU  69171.33s WALL (       1 calls)
     forces       :    489.77s CPU    491.54s WALL (       1 calls)
     force_dftd3  :      8.46s CPU      8.50s WALL (       1 calls)
     stress       :   1711.45s CPU   1719.51s WALL (       1 calls)
     stres_dftd3  :      8.33s CPU      8.37s WALL (       1 calls)

     Called by init_run:
     wfcinit      :    653.96s CPU    657.72s WALL (       1 calls)
     wfcinit:atom :      0.56s CPU      1.00s WALL (      20 calls)
     wfcinit:wfcr :    648.96s CPU    651.84s WALL (      20 calls)
     potinit      :      7.03s CPU      7.18s WALL (       1 calls)
     hinit0       :      2.15s CPU      2.21s WALL (       1 calls)

     Called by electrons:
     c_bands      :  61513.90s CPU  61727.56s WALL (      40 calls)
     sum_band     :   6547.43s CPU   6627.02s WALL (      40 calls)
     v_of_rho     :     35.92s CPU     36.69s WALL (      41 calls)
     v_h          :      1.29s CPU      1.33s WALL (      41 calls)
     v_xc         :     36.25s CPU     37.09s WALL (      43 calls)
     newd         :    531.14s CPU    579.90s WALL (      41 calls)
     PAW_pot      :    206.20s CPU    206.24s WALL (      41 calls)
     mix_rho      :      7.25s CPU      7.40s WALL (      40 calls)
     energy_dftd3 :      7.00s CPU      7.00s WALL (       1 calls)

     Called by c_bands:
     init_us_2    :    113.24s CPU    113.39s WALL (    1660 calls)
     cegterg      :  61270.47s CPU  61483.92s WALL (     802 calls)

     Called by sum_band:
     sum_band:wei :      0.05s CPU      0.05s WALL (      40 calls)
     sum_band:loo :   5499.67s CPU   5519.59s WALL (      40 calls)
     sum_band:buf :     14.42s CPU     14.44s WALL (     800 calls)
     sum_band:ini :     54.73s CPU     54.76s WALL (     800 calls)
     sum_band:cal :   4480.20s CPU   4482.09s WALL (     800 calls)
     sum_band:bec :      5.47s CPU      5.47s WALL (     800 calls)
     addusdens    :   1035.39s CPU   1094.73s WALL (      40 calls)
                                        0.00s GPU  (      40 calls)
     addusd:skk   :      4.04s CPU      6.69s WALL (     320 calls)
                                        0.00s GPU  (     320 calls)

     Called by *egterg:
     cdiaghg      :   1717.14s CPU   1741.81s WALL (    4448 calls)
     cegterg:over :   7538.92s CPU   7541.22s WALL (    3646 calls)
     cegterg:upda :   4195.10s CPU   4211.02s WALL (    3646 calls)
     cegterg:last :  11761.10s CPU  11765.38s WALL (    1590 calls)
     cdiaghg:chol :     52.72s CPU     52.74s WALL (    4448 calls)
     cdiaghg:inve :     37.86s CPU     37.88s WALL (    4448 calls)
     cdiaghg:para :    824.86s CPU    830.82s WALL (    8896 calls)
     h_psi        :  23761.14s CPU  23873.64s WALL (    4468 calls)
     s_psi        :  10200.37s CPU  10202.95s WALL (    4468 calls)
     g_psi        :     19.93s CPU     19.95s WALL (    3646 calls)

     Called by h_psi:
     h_psi:calbec :  10055.59s CPU  10060.43s WALL (    4468 calls)
     vloc_psi     :   3479.30s CPU   3562.97s WALL (    4468 calls)
     add_vuspsi   :  10208.73s CPU  10211.01s WALL (    4468 calls)

     General routines
     calbec       :  15107.78s CPU  15114.68s WALL (    5368 calls)
     fft          :     20.97s CPU     22.06s WALL (    1063 calls)
     ffts         :      1.01s CPU      1.09s WALL (     162 calls)
     fftw         :   2787.53s CPU   2856.66s WALL ( 1387648 calls)
     interpolate  :      2.51s CPU      2.64s WALL (      82 calls)

     Parallel routines

     PAW routines
     PAW_pot      :    206.20s CPU    206.24s WALL (      41 calls)
     PAW_symme    :      0.05s CPU      0.06s WALL (      81 calls)

     PWSCF        :     19h55m CPU     20h 1m WALL


   This run was terminated on:  14:40:47   5Jan2025            

=------------------------------------------------------------------------------=
   JOB DONE.
=------------------------------------------------------------------------------=
