 INFO
nunit      1    1    1
unit   cell
celltype   primcell
shape   parapipedal
 END_INFO
 DIM-GROUP
           3           1
 PRIMVEC
    5.3223161940    0.0000000000    0.0000000000
    0.0000000000    9.2392428640    0.0000000000
   -1.8403930720    0.0000000000   10.1485499410
 CONVVEC
    5.3223161940    0.0000000000    0.0000000000
    0.0000000000    9.2392428640    0.0000000000
   -1.8403930720    0.0000000000   10.1485499410
 PRIMCOORD
          44           1
 19      0.0000000000     4.5181306530     0.0000000000     0.0000000000     0.0002460400     0.0000000000
 19      2.6611571450     0.0707616730     0.0000000000     0.0000000000    -0.0002126600     0.0000000000
 12      4.4021192440     0.0406023730     5.0742737630     0.0000000000    -0.0001311100     0.0000000000
 12      4.4021192440     3.0791112170     5.0742737630     0.0000000000    -0.0001012000     0.0000000000
 12      4.4021192440     6.1471361820     5.0742737630     0.0000000000    -0.0000161500     0.0000000000
 12      1.7409600340     4.5547465870     5.0742737630     0.0000000000     0.0001884900     0.0000000000
 12      1.7409600340     7.7110637160     5.0742737630     0.0000000000     0.0000800500     0.0000000000
 12      1.7409600340     1.5942316050     5.0742737630     0.0000000000    -0.0001043600     0.0000000000
 14      0.0258311900     1.5226803940     2.2782913880     0.0000456900     0.0000367600     0.0001474700
 14      3.4560888680     1.5226803940     7.8702564320    -0.0000456900     0.0000367600    -0.0001474700
 14      3.5629326200     7.7066074670     7.8061802130    -0.0000610300    -0.0000463200     0.0001056700
 14     -0.0810124970     7.7066074670     2.3423674550     0.0000610300    -0.0000463200    -0.0001056700
 14      2.5768542540     6.1594057540     2.3205510280     0.0000536300    -0.0000107300     0.0001104100
 14      0.9050658420     6.1594057540     7.8279963450    -0.0000536300    -0.0000107300    -0.0001104100
 13      0.7908720160     3.0597234070     7.8505797210    -0.0000235400    -0.0000302700     0.0002082000
 13      2.6910479420     3.0597234070     2.2979684130     0.0000235400    -0.0000302700    -0.0002082000
  8     -0.0327609280     1.5118992010     3.9117342490    -0.0001022800     0.0000565000    -0.0000648900
  8      3.5146805990     1.5118992010     6.2368141800     0.0001022800     0.0000565000     0.0000648900
  8      3.5359938380     7.6967888530     6.1858509280    -0.0000143700     0.0000586500     0.0001772100
  8     -0.0540738470     7.6967888530     3.9626965880     0.0000143700     0.0000586500    -0.0001772100
  8      2.6086139800     6.1828453450     3.9479056780     0.0000240800     0.0000528600    -0.0000382500
  8      0.8733058760     6.1828453450     6.2006421420    -0.0000240800     0.0000528600     0.0000382500
  8      0.8132373950     3.0760769050     6.1183848360    -0.0000171100    -0.0001276900     0.0002654500
  8      2.6686825210     3.0760769050     4.0301626790     0.0000171100    -0.0001276900    -0.0002654500
  8      1.5015523370     1.8918392150     1.6970998430     0.0000736500    -0.0000732300     0.0000815100
  8      1.9803678930     1.8918392150     8.4514476720    -0.0000736500    -0.0000732300    -0.0000815100
  8      5.0005442650     9.2109093760     1.7260718960     0.0002105200    -0.0000021200     0.0002419300
  8     -1.5186242660     9.2109093760     8.4224756290    -0.0002105200    -0.0000021200    -0.0002419300
  8      2.1255495410     7.1449011760     8.4074133700     0.0000025700    -0.0001402600    -0.0001223700
  8      1.3563704740     7.1449011760     1.7411344500    -0.0000025700    -0.0001402600     0.0001223700
  8      4.0131241040     6.7787991290     1.7325309540    -0.0000523300     0.0001574300     0.0001101000
  8     -0.5312042210     6.7787991290     8.4160167130     0.0000523300     0.0001574300    -0.0001101000
  8      2.3529738140     4.6934848220     1.6701841210     0.0001779600    -0.0000044900     0.0002370800
  8      1.1289462010     4.6934848220     8.4783636990    -0.0001779600    -0.0000044900    -0.0002370800
  8     -0.7652322290     2.5355456760     8.5107769440    -0.0000647800     0.0000592600    -0.0000053500
  8      4.2471522250     2.5355456760     1.6377705710     0.0000647800     0.0000592600     0.0000053500
  8     -0.0330748680     4.6573034360     4.0135694330     0.0000311000     0.0001289900    -0.0000573700
  8      3.5149952310     4.6573034360     6.1349777880    -0.0000311000     0.0001289900     0.0000573700
  8      2.6321855020     9.2356171510     4.0484923810     0.0000764200    -0.0001332900    -0.0001028000
  8      0.8497344620     9.2356171510     6.1000548400    -0.0000764200    -0.0001332900     0.0001028000
  1     -0.0243843730     4.5806560580     3.0512379820     0.0000191800    -0.0000520600     0.0000646000
  1      3.5063044930     4.5806560580     7.0973101430    -0.0000191800    -0.0000520600    -0.0000646000
  1      2.6096873500     0.1286546670     3.0914014640     0.0000336100     0.0000954800     0.0000088200
  1      0.8722326100     0.1286546670     7.0571466610    -0.0000336100     0.0000954800    -0.0000088200
 CONVCOORD
          44           1
 19      0.0000000000     4.5181306530     0.0000000000
 19      2.6611571450     0.0707616730     0.0000000000
 12      4.4021192440     0.0406023730     5.0742737630
 12      4.4021192440     3.0791112170     5.0742737630
 12      4.4021192440     6.1471361820     5.0742737630
 12      1.7409600340     4.5547465870     5.0742737630
 12      1.7409600340     7.7110637160     5.0742737630
 12      1.7409600340     1.5942316050     5.0742737630
 14      0.0258311900     1.5226803940     2.2782913880
 14      3.4560888680     1.5226803940     7.8702564320
 14      3.5629326200     7.7066074670     7.8061802130
 14     -0.0810124970     7.7066074670     2.3423674550
 14      2.5768542540     6.1594057540     2.3205510280
 14      0.9050658420     6.1594057540     7.8279963450
 13      0.7908720160     3.0597234070     7.8505797210
 13      2.6910479420     3.0597234070     2.2979684130
  8     -0.0327609280     1.5118992010     3.9117342490
  8      3.5146805990     1.5118992010     6.2368141800
  8      3.5359938380     7.6967888530     6.1858509280
  8     -0.0540738470     7.6967888530     3.9626965880
  8      2.6086139800     6.1828453450     3.9479056780
  8      0.8733058760     6.1828453450     6.2006421420
  8      0.8132373950     3.0760769050     6.1183848360
  8      2.6686825210     3.0760769050     4.0301626790
  8      1.5015523370     1.8918392150     1.6970998430
  8      1.9803678930     1.8918392150     8.4514476720
  8      5.0005442650     9.2109093760     1.7260718960
  8     -1.5186242660     9.2109093760     8.4224756290
  8      2.1255495410     7.1449011760     8.4074133700
  8      1.3563704740     7.1449011760     1.7411344500
  8      4.0131241040     6.7787991290     1.7325309540
  8     -0.5312042210     6.7787991290     8.4160167130
  8      2.3529738140     4.6934848220     1.6701841210
  8      1.1289462010     4.6934848220     8.4783636990
  8     -0.7652322290     2.5355456760     8.5107769440
  8      4.2471522250     2.5355456760     1.6377705710
  8     -0.0330748680     4.6573034360     4.0135694330
  8      3.5149952310     4.6573034360     6.1349777880
  8      2.6321855020     9.2356171510     4.0484923810
  8      0.8497344620     9.2356171510     6.1000548400
  1     -0.0243843730     4.5806560580     3.0512379820
  1      3.5063044930     4.5806560580     7.0973101430
  1      2.6096873500     0.1286546670     3.0914014640
  1      0.8722326100     0.1286546670     7.0571466610
 RECIP-PRIMVEC
    0.1878881231   -0.0000000000    0.0340726510

    0.0000000000    0.1082339770   -0.0000000000

    0.0000000000    0.0000000000    0.0985362447

 RECIP-CONVVEC
    0.1878881231   -0.0000000000    0.0340726510

    0.0000000000    0.1082339770   -0.0000000000

    0.0000000000    0.0000000000    0.0985362447

 WIGNER-SEITZ-PRIMCELL
           4
 -0.2661158E+01  0.4619621E+01 -0.4758560E+01  -0.3245262E+00  0.1648562E-15 -0.9458767E+00
 -0.8207650E+00  0.4619621E+01 -0.5389990E+01  -0.3245262E+00  0.1648562E-15 -0.9458767E+00
 -0.8207650E+00 -0.4619621E+01 -0.5389990E+01  -0.3245262E+00  0.1648562E-15 -0.9458767E+00
 -0.2661158E+01 -0.4619621E+01 -0.4758560E+01  -0.3245262E+00  0.1648562E-15 -0.9458767E+00
           4
 -0.2661158E+01  0.4619621E+01 -0.4758560E+01  -0.1000000E+01 -0.0000000E+00 -0.0000000E+00
 -0.2661158E+01 -0.4619621E+01 -0.4758560E+01  -0.1000000E+01 -0.0000000E+00 -0.0000000E+00
 -0.2661158E+01 -0.4619621E+01  0.4758560E+01  -0.1000000E+01 -0.0000000E+00 -0.0000000E+00
 -0.2661158E+01  0.4619621E+01  0.4758560E+01  -0.1000000E+01 -0.0000000E+00 -0.0000000E+00
           6
  0.2661158E+01 -0.4619621E+01  0.4758560E+01  -0.0000000E+00 -0.1000000E+01  0.0000000E+00
  0.8207650E+00 -0.4619621E+01  0.5389990E+01  -0.0000000E+00 -0.1000000E+01  0.0000000E+00
 -0.2661158E+01 -0.4619621E+01  0.4758560E+01  -0.0000000E+00 -0.1000000E+01  0.0000000E+00
 -0.2661158E+01 -0.4619621E+01 -0.4758560E+01  -0.0000000E+00 -0.1000000E+01  0.0000000E+00
 -0.8207650E+00 -0.4619621E+01 -0.5389990E+01  -0.0000000E+00 -0.1000000E+01  0.0000000E+00
  0.2661158E+01 -0.4619621E+01 -0.4758560E+01  -0.0000000E+00 -0.1000000E+01  0.0000000E+00
           4
  0.2661158E+01  0.4619621E+01 -0.4758560E+01   0.1784351E+00  0.0000000E+00 -0.9839517E+00
  0.2661158E+01 -0.4619621E+01 -0.4758560E+01   0.1784351E+00  0.0000000E+00 -0.9839517E+00
 -0.8207650E+00 -0.4619621E+01 -0.5389990E+01   0.1784351E+00  0.0000000E+00 -0.9839517E+00
 -0.8207650E+00  0.4619621E+01 -0.5389990E+01   0.1784351E+00  0.0000000E+00 -0.9839517E+00
           4
 -0.2661158E+01  0.4619621E+01  0.4758560E+01  -0.1784351E+00 -0.0000000E+00  0.9839517E+00
 -0.2661158E+01 -0.4619621E+01  0.4758560E+01  -0.1784351E+00 -0.0000000E+00  0.9839517E+00
  0.8207650E+00 -0.4619621E+01  0.5389990E+01  -0.1784351E+00 -0.0000000E+00  0.9839517E+00
  0.8207650E+00  0.4619621E+01  0.5389990E+01  -0.1784351E+00 -0.0000000E+00  0.9839517E+00
           6
  0.2661158E+01  0.4619621E+01 -0.4758560E+01  -0.4694658E-30  0.1000000E+01  0.1057143E-14
 -0.8207650E+00  0.4619621E+01 -0.5389990E+01  -0.4694658E-30  0.1000000E+01  0.1057143E-14
 -0.2661158E+01  0.4619621E+01 -0.4758560E+01  -0.4694658E-30  0.1000000E+01  0.1057143E-14
 -0.2661158E+01  0.4619621E+01  0.4758560E+01  -0.4694658E-30  0.1000000E+01  0.1057143E-14
  0.8207650E+00  0.4619621E+01  0.5389990E+01  -0.4694658E-30  0.1000000E+01  0.1057143E-14
  0.2661158E+01  0.4619621E+01  0.4758560E+01  -0.4694658E-30  0.1000000E+01  0.1057143E-14
           4
  0.2661158E+01  0.4619621E+01  0.4758560E+01   0.1000000E+01  0.0000000E+00  0.0000000E+00
  0.2661158E+01 -0.4619621E+01  0.4758560E+01   0.1000000E+01  0.0000000E+00  0.0000000E+00
  0.2661158E+01 -0.4619621E+01 -0.4758560E+01   0.1000000E+01  0.0000000E+00  0.0000000E+00
  0.2661158E+01  0.4619621E+01 -0.4758560E+01   0.1000000E+01  0.0000000E+00  0.0000000E+00
           4
  0.8207650E+00 -0.4619621E+01  0.5389990E+01   0.3245262E+00  0.3433757E-16  0.9458767E+00
  0.2661158E+01 -0.4619621E+01  0.4758560E+01   0.3245262E+00  0.3433757E-16  0.9458767E+00
  0.2661158E+01  0.4619621E+01  0.4758560E+01   0.3245262E+00  0.3433757E-16  0.9458767E+00
  0.8207650E+00  0.4619621E+01  0.5389990E+01   0.3245262E+00  0.3433757E-16  0.9458767E+00
 WIGNER-SEITZ-PRIMCELL_END
 WIGNER-SEITZ-CONVCELL
           4
 -0.2661158E+01  0.4619621E+01 -0.4758560E+01  -0.3245262E+00  0.1648562E-15 -0.9458767E+00
 -0.8207650E+00  0.4619621E+01 -0.5389990E+01  -0.3245262E+00  0.1648562E-15 -0.9458767E+00
 -0.8207650E+00 -0.4619621E+01 -0.5389990E+01  -0.3245262E+00  0.1648562E-15 -0.9458767E+00
 -0.2661158E+01 -0.4619621E+01 -0.4758560E+01  -0.3245262E+00  0.1648562E-15 -0.9458767E+00
           4
 -0.2661158E+01  0.4619621E+01 -0.4758560E+01  -0.1000000E+01 -0.0000000E+00 -0.0000000E+00
 -0.2661158E+01 -0.4619621E+01 -0.4758560E+01  -0.1000000E+01 -0.0000000E+00 -0.0000000E+00
 -0.2661158E+01 -0.4619621E+01  0.4758560E+01  -0.1000000E+01 -0.0000000E+00 -0.0000000E+00
 -0.2661158E+01  0.4619621E+01  0.4758560E+01  -0.1000000E+01 -0.0000000E+00 -0.0000000E+00
           6
  0.2661158E+01 -0.4619621E+01  0.4758560E+01  -0.0000000E+00 -0.1000000E+01  0.0000000E+00
  0.8207650E+00 -0.4619621E+01  0.5389990E+01  -0.0000000E+00 -0.1000000E+01  0.0000000E+00
 -0.2661158E+01 -0.4619621E+01  0.4758560E+01  -0.0000000E+00 -0.1000000E+01  0.0000000E+00
 -0.2661158E+01 -0.4619621E+01 -0.4758560E+01  -0.0000000E+00 -0.1000000E+01  0.0000000E+00
 -0.8207650E+00 -0.4619621E+01 -0.5389990E+01  -0.0000000E+00 -0.1000000E+01  0.0000000E+00
  0.2661158E+01 -0.4619621E+01 -0.4758560E+01  -0.0000000E+00 -0.1000000E+01  0.0000000E+00
           4
  0.2661158E+01  0.4619621E+01 -0.4758560E+01   0.1784351E+00  0.0000000E+00 -0.9839517E+00
  0.2661158E+01 -0.4619621E+01 -0.4758560E+01   0.1784351E+00  0.0000000E+00 -0.9839517E+00
 -0.8207650E+00 -0.4619621E+01 -0.5389990E+01   0.1784351E+00  0.0000000E+00 -0.9839517E+00
 -0.8207650E+00  0.4619621E+01 -0.5389990E+01   0.1784351E+00  0.0000000E+00 -0.9839517E+00
           4
 -0.2661158E+01  0.4619621E+01  0.4758560E+01  -0.1784351E+00 -0.0000000E+00  0.9839517E+00
 -0.2661158E+01 -0.4619621E+01  0.4758560E+01  -0.1784351E+00 -0.0000000E+00  0.9839517E+00
  0.8207650E+00 -0.4619621E+01  0.5389990E+01  -0.1784351E+00 -0.0000000E+00  0.9839517E+00
  0.8207650E+00  0.4619621E+01  0.5389990E+01  -0.1784351E+00 -0.0000000E+00  0.9839517E+00
           6
  0.2661158E+01  0.4619621E+01 -0.4758560E+01  -0.4694658E-30  0.1000000E+01  0.1057143E-14
 -0.8207650E+00  0.4619621E+01 -0.5389990E+01  -0.4694658E-30  0.1000000E+01  0.1057143E-14
 -0.2661158E+01  0.4619621E+01 -0.4758560E+01  -0.4694658E-30  0.1000000E+01  0.1057143E-14
 -0.2661158E+01  0.4619621E+01  0.4758560E+01  -0.4694658E-30  0.1000000E+01  0.1057143E-14
  0.8207650E+00  0.4619621E+01  0.5389990E+01  -0.4694658E-30  0.1000000E+01  0.1057143E-14
  0.2661158E+01  0.4619621E+01  0.4758560E+01  -0.4694658E-30  0.1000000E+01  0.1057143E-14
           4
  0.2661158E+01  0.4619621E+01  0.4758560E+01   0.1000000E+01  0.0000000E+00  0.0000000E+00
  0.2661158E+01 -0.4619621E+01  0.4758560E+01   0.1000000E+01  0.0000000E+00  0.0000000E+00
  0.2661158E+01 -0.4619621E+01 -0.4758560E+01   0.1000000E+01  0.0000000E+00  0.0000000E+00
  0.2661158E+01  0.4619621E+01 -0.4758560E+01   0.1000000E+01  0.0000000E+00  0.0000000E+00
           4
  0.8207650E+00 -0.4619621E+01  0.5389990E+01   0.3245262E+00  0.3433757E-16  0.9458767E+00
  0.2661158E+01 -0.4619621E+01  0.4758560E+01   0.3245262E+00  0.3433757E-16  0.9458767E+00
  0.2661158E+01  0.4619621E+01  0.4758560E+01   0.3245262E+00  0.3433757E-16  0.9458767E+00
  0.8207650E+00  0.4619621E+01  0.5389990E+01   0.3245262E+00  0.3433757E-16  0.9458767E+00
 WIGNER-SEITZ-CONVCELL_END
 BRILLOUIN-ZONE-PRIMCELL
           4
  0.9978915E-01 -0.5411699E-01 -0.1519547E-01   0.9458767E+00  0.2780835E-16 -0.3245262E+00
  0.8809897E-01 -0.5411699E-01 -0.4926812E-01   0.9458767E+00  0.2780835E-16 -0.3245262E+00
  0.8809897E-01  0.5411699E-01 -0.4926812E-01   0.9458767E+00  0.2780835E-16 -0.3245262E+00
  0.9978915E-01  0.5411699E-01 -0.1519547E-01   0.9458767E+00  0.2780835E-16 -0.3245262E+00
           4
 -0.8809897E-01 -0.5411699E-01 -0.4926812E-01  -0.1792635E-16 -0.9096321E-16 -0.1000000E+01
 -0.8809897E-01  0.5411699E-01 -0.4926812E-01  -0.1792635E-16 -0.9096321E-16 -0.1000000E+01
  0.8809897E-01  0.5411699E-01 -0.4926812E-01  -0.1792635E-16 -0.9096321E-16 -0.1000000E+01
  0.8809897E-01 -0.5411699E-01 -0.4926812E-01  -0.1792635E-16 -0.9096321E-16 -0.1000000E+01
           6
  0.8809897E-01 -0.5411699E-01  0.4926812E-01   0.0000000E+00 -0.1000000E+01 -0.5779011E-15
 -0.8809897E-01 -0.5411699E-01  0.4926812E-01   0.0000000E+00 -0.1000000E+01 -0.5779011E-15
 -0.9978915E-01 -0.5411699E-01  0.1519547E-01   0.0000000E+00 -0.1000000E+01 -0.5779011E-15
 -0.8809897E-01 -0.5411699E-01 -0.4926812E-01   0.0000000E+00 -0.1000000E+01 -0.5779011E-15
  0.8809897E-01 -0.5411699E-01 -0.4926812E-01   0.0000000E+00 -0.1000000E+01 -0.5779011E-15
  0.9978915E-01 -0.5411699E-01 -0.1519547E-01   0.0000000E+00 -0.1000000E+01 -0.5779011E-15
           4
  0.8809897E-01  0.5411699E-01  0.4926812E-01   0.9839517E+00  0.6880475E-16  0.1784351E+00
  0.8809897E-01 -0.5411699E-01  0.4926812E-01   0.9839517E+00  0.6880475E-16  0.1784351E+00
  0.9978915E-01 -0.5411699E-01 -0.1519547E-01   0.9839517E+00  0.6880475E-16  0.1784351E+00
  0.9978915E-01  0.5411699E-01 -0.1519547E-01   0.9839517E+00  0.6880475E-16  0.1784351E+00
           4
 -0.9978915E-01  0.5411699E-01  0.1519547E-01  -0.9839517E+00  0.2276679E-15 -0.1784351E+00
 -0.8809897E-01  0.5411699E-01 -0.4926812E-01  -0.9839517E+00  0.2276679E-15 -0.1784351E+00
 -0.8809897E-01 -0.5411699E-01 -0.4926812E-01  -0.9839517E+00  0.2276679E-15 -0.1784351E+00
 -0.9978915E-01 -0.5411699E-01  0.1519547E-01  -0.9839517E+00  0.2276679E-15 -0.1784351E+00
           6
  0.9978915E-01  0.5411699E-01 -0.1519547E-01  -0.0000000E+00  0.1000000E+01 -0.5779011E-15
  0.8809897E-01  0.5411699E-01 -0.4926812E-01  -0.0000000E+00  0.1000000E+01 -0.5779011E-15
 -0.8809897E-01  0.5411699E-01 -0.4926812E-01  -0.0000000E+00  0.1000000E+01 -0.5779011E-15
 -0.9978915E-01  0.5411699E-01  0.1519547E-01  -0.0000000E+00  0.1000000E+01 -0.5779011E-15
 -0.8809897E-01  0.5411699E-01  0.4926812E-01  -0.0000000E+00  0.1000000E+01 -0.5779011E-15
  0.8809897E-01  0.5411699E-01  0.4926812E-01  -0.0000000E+00  0.1000000E+01 -0.5779011E-15
           4
  0.8809897E-01 -0.5411699E-01  0.4926812E-01  -0.0000000E+00  0.1819264E-15  0.1000000E+01
  0.8809897E-01  0.5411699E-01  0.4926812E-01  -0.0000000E+00  0.1819264E-15  0.1000000E+01
 -0.8809897E-01  0.5411699E-01  0.4926812E-01  -0.0000000E+00  0.1819264E-15  0.1000000E+01
 -0.8809897E-01 -0.5411699E-01  0.4926812E-01  -0.0000000E+00  0.1819264E-15  0.1000000E+01
           4
 -0.9978915E-01  0.5411699E-01  0.1519547E-01  -0.9458767E+00  0.2780835E-15  0.3245262E+00
 -0.9978915E-01 -0.5411699E-01  0.1519547E-01  -0.9458767E+00  0.2780835E-15  0.3245262E+00
 -0.8809897E-01 -0.5411699E-01  0.4926812E-01  -0.9458767E+00  0.2780835E-15  0.3245262E+00
 -0.8809897E-01  0.5411699E-01  0.4926812E-01  -0.9458767E+00  0.2780835E-15  0.3245262E+00
 BRILLOUIN-ZONE-PRIMCELL_END
 BRILLOUIN-ZONE-CONVCELL
           4
  0.9978915E-01 -0.5411699E-01 -0.1519547E-01   0.9458767E+00  0.2780835E-16 -0.3245262E+00
  0.8809897E-01 -0.5411699E-01 -0.4926812E-01   0.9458767E+00  0.2780835E-16 -0.3245262E+00
  0.8809897E-01  0.5411699E-01 -0.4926812E-01   0.9458767E+00  0.2780835E-16 -0.3245262E+00
  0.9978915E-01  0.5411699E-01 -0.1519547E-01   0.9458767E+00  0.2780835E-16 -0.3245262E+00
           4
 -0.8809897E-01 -0.5411699E-01 -0.4926812E-01  -0.1792635E-16 -0.9096321E-16 -0.1000000E+01
 -0.8809897E-01  0.5411699E-01 -0.4926812E-01  -0.1792635E-16 -0.9096321E-16 -0.1000000E+01
  0.8809897E-01  0.5411699E-01 -0.4926812E-01  -0.1792635E-16 -0.9096321E-16 -0.1000000E+01
  0.8809897E-01 -0.5411699E-01 -0.4926812E-01  -0.1792635E-16 -0.9096321E-16 -0.1000000E+01
           6
  0.8809897E-01 -0.5411699E-01  0.4926812E-01   0.0000000E+00 -0.1000000E+01 -0.5779011E-15
 -0.8809897E-01 -0.5411699E-01  0.4926812E-01   0.0000000E+00 -0.1000000E+01 -0.5779011E-15
 -0.9978915E-01 -0.5411699E-01  0.1519547E-01   0.0000000E+00 -0.1000000E+01 -0.5779011E-15
 -0.8809897E-01 -0.5411699E-01 -0.4926812E-01   0.0000000E+00 -0.1000000E+01 -0.5779011E-15
  0.8809897E-01 -0.5411699E-01 -0.4926812E-01   0.0000000E+00 -0.1000000E+01 -0.5779011E-15
  0.9978915E-01 -0.5411699E-01 -0.1519547E-01   0.0000000E+00 -0.1000000E+01 -0.5779011E-15
           4
  0.8809897E-01  0.5411699E-01  0.4926812E-01   0.9839517E+00  0.6880475E-16  0.1784351E+00
  0.8809897E-01 -0.5411699E-01  0.4926812E-01   0.9839517E+00  0.6880475E-16  0.1784351E+00
  0.9978915E-01 -0.5411699E-01 -0.1519547E-01   0.9839517E+00  0.6880475E-16  0.1784351E+00
  0.9978915E-01  0.5411699E-01 -0.1519547E-01   0.9839517E+00  0.6880475E-16  0.1784351E+00
           4
 -0.9978915E-01  0.5411699E-01  0.1519547E-01  -0.9839517E+00  0.2276679E-15 -0.1784351E+00
 -0.8809897E-01  0.5411699E-01 -0.4926812E-01  -0.9839517E+00  0.2276679E-15 -0.1784351E+00
 -0.8809897E-01 -0.5411699E-01 -0.4926812E-01  -0.9839517E+00  0.2276679E-15 -0.1784351E+00
 -0.9978915E-01 -0.5411699E-01  0.1519547E-01  -0.9839517E+00  0.2276679E-15 -0.1784351E+00
           6
  0.9978915E-01  0.5411699E-01 -0.1519547E-01  -0.0000000E+00  0.1000000E+01 -0.5779011E-15
  0.8809897E-01  0.5411699E-01 -0.4926812E-01  -0.0000000E+00  0.1000000E+01 -0.5779011E-15
 -0.8809897E-01  0.5411699E-01 -0.4926812E-01  -0.0000000E+00  0.1000000E+01 -0.5779011E-15
 -0.9978915E-01  0.5411699E-01  0.1519547E-01  -0.0000000E+00  0.1000000E+01 -0.5779011E-15
 -0.8809897E-01  0.5411699E-01  0.4926812E-01  -0.0000000E+00  0.1000000E+01 -0.5779011E-15
  0.8809897E-01  0.5411699E-01  0.4926812E-01  -0.0000000E+00  0.1000000E+01 -0.5779011E-15
           4
  0.8809897E-01 -0.5411699E-01  0.4926812E-01  -0.0000000E+00  0.1819264E-15  0.1000000E+01
  0.8809897E-01  0.5411699E-01  0.4926812E-01  -0.0000000E+00  0.1819264E-15  0.1000000E+01
 -0.8809897E-01  0.5411699E-01  0.4926812E-01  -0.0000000E+00  0.1819264E-15  0.1000000E+01
 -0.8809897E-01 -0.5411699E-01  0.4926812E-01  -0.0000000E+00  0.1819264E-15  0.1000000E+01
           4
 -0.9978915E-01  0.5411699E-01  0.1519547E-01  -0.9458767E+00  0.2780835E-15  0.3245262E+00
 -0.9978915E-01 -0.5411699E-01  0.1519547E-01  -0.9458767E+00  0.2780835E-15  0.3245262E+00
 -0.8809897E-01 -0.5411699E-01  0.4926812E-01  -0.9458767E+00  0.2780835E-15  0.3245262E+00
 -0.8809897E-01  0.5411699E-01  0.4926812E-01  -0.9458767E+00  0.2780835E-15  0.3245262E+00
 BRILLOUIN-ZONE-CONVCELL_END
 ATOMS
   19    0.0000000000    4.5181306530    0.0000000000    0.0000000000    0.0002460400    0.0000000000
   19    2.6611571450    0.0707616730    0.0000000000    0.0000000000   -0.0002126600    0.0000000000
   12    4.4021192440    0.0406023730    5.0742737630    0.0000000000   -0.0001311100    0.0000000000
   12    4.4021192440    3.0791112170    5.0742737630    0.0000000000   -0.0001012000    0.0000000000
   12    4.4021192440    6.1471361820    5.0742737630    0.0000000000   -0.0000161500    0.0000000000
   12    1.7409600340    4.5547465870    5.0742737630    0.0000000000    0.0001884900    0.0000000000
   12    1.7409600340    7.7110637160    5.0742737630    0.0000000000    0.0000800500    0.0000000000
   12    1.7409600340    1.5942316050    5.0742737630    0.0000000000   -0.0001043600    0.0000000000
   14    0.0258311900    1.5226803940    2.2782913880    0.0000456900    0.0000367600    0.0001474700
   14    3.4560888680    1.5226803940    7.8702564320   -0.0000456900    0.0000367600   -0.0001474700
   14    3.5629326200    7.7066074670    7.8061802130   -0.0000610300   -0.0000463200    0.0001056700
   14   -0.0810124970    7.7066074670    2.3423674550    0.0000610300   -0.0000463200   -0.0001056700
   14    2.5768542540    6.1594057540    2.3205510280    0.0000536300   -0.0000107300    0.0001104100
   14    0.9050658420    6.1594057540    7.8279963450   -0.0000536300   -0.0000107300   -0.0001104100
   13    0.7908720160    3.0597234070    7.8505797210   -0.0000235400   -0.0000302700    0.0002082000
   13    2.6910479420    3.0597234070    2.2979684130    0.0000235400   -0.0000302700   -0.0002082000
    8   -0.0327609280    1.5118992010    3.9117342490   -0.0001022800    0.0000565000   -0.0000648900
    8    3.5146805990    1.5118992010    6.2368141800    0.0001022800    0.0000565000    0.0000648900
    8    3.5359938380    7.6967888530    6.1858509280   -0.0000143700    0.0000586500    0.0001772100
    8   -0.0540738470    7.6967888530    3.9626965880    0.0000143700    0.0000586500   -0.0001772100
    8    2.6086139800    6.1828453450    3.9479056780    0.0000240800    0.0000528600   -0.0000382500
    8    0.8733058760    6.1828453450    6.2006421420   -0.0000240800    0.0000528600    0.0000382500
    8    0.8132373950    3.0760769050    6.1183848360   -0.0000171100   -0.0001276900    0.0002654500
    8    2.6686825210    3.0760769050    4.0301626790    0.0000171100   -0.0001276900   -0.0002654500
    8    1.5015523370    1.8918392150    1.6970998430    0.0000736500   -0.0000732300    0.0000815100
    8    1.9803678930    1.8918392150    8.4514476720   -0.0000736500   -0.0000732300   -0.0000815100
    8    5.0005442650    9.2109093760    1.7260718960    0.0002105200   -0.0000021200    0.0002419300
    8   -1.5186242660    9.2109093760    8.4224756290   -0.0002105200   -0.0000021200   -0.0002419300
    8    2.1255495410    7.1449011760    8.4074133700    0.0000025700   -0.0001402600   -0.0001223700
    8    1.3563704740    7.1449011760    1.7411344500   -0.0000025700   -0.0001402600    0.0001223700
    8    4.0131241040    6.7787991290    1.7325309540   -0.0000523300    0.0001574300    0.0001101000
    8   -0.5312042210    6.7787991290    8.4160167130    0.0000523300    0.0001574300   -0.0001101000
    8    2.3529738140    4.6934848220    1.6701841210    0.0001779600   -0.0000044900    0.0002370800
    8    1.1289462010    4.6934848220    8.4783636990   -0.0001779600   -0.0000044900   -0.0002370800
    8   -0.7652322290    2.5355456760    8.5107769440   -0.0000647800    0.0000592600   -0.0000053500
    8    4.2471522250    2.5355456760    1.6377705710    0.0000647800    0.0000592600    0.0000053500
    8   -0.0330748680    4.6573034360    4.0135694330    0.0000311000    0.0001289900   -0.0000573700
    8    3.5149952310    4.6573034360    6.1349777880   -0.0000311000    0.0001289900    0.0000573700
    8    2.6321855020    9.2356171510    4.0484923810    0.0000764200   -0.0001332900   -0.0001028000
    8    0.8497344620    9.2356171510    6.1000548400   -0.0000764200   -0.0001332900    0.0001028000
    1   -0.0243843730    4.5806560580    3.0512379820    0.0000191800   -0.0000520600    0.0000646000
    1    3.5063044930    4.5806560580    7.0973101430   -0.0000191800   -0.0000520600   -0.0000646000
    1    2.6096873500    0.1286546670    3.0914014640    0.0000336100    0.0000954800    0.0000088200
    1    0.8722326100    0.1286546670    7.0571466610   -0.0000336100    0.0000954800   -0.0000088200
   19   -1.8403930720    4.5181306530   10.1485499410    0.0000000000    0.0002460400    0.0000000000
   19    0.8207640730    0.0707616730   10.1485499410    0.0000000000   -0.0002126600    0.0000000000
   19    5.3223161940    4.5181306530    0.0000000000    0.0000000000    0.0002460400    0.0000000000
   19    3.4819231220    4.5181306530   10.1485499410    0.0000000000    0.0002460400    0.0000000000
 FRAMES
1      0.0000000000    0.0000000000    0.0000000000      5.3223161940    0.0000000000    0.0000000000
1      0.0000000000    0.0000000000    0.0000000000      0.0000000000    9.2392428640    0.0000000000
1      0.0000000000    0.0000000000    0.0000000000     -1.8403930720    0.0000000000   10.1485499410
1     -1.8403930720    0.0000000000   10.1485499410      3.4819231220    0.0000000000   10.1485499410
1     -1.8403930720    0.0000000000   10.1485499410     -1.8403930720    9.2392428640   10.1485499410
1      0.0000000000    9.2392428640    0.0000000000      5.3223161940    9.2392428640    0.0000000000
1      0.0000000000    9.2392428640    0.0000000000     -1.8403930720    9.2392428640   10.1485499410
1     -1.8403930720    9.2392428640   10.1485499410      3.4819231220    9.2392428640   10.1485499410
1      5.3223161940    0.0000000000    0.0000000000      5.3223161940    9.2392428640    0.0000000000
1      5.3223161940    0.0000000000    0.0000000000      3.4819231220    0.0000000000   10.1485499410
1      3.4819231220    0.0000000000   10.1485499410      3.4819231220    9.2392428640   10.1485499410
1      5.3223161940    9.2392428640    0.0000000000      3.4819231220    9.2392428640   10.1485499410
