
     Program PWSCF v.7.3.1 starts on 27Nov2025 at 15:33:48 

     This program is part of the open-source Quantum ESPRESSO suite
     for quantum simulation of materials; please cite
         "P. Giannozzi et al., J. Phys.:Condens. Matter 21 395502 (2009);
         "P. Giannozzi et al., J. Phys.:Condens. Matter 29 465901 (2017);
         "P. Giannozzi et al., J. Chem. Phys. 152 154105 (2020);
          URL http://www.quantum-espresso.org", 
     in publications or presentations arising from this work. More details at
     http://www.quantum-espresso.org/quote

     Parallel version (MPI), running on    14 processors

     MPI processes distributed on     1 nodes
     26123 MiB available memory on the printing compute node when the environment starts

     Reading input from relax.in

     Current dimensions of program PWSCF are:
     Max number of different atomic species (ntypx) = 10
     Max number of k-points (npk) =  40000
     Max angular momentum in pseudopotentials (lmaxx) =  4
     file Al.pbe-n-kjpaw_psl.1.0.0.UPF: wavefunction(s)  3S 3P renormalized
     file H.pbe-kjpaw_psl.1.0.0.UPF: wavefunction(s)  1S renormalized
     file K.pbe-spn-kjpaw_psl.1.0.0.UPF: wavefunction(s)  3S renormalized
     file Mg.pbe-spnl-kjpaw_psl.1.0.0.UPF: wavefunction(s)  2P renormalized
     file O.pbe-n-kjpaw_psl.1.0.0.UPF: wavefunction(s)  2S 2P renormalized
     file Si.pbe-n-kjpaw_psl.1.0.0.UPF: wavefunction(s)  3S 3P renormalized

     R & G space division:  proc/nbgrp/npool/nimage =      14
     Subspace diagonalization in iterative solution of the eigenvalue problem:
     a serial algorithm will be used


     Parallelization info
     --------------------
     sticks:   dense  smooth     PW     G-vecs:    dense   smooth      PW
     Min         519     259     70                48168    17027    2406
     Max         520     260     71                48172    17031    2413
     Sum        7275    3631    985               674379   238401   33713

     Using Slab Decomposition



     bravais-lattice index     =          -12
     lattice parameter (alat)  =      10.0577  a.u.
     unit-cell volume          =    3367.7336 (a.u.)^3
     number of atoms/cell      =           44
     number of atomic types    =            6
     number of electrons       =       256.00
     number of Kohn-Sham states=          128
     kinetic-energy cutoff     =      65.0000  Ry
     charge density cutoff     =     520.0000  Ry
     scf convergence threshold =      1.0E-08
     mixing beta               =       0.7000
     number of iterations used =            8  plain     mixing
     energy convergence thresh.=      1.0E-05
     force convergence thresh. =      5.0E-04
     Exchange-correlation= SLA  PW   PBX  PBC
                           (   1   4   3   4   0   0   0)
     nstep                     =          100


     celldm(1)=  10.057720  celldm(2)=   1.735944  celldm(3)=   1.937892
     celldm(4)=   0.000000  celldm(5)=  -0.178435  celldm(6)=   0.000000

     crystal axes: (cart. coord. in units of alat)
               a(1) = (   1.000000   0.000000   0.000000 )  
               a(2) = (   0.000000   1.735944   0.000000 )  
               a(3) = (  -0.345788   0.000000   1.906792 )  

     reciprocal axes: (cart. coord. in units 2 pi/alat)
               b(1) = (  1.000000 -0.000000  0.181345 )  
               b(2) = (  0.000000  0.576055 -0.000000 )  
               b(3) = (  0.000000  0.000000  0.524441 )  


     PseudoPot. # 1 for Al read from file:
     ./../../pseudos/Al.pbe-n-kjpaw_psl.1.0.0.UPF
     MD5 check sum: 502b6b27b9c6270cab5dd1084b96fa6d
     Pseudo is Projector augmented-wave + core cor, Zval =  3.0
     Generated using &quot;atomic&quot; code by A. Dal Corso  v.6.3
     Shape of augmentation charge: PSQ
     Using radial grid of 1135 points,  6 beta functions with: 
                l(1) =   0
                l(2) =   0
                l(3) =   1
                l(4) =   1
                l(5) =   2
                l(6) =   2
     Q(r) pseudized with 0 coefficients 


     PseudoPot. # 2 for H  read from file:
     ./../../pseudos/H.pbe-kjpaw_psl.1.0.0.UPF
     MD5 check sum: d81a744832360e4a8af0b0b5b123bc2a
     Pseudo is Projector augmented-wave, Zval =  1.0
     Generated using &quot;atomic&quot; code by A. Dal Corso  v.6.3MaX
     Shape of augmentation charge: PSQ
     Using radial grid of  929 points,  2 beta functions with: 
                l(1) =   0
                l(2) =   0
     Q(r) pseudized with 0 coefficients 


     PseudoPot. # 3 for K  read from file:
     ./../../pseudos/K.pbe-spn-kjpaw_psl.1.0.0.UPF
     MD5 check sum: 34cc42130a09071ebe376fd42eb21491
     Pseudo is Projector augmented-wave + core cor, Zval =  9.0
     Generated using &quot;atomic&quot; code by A. Dal Corso  v.6.2.2
     Shape of augmentation charge: PSQ
     Using radial grid of 1165 points,  6 beta functions with: 
                l(1) =   0
                l(2) =   0
                l(3) =   1
                l(4) =   1
                l(5) =   2
                l(6) =   2
     Q(r) pseudized with 0 coefficients 


     PseudoPot. # 4 for Mg read from file:
     ./../../pseudos/Mg.pbe-spnl-kjpaw_psl.1.0.0.UPF
     MD5 check sum: fda14e0d92a6a9a5ebed782e5a4b3067
     Pseudo is Projector augmented-wave + core cor, Zval = 10.0
     Generated using &quot;atomic&quot; code by A. Dal Corso  v.6.3
     Shape of augmentation charge: PSQ
     Using radial grid of 1129 points,  4 beta functions with: 
                l(1) =   0
                l(2) =   0
                l(3) =   1
                l(4) =   1
     Q(r) pseudized with 0 coefficients 


     PseudoPot. # 5 for O  read from file:
     ./../../pseudos/O.pbe-n-kjpaw_psl.1.0.0.UPF
     MD5 check sum: e99d9cef9b487d1ca56f5b95ecd0fd7a
     Pseudo is Projector augmented-wave + core cor, Zval =  6.0
     Generated using &quot;atomic&quot; code by A. Dal Corso  v.6.3
     Shape of augmentation charge: PSQ
     Using radial grid of 1095 points,  4 beta functions with: 
                l(1) =   0
                l(2) =   0
                l(3) =   1
                l(4) =   1
     Q(r) pseudized with 0 coefficients 


     PseudoPot. # 6 for Si read from file:
     ./../../pseudos/Si.pbe-n-kjpaw_psl.1.0.0.UPF
     MD5 check sum: c39c59da582df4a0d9f10159256ea34e
     Pseudo is Projector augmented-wave + core cor, Zval =  4.0
     Generated using &quot;atomic&quot; code by A. Dal Corso  v.6.3
     Shape of augmentation charge: PSQ
     Using radial grid of 1141 points,  6 beta functions with: 
                l(1) =   0
                l(2) =   0
                l(3) =   1
                l(4) =   1
                l(5) =   2
                l(6) =   2
     Q(r) pseudized with 0 coefficients 


     atomic species   valence    mass     pseudopotential
     Al                3.00    26.98154     Al( 1.00)
     H                 1.00     1.00794     H ( 1.00)
     K                 9.00    39.09830     K ( 1.00)
     Mg               10.00    24.30500     Mg( 1.00)
     O                 6.00    15.99940     O ( 1.00)
     Si                4.00    28.08550     Si( 1.00)

      2 Sym. Ops. (no inversion) found


                                    s                        frac. trans.

      isym =  1     identity                                     

 cryst.   s( 1) = (     1          0          0      )
                  (     0          1          0      )
                  (     0          0          1      )

 cart.    s( 1) = (  1.0000000  0.0000000  0.0000000 )
                  (  0.0000000  1.0000000  0.0000000 )
                  (  0.0000000  0.0000000  1.0000000 )


      isym =  2     180 deg rotation - cart. axis [0,1,0]        

 cryst.   s( 2) = (    -1          0          0      )
                  (     0          1          0      )
                  (     0          0         -1      )

 cart.    s( 2) = ( -1.0000000  0.0000000  0.0000000 )
                  (  0.0000000  1.0000000  0.0000000 )
                  (  0.0000000  0.0000000 -1.0000000 )


     point group C_2  (2)   
     there are  2 classes
     the character table:

       E     C2   
A      1.00  1.00
B      1.00 -1.00

     the symmetry operations in each class and the name of the first element:

     E        1
          identity                                               
     C2       2
          180 deg rotation - cart. axis [0,1,0]                  

   Cartesian axes

     site n.     atom                  positions (alat units)
         1        K      tau(   1) = (   0.0000000   0.8465620   0.0000000  )
         2        K      tau(   2) = (   0.4999998   0.0157396   0.0000000  )
         3        Mg     tau(   3) = (   0.8271061   0.0075969   0.9533958  )
         4        Mg     tau(   4) = (   0.8271061   0.5785553   0.9533958  )
         5        Mg     tau(   5) = (   0.8271061   1.1551620   0.9533958  )
         6        Mg     tau(   6) = (   0.3271058   0.8556297   0.9533958  )
         7        Mg     tau(   7) = (   0.3271058   1.4486727   0.9533958  )
         8        Mg     tau(   8) = (   0.3271058   0.2994855   0.9533958  )
         9        Si     tau(   9) = (   0.0045471   0.2861616   0.4322562  )
        10        Si     tau(  10) = (   0.6496646   0.2861616   1.4745354  )
        11        Si     tau(  11) = (   0.6696815   1.4479925   1.4624213  )
        12        Si     tau(  12) = (  -0.0154698   1.4479925   0.4443703  )
        13        Si     tau(  13) = (   0.4839139   1.1573091   0.4402641  )
        14        Si     tau(  14) = (   0.1702978   1.1573091   1.4665274  )
        15        Al     tau(  15) = (   0.1488929   0.5748125   1.4708404  )
        16        Al     tau(  16) = (   0.5053188   0.5748125   0.4359512  )
        17        O      tau(  17) = (  -0.0063295   0.2843205   0.7362323  )
        18        O      tau(  18) = (   0.6605411   0.2843205   1.1705594  )
        19        O      tau(  19) = (   0.6645454   1.4462167   1.1608768  )
        20        O      tau(  20) = (  -0.0103338   1.4462167   0.7459148  )
        21        O      tau(  21) = (   0.4899567   1.1616745   0.7431252  )
        22        O      tau(  22) = (   0.1642550   1.1616745   1.1636664  )
        23        O      tau(  23) = (   0.1530876   0.5777235   1.1484027  )
        24        O      tau(  24) = (   0.5011241   0.5777235   0.7583888  )
        25        O      tau(  25) = (   0.2815768   0.3554196   0.3234606  )
        26        O      tau(  26) = (   0.3726349   0.3554196   1.5833309  )
        27        O      tau(  27) = (   0.9389999   1.7306445   0.3295388  )
        28        O      tau(  28) = (  -0.2847882   1.7306445   1.5772527  )
        29        O      tau(  29) = (   0.3997113   1.3426725   1.5743424  )
        30        O      tau(  30) = (   0.2545004   1.3426725   0.3324492  )
        31        O      tau(  31) = (   0.7536268   1.2736003   0.3307805  )
        32        O      tau(  32) = (  -0.0994151   1.2736003   1.5760111  )
        33        O      tau(  33) = (   0.4416854   0.8818806   0.3188970  )
        34        O      tau(  34) = (   0.2125263   0.8818806   1.5878946  )
        35        O      tau(  35) = (  -0.1432697   0.4763936   1.5943208  )
        36        O      tau(  36) = (   0.7974814   0.4763936   0.3124707  )
        37        O      tau(  37) = (  -0.0063884   0.8750889   0.7562462  )
        38        O      tau(  38) = (   0.6606001   0.8750889   1.1505453  )
        39        O      tau(  39) = (   0.4944796   1.7352017   0.7627383  )
        40        O      tau(  40) = (   0.1597321   1.7352017   1.1440532  )
        41        H      tau(  41) = (  -0.0044905   0.8612292   0.5771710  )
        42        H      tau(  42) = (   0.6587022   0.8612292   1.3296206  )
        43        H      tau(  43) = (   0.4907158   0.0233359   0.5845549  )
        44        H      tau(  44) = (   0.1634959   0.0233359   1.3222368  )

     --------------------------------------------
     DFT-D3 Dispersion Correction (3-body terms):
     --------------------------------------------
       Reference C6 values for interpolation: 

         atom   Coordination number   C6
         H          0.912             6.05
         H          0.000            15.18
         O          0.000            31.01
         O          0.993            25.63
         O          1.989            20.74
         Mg         0.000          1366.75
         Mg         0.963           902.54
         Mg         1.950           351.12
         Al         0.000          1081.08
         Al         0.965           875.51
         Al         1.931           513.50
         Al         2.915           307.19
         Si         0.000           635.71
         Si         0.951           540.53
         Si         1.944           466.25
         Si         2.941           443.01
         Si         3.868           299.55
         K          0.000          9967.00
         K          0.977           676.04

       Values used:

         atom   Coordination number  R0_AB[au]  C6      C8
         K         12.327            4.007    676.04 129074.98
         K         12.589            4.007    676.04 129074.98
         Mg        11.807            3.292    351.12  31436.69
         Mg        12.183            3.292    351.12  31436.69
         Mg        11.736            3.292    351.12  31436.69
         Mg        12.036            3.292    351.12  31436.69
         Mg        11.690            3.292    351.12  31436.69
         Mg        12.203            3.292    351.12  31436.69
         Si         6.859            3.583    299.55  21425.58
         Si         6.859            3.583    299.55  21425.58
         Si         6.347            3.583    299.55  21425.58
         Si         6.347            3.583    299.55  21425.58
         Si         6.383            3.583    299.55  21425.58
         Si         6.383            3.583    299.55  21425.58
         Al         7.766            3.789    307.19  29441.29
         Al         7.766            3.789    307.19  29441.29
         O          3.923            2.345     20.74    418.58
         O          3.923            2.345     20.74    418.58
         O          3.924            2.345     20.74    418.58
         O          3.924            2.345     20.74    418.58
         O          3.904            2.345     20.74    418.58
         O          3.904            2.345     20.74    418.58
         O          3.990            2.345     20.74    418.58
         O          3.990            2.345     20.74    418.58
         O          3.184            2.345     20.74    418.58
         O          3.184            2.345     20.74    418.58
         O          3.074            2.345     20.74    418.58
         O          3.074            2.345     20.74    418.58
         O          2.888            2.345     20.74    418.58
         O          2.888            2.345     20.74    418.58
         O          2.870            2.345     20.74    418.58
         O          2.870            2.345     20.74    418.58
         O          3.110            2.345     20.74    418.58
         O          3.110            2.345     20.74    418.58
         O          3.252            2.345     20.74    418.58
         O          3.252            2.345     20.74    418.58
         O          3.997            2.345     20.74    418.58
         O          3.997            2.345     20.74    418.58
         O          3.996            2.345     20.74    418.58
         O          3.996            2.345     20.74    418.58
         H          1.274            2.062      6.07     73.39
         H          1.274            2.062      6.07     73.39
         H          1.259            2.062      6.07     73.41
         H          1.259            2.062      6.07     73.41

         Molecular C6 ( Ry / a.u.^6 ) =    168243.14


   Crystallographic axes

     site n.     atom                  positions (cryst. coord.)
         1        K      tau(   1) = (  0.0000000  0.4876666  0.0000000  )
         2        K      tau(   2) = (  0.4999998  0.0090669  0.0000000  )
         3        Mg     tau(   3) = (  0.9999999  0.0043762  0.4999999  )
         4        Mg     tau(   4) = (  0.9999999  0.3332798  0.4999999  )
         5        Mg     tau(   5) = (  0.9999999  0.6654372  0.4999999  )
         6        Mg     tau(   6) = (  0.4999997  0.4928901  0.4999999  )
         7        Mg     tau(   7) = (  0.4999997  0.8345156  0.4999999  )
         8        Mg     tau(   8) = (  0.4999997  0.1725203  0.4999999  )
         9        Si     tau(   9) = (  0.0829347  0.1648449  0.2266929  )
        10        Si     tau(  10) = (  0.9170647  0.1648449  0.7733069  )
        11        Si     tau(  11) = (  0.9348847  0.8341239  0.7669538  )
        12        Si     tau(  12) = (  0.0651146  0.8341239  0.2330460  )
        13        Si     tau(  13) = (  0.5637537  0.6666741  0.2308926  )
        14        Si     tau(  14) = (  0.4362456  0.6666741  0.7691072  )
        15        Al     tau(  15) = (  0.4156228  0.3311238  0.7713691  )
        16        Al     tau(  16) = (  0.5843765  0.3311238  0.2286307  )
        17        O      tau(  17) = (  0.1271827  0.1637844  0.3861105  )
        18        O      tau(  18) = (  0.8728166  0.1637844  0.6138894  )
        19        O      tau(  19) = (  0.8750650  0.8331009  0.6088114  )
        20        O      tau(  20) = (  0.1249344  0.8331009  0.3911883  )
        21        O      tau(  21) = (  0.6247189  0.6691888  0.3897254  )
        22        O      tau(  22) = (  0.3752804  0.6691888  0.6102744  )
        23        O      tau(  23) = (  0.3613450  0.3328007  0.6022695  )
        24        O      tau(  24) = (  0.6386543  0.3328007  0.3977302  )
        25        O      tau(  25) = (  0.3402348  0.2047414  0.1696360  )
        26        O      tau(  26) = (  0.6597645  0.2047414  0.8303637  )
        27        O      tau(  27) = (  0.9987602  0.9969470  0.1728237  )
        28        O      tau(  28) = (  0.0012391  0.9969470  0.8271761  )
        29        O      tau(  29) = (  0.6852108  0.7734537  0.8256498  )
        30        O      tau(  30) = (  0.3147885  0.7734537  0.1743500  )
        31        O      tau(  31) = (  0.8136123  0.7336643  0.1734749  )
        32        O      tau(  32) = (  0.1863870  0.7336643  0.8265249  )
        33        O      tau(  33) = (  0.4995159  0.5080121  0.1672427  )
        34        O      tau(  34) = (  0.5004835  0.5080121  0.8327571  )
        35        O      tau(  35) = (  0.1458528  0.2744291  0.8361273  )
        36        O      tau(  36) = (  0.8541465  0.2744291  0.1638725  )
        37        O      tau(  37) = (  0.1307533  0.5040997  0.3966065  )
        38        O      tau(  38) = (  0.8692461  0.5040997  0.6033932  )
        39        O      tau(  39) = (  0.6327986  0.9995722  0.4000113  )
        40        O      tau(  40) = (  0.3672007  0.9995722  0.5999885  )
        41        H      tau(  41) = (  0.1001767  0.4961157  0.3026922  )
        42        H      tau(  42) = (  0.8998227  0.4961157  0.6973076  )
        43        H      tau(  43) = (  0.5967221  0.0134428  0.3065646  )
        44        H      tau(  44) = (  0.4032773  0.0134428  0.6934353  )

     number of k points=    20
                       cart. coord. in units 2pi/alat
        k(    1) = (   0.0000000   0.0000000   0.0000000), wk =   0.0370370
        k(    2) = (   0.0000000   0.0000000   0.1748137), wk =   0.0740741
        k(    3) = (   0.0000000   0.1920184   0.0000000), wk =   0.0740741
        k(    4) = (   0.0000000   0.1920184   0.1748137), wk =   0.1481481
        k(    5) = (   0.1666667   0.0000000   0.0302242), wk =   0.0740741
        k(    6) = (   0.1666667   0.0000000   0.2050379), wk =   0.0740741
        k(    7) = (   0.1666667   0.0000000  -0.1445895), wk =   0.0740741
        k(    8) = (   0.1666667   0.1920184   0.0302242), wk =   0.1481481
        k(    9) = (   0.1666667   0.1920184   0.2050379), wk =   0.1481481
        k(   10) = (   0.1666667   0.1920184  -0.1445895), wk =   0.1481481
        k(   11) = (   0.3333333   0.0000000   0.0604484), wk =   0.0740741
        k(   12) = (   0.3333333   0.0000000   0.2352621), wk =   0.0740741
        k(   13) = (   0.3333333   0.0000000  -0.1143653), wk =   0.0740741
        k(   14) = (   0.3333333   0.1920184   0.0604484), wk =   0.1481481
        k(   15) = (   0.3333333   0.1920184   0.2352621), wk =   0.1481481
        k(   16) = (   0.3333333   0.1920184  -0.1143653), wk =   0.1481481
        k(   17) = (  -0.5000000   0.0000000  -0.0906726), wk =   0.0370370
        k(   18) = (  -0.5000000   0.0000000   0.0841410), wk =   0.0740741
        k(   19) = (  -0.5000000   0.1920184  -0.0906726), wk =   0.0740741
        k(   20) = (  -0.5000000   0.1920184   0.0841410), wk =   0.1481481

                       cryst. coord.
        k(    1) = (   0.0000000   0.0000000   0.0000000), wk =   0.0370370
        k(    2) = (   0.0000000   0.0000000   0.3333333), wk =   0.0740741
        k(    3) = (   0.0000000   0.3333333   0.0000000), wk =   0.0740741
        k(    4) = (   0.0000000   0.3333333   0.3333333), wk =   0.1481481
        k(    5) = (   0.1666667   0.0000000   0.0000000), wk =   0.0740741
        k(    6) = (   0.1666667   0.0000000   0.3333333), wk =   0.0740741
        k(    7) = (   0.1666667   0.0000000  -0.3333333), wk =   0.0740741
        k(    8) = (   0.1666667   0.3333333   0.0000000), wk =   0.1481481
        k(    9) = (   0.1666667   0.3333333   0.3333333), wk =   0.1481481
        k(   10) = (   0.1666667   0.3333333  -0.3333333), wk =   0.1481481
        k(   11) = (   0.3333333   0.0000000   0.0000000), wk =   0.0740741
        k(   12) = (   0.3333333   0.0000000   0.3333333), wk =   0.0740741
        k(   13) = (   0.3333333   0.0000000  -0.3333333), wk =   0.0740741
        k(   14) = (   0.3333333   0.3333333   0.0000000), wk =   0.1481481
        k(   15) = (   0.3333333   0.3333333   0.3333333), wk =   0.1481481
        k(   16) = (   0.3333333   0.3333333  -0.3333333), wk =   0.1481481
        k(   17) = (  -0.5000000   0.0000000   0.0000000), wk =   0.0370370
        k(   18) = (  -0.5000000   0.0000000   0.3333333), wk =   0.0740741
        k(   19) = (  -0.5000000   0.3333333   0.0000000), wk =   0.0740741
        k(   20) = (  -0.5000000   0.3333333   0.3333333), wk =   0.1481481

     Dense  grid:   674379 G-vectors     FFT dimensions: (  75, 128, 144)

     Smooth grid:   238401 G-vectors     FFT dimensions: (  54,  90, 108)

     Dynamical RAM for                 wfc:       4.16 MB

     Dynamical RAM for     wfc (w. buffer):      87.28 MB

     Dynamical RAM for           str. fact:       4.41 MB

     Dynamical RAM for           local pot:       0.00 MB

     Dynamical RAM for          nlocal pot:      13.90 MB

     Dynamical RAM for                qrad:      10.98 MB

     Dynamical RAM for          rho,v,vnew:       4.62 MB

     Dynamical RAM for               rhoin:       1.54 MB

     Dynamical RAM for            rho*nmix:      11.76 MB

     Dynamical RAM for           G-vectors:       2.89 MB

     Dynamical RAM for          h,s,v(r/c):       3.00 MB

     Dynamical RAM for          <psi|beta>:       0.84 MB

     Dynamical RAM for                 psi:       8.31 MB

     Dynamical RAM for                hpsi:       8.31 MB

     Dynamical RAM for                spsi:       8.31 MB

     Dynamical RAM for      wfcinit/wfcrot:      12.29 MB

     Dynamical RAM for           addusdens:     154.36 MB

     Dynamical RAM for          addusforce:     188.63 MB

     Estimated static dynamical RAM per process >     134.79 MB

     Estimated max dynamical RAM per process >     335.18 MB

     Estimated total dynamical RAM >       4.58 GB

     Check: negative core charge=   -0.000003

     Initial potential from superposition of free atoms

     starting charge     255.9488, renormalised to     256.0000
     Starting wfcs are  178 randomized atomic wfcs
     Checking if some PAW data can be deallocated... 
       PAW data deallocated on   13 nodes for type:  1
       PAW data deallocated on   12 nodes for type:  2
       PAW data deallocated on   13 nodes for type:  3
       PAW data deallocated on   12 nodes for type:  4
       PAW data deallocated on    5 nodes for type:  5
       PAW data deallocated on   12 nodes for type:  6

     total cpu time spent up to now is       65.6 secs

     Self-consistent Calculation

     iteration #  1     ecut=    65.00 Ry     beta= 0.70
     Davidson diagonalization with overlap

---- Real-time Memory Report at c_bands before calling an iterative solver
           264 MiB given to the printing process from OS
             0 MiB allocation reported by mallinfo(arena+hblkhd)
         23659 MiB available memory on the node where the printing process lives
------------------
     ethr =  1.00E-02,  avg # of iterations =  2.0

     total cpu time spent up to now is      209.9 secs

     total energy              =   -2435.64721691 Ry
     estimated scf accuracy    <      12.83542960 Ry

     iteration #  2     ecut=    65.00 Ry     beta= 0.70
     Davidson diagonalization with overlap

---- Real-time Memory Report at c_bands before calling an iterative solver
           369 MiB given to the printing process from OS
             0 MiB allocation reported by mallinfo(arena+hblkhd)
         22366 MiB available memory on the node where the printing process lives
------------------
     ethr =  5.01E-03,  avg # of iterations =  5.0

     total cpu time spent up to now is      471.6 secs

     total energy              =   -2442.13325936 Ry
     estimated scf accuracy    <       9.94968605 Ry

     iteration #  3     ecut=    65.00 Ry     beta= 0.70
     Davidson diagonalization with overlap

---- Real-time Memory Report at c_bands before calling an iterative solver
           370 MiB given to the printing process from OS
             0 MiB allocation reported by mallinfo(arena+hblkhd)
         22162 MiB available memory on the node where the printing process lives
------------------
     ethr =  3.89E-03,  avg # of iterations =  2.0

     total cpu time spent up to now is      610.0 secs

     total energy              =   -2441.31240671 Ry
     estimated scf accuracy    <       2.31527959 Ry

     iteration #  4     ecut=    65.00 Ry     beta= 0.70
     Davidson diagonalization with overlap

---- Real-time Memory Report at c_bands before calling an iterative solver
           371 MiB given to the printing process from OS
             0 MiB allocation reported by mallinfo(arena+hblkhd)
         21980 MiB available memory on the node where the printing process lives
------------------
     ethr =  9.04E-04,  avg # of iterations =  7.5

     total cpu time spent up to now is      978.9 secs

     total energy              =   -2443.85979414 Ry
     estimated scf accuracy    <       2.76607722 Ry

     iteration #  5     ecut=    65.00 Ry     beta= 0.70
     Davidson diagonalization with overlap

---- Real-time Memory Report at c_bands before calling an iterative solver
           372 MiB given to the printing process from OS
             0 MiB allocation reported by mallinfo(arena+hblkhd)
         22260 MiB available memory on the node where the printing process lives
------------------
     ethr =  9.04E-04,  avg # of iterations =  1.0

     total cpu time spent up to now is     1091.6 secs

     total energy              =   -2443.23756788 Ry
     estimated scf accuracy    <       1.50068510 Ry

     iteration #  6     ecut=    65.00 Ry     beta= 0.70
     Davidson diagonalization with overlap

---- Real-time Memory Report at c_bands before calling an iterative solver
           372 MiB given to the printing process from OS
             0 MiB allocation reported by mallinfo(arena+hblkhd)
         21493 MiB available memory on the node where the printing process lives
------------------
     ethr =  5.86E-04,  avg # of iterations =  4.5

     total cpu time spent up to now is     1275.1 secs

     total energy              =   -2443.58049223 Ry
     estimated scf accuracy    <       0.06674717 Ry

     iteration #  7     ecut=    65.00 Ry     beta= 0.70
     Davidson diagonalization with overlap

---- Real-time Memory Report at c_bands before calling an iterative solver
           373 MiB given to the printing process from OS
             0 MiB allocation reported by mallinfo(arena+hblkhd)
         22424 MiB available memory on the node where the printing process lives
------------------
     ethr =  2.61E-05,  avg # of iterations =  7.5

     total cpu time spent up to now is     1610.7 secs

     total energy              =   -2443.71848319 Ry
     estimated scf accuracy    <       0.01340577 Ry

     iteration #  8     ecut=    65.00 Ry     beta= 0.70
     Davidson diagonalization with overlap

---- Real-time Memory Report at c_bands before calling an iterative solver
           374 MiB given to the printing process from OS
             0 MiB allocation reported by mallinfo(arena+hblkhd)
         21898 MiB available memory on the node where the printing process lives
------------------
     ethr =  5.24E-06,  avg # of iterations =  4.9

     total cpu time spent up to now is     1774.3 secs

     total energy              =   -2443.71403945 Ry
     estimated scf accuracy    <       0.01251727 Ry

     iteration #  9     ecut=    65.00 Ry     beta= 0.70
     Davidson diagonalization with overlap

---- Real-time Memory Report at c_bands before calling an iterative solver
           374 MiB given to the printing process from OS
             0 MiB allocation reported by mallinfo(arena+hblkhd)
         22435 MiB available memory on the node where the printing process lives
------------------
     ethr =  4.89E-06,  avg # of iterations =  5.0

     total cpu time spent up to now is     1949.1 secs

     total energy              =   -2443.71568083 Ry
     estimated scf accuracy    <       0.00132195 Ry

     iteration # 10     ecut=    65.00 Ry     beta= 0.70
     Davidson diagonalization with overlap

---- Real-time Memory Report at c_bands before calling an iterative solver
           375 MiB given to the printing process from OS
             0 MiB allocation reported by mallinfo(arena+hblkhd)
         22195 MiB available memory on the node where the printing process lives
------------------
     ethr =  5.16E-07,  avg # of iterations = 11.7

     total cpu time spent up to now is     2466.3 secs

     total energy              =   -2443.71841209 Ry
     estimated scf accuracy    <       0.00362536 Ry

     iteration # 11     ecut=    65.00 Ry     beta= 0.70
     Davidson diagonalization with overlap

---- Real-time Memory Report at c_bands before calling an iterative solver
           375 MiB given to the printing process from OS
             0 MiB allocation reported by mallinfo(arena+hblkhd)
         22638 MiB available memory on the node where the printing process lives
------------------
     ethr =  5.16E-07,  avg # of iterations =  2.0

     total cpu time spent up to now is     2608.9 secs

     total energy              =   -2443.71767691 Ry
     estimated scf accuracy    <       0.00155951 Ry

     iteration # 12     ecut=    65.00 Ry     beta= 0.70
     Davidson diagonalization with overlap

---- Real-time Memory Report at c_bands before calling an iterative solver
           375 MiB given to the printing process from OS
             0 MiB allocation reported by mallinfo(arena+hblkhd)
         22123 MiB available memory on the node where the printing process lives
------------------
     ethr =  5.16E-07,  avg # of iterations =  6.2

     total cpu time spent up to now is     2895.7 secs

     total energy              =   -2443.71855597 Ry
     estimated scf accuracy    <       0.00029160 Ry

     iteration # 13     ecut=    65.00 Ry     beta= 0.70
     Davidson diagonalization with overlap

---- Real-time Memory Report at c_bands before calling an iterative solver
           375 MiB given to the printing process from OS
             0 MiB allocation reported by mallinfo(arena+hblkhd)
         21773 MiB available memory on the node where the printing process lives
------------------
     ethr =  1.14E-07,  avg # of iterations =  4.8

     total cpu time spent up to now is     3060.4 secs

     total energy              =   -2443.71845355 Ry
     estimated scf accuracy    <       0.00026051 Ry

     iteration # 14     ecut=    65.00 Ry     beta= 0.70
     Davidson diagonalization with overlap

---- Real-time Memory Report at c_bands before calling an iterative solver
           375 MiB given to the printing process from OS
             0 MiB allocation reported by mallinfo(arena+hblkhd)
         22525 MiB available memory on the node where the printing process lives
------------------
     ethr =  1.02E-07,  avg # of iterations =  5.8

     total cpu time spent up to now is     3296.4 secs

     total energy              =   -2443.71857508 Ry
     estimated scf accuracy    <       0.00002779 Ry

     iteration # 15     ecut=    65.00 Ry     beta= 0.70
     Davidson diagonalization with overlap

---- Real-time Memory Report at c_bands before calling an iterative solver
           375 MiB given to the printing process from OS
             0 MiB allocation reported by mallinfo(arena+hblkhd)
         22293 MiB available memory on the node where the printing process lives
------------------
     ethr =  1.09E-08,  avg # of iterations =  9.1

     total cpu time spent up to now is     3636.2 secs

     total energy              =   -2443.71856509 Ry
     estimated scf accuracy    <       0.00011632 Ry

     iteration # 16     ecut=    65.00 Ry     beta= 0.70
     Davidson diagonalization with overlap

---- Real-time Memory Report at c_bands before calling an iterative solver
           375 MiB given to the printing process from OS
             0 MiB allocation reported by mallinfo(arena+hblkhd)
         22360 MiB available memory on the node where the printing process lives
------------------
     ethr =  1.09E-08,  avg # of iterations =  5.3

     total cpu time spent up to now is     3852.3 secs

     total energy              =   -2443.71856817 Ry
     estimated scf accuracy    <       0.00002291 Ry

     iteration # 17     ecut=    65.00 Ry     beta= 0.70
     Davidson diagonalization with overlap

---- Real-time Memory Report at c_bands before calling an iterative solver
           375 MiB given to the printing process from OS
             0 MiB allocation reported by mallinfo(arena+hblkhd)
         22415 MiB available memory on the node where the printing process lives
------------------
     ethr =  8.95E-09,  avg # of iterations =  4.3

     total cpu time spent up to now is     4062.7 secs

     total energy              =   -2443.71857790 Ry
     estimated scf accuracy    <       0.00000046 Ry

     iteration # 18     ecut=    65.00 Ry     beta= 0.70
     Davidson diagonalization with overlap

---- Real-time Memory Report at c_bands before calling an iterative solver
           375 MiB given to the printing process from OS
             0 MiB allocation reported by mallinfo(arena+hblkhd)
         21729 MiB available memory on the node where the printing process lives
------------------
     c_bands:  1 eigenvalues not converged
     c_bands:  1 eigenvalues not converged
     c_bands:  2 eigenvalues not converged
     ethr =  1.79E-10,  avg # of iterations = 17.3

     total cpu time spent up to now is     4789.5 secs

     total energy              =   -2443.71858113 Ry
     estimated scf accuracy    <       0.00000236 Ry

     iteration # 19     ecut=    65.00 Ry     beta= 0.70
     Davidson diagonalization with overlap

---- Real-time Memory Report at c_bands before calling an iterative solver
           375 MiB given to the printing process from OS
             0 MiB allocation reported by mallinfo(arena+hblkhd)
         21750 MiB available memory on the node where the printing process lives
------------------
     ethr =  1.79E-10,  avg # of iterations =  1.6

     total cpu time spent up to now is     4912.5 secs

     total energy              =   -2443.71858002 Ry
     estimated scf accuracy    <       0.00000183 Ry

     iteration # 20     ecut=    65.00 Ry     beta= 0.70
     Davidson diagonalization with overlap

---- Real-time Memory Report at c_bands before calling an iterative solver
           375 MiB given to the printing process from OS
             0 MiB allocation reported by mallinfo(arena+hblkhd)
         21741 MiB available memory on the node where the printing process lives
------------------
     ethr =  1.79E-10,  avg # of iterations = 10.6

     total cpu time spent up to now is     5378.1 secs

     total energy              =   -2443.71858090 Ry
     estimated scf accuracy    <       0.00000048 Ry

     iteration # 21     ecut=    65.00 Ry     beta= 0.70
     Davidson diagonalization with overlap

---- Real-time Memory Report at c_bands before calling an iterative solver
           375 MiB given to the printing process from OS
             0 MiB allocation reported by mallinfo(arena+hblkhd)
         22379 MiB available memory on the node where the printing process lives
------------------
     ethr =  1.79E-10,  avg # of iterations =  1.9

     total cpu time spent up to now is     5505.8 secs

     total energy              =   -2443.71858081 Ry
     estimated scf accuracy    <       0.00000047 Ry

     iteration # 22     ecut=    65.00 Ry     beta= 0.70
     Davidson diagonalization with overlap

---- Real-time Memory Report at c_bands before calling an iterative solver
           375 MiB given to the printing process from OS
             0 MiB allocation reported by mallinfo(arena+hblkhd)
         22137 MiB available memory on the node where the printing process lives
------------------
     ethr =  1.79E-10,  avg # of iterations =  1.1

     total cpu time spent up to now is     5621.6 secs

     total energy              =   -2443.71858074 Ry
     estimated scf accuracy    <       0.00000029 Ry

     iteration # 23     ecut=    65.00 Ry     beta= 0.70
     Davidson diagonalization with overlap

---- Real-time Memory Report at c_bands before calling an iterative solver
           375 MiB given to the printing process from OS
             0 MiB allocation reported by mallinfo(arena+hblkhd)
         22019 MiB available memory on the node where the printing process lives
------------------
     ethr =  1.13E-10,  avg # of iterations =  2.0

     total cpu time spent up to now is     5765.7 secs

     total energy              =   -2443.71858075 Ry
     estimated scf accuracy    <       0.00000011 Ry

     iteration # 24     ecut=    65.00 Ry     beta= 0.70
     Davidson diagonalization with overlap

---- Real-time Memory Report at c_bands before calling an iterative solver
           375 MiB given to the printing process from OS
             0 MiB allocation reported by mallinfo(arena+hblkhd)
         21814 MiB available memory on the node where the printing process lives
------------------
     ethr =  4.29E-11,  avg # of iterations =  2.0

     total cpu time spent up to now is     5912.9 secs

     total energy              =   -2443.71858075 Ry
     estimated scf accuracy    <       0.00000006 Ry

     iteration # 25     ecut=    65.00 Ry     beta= 0.70
     Davidson diagonalization with overlap

---- Real-time Memory Report at c_bands before calling an iterative solver
           375 MiB given to the printing process from OS
             0 MiB allocation reported by mallinfo(arena+hblkhd)
         22361 MiB available memory on the node where the printing process lives
------------------
     ethr =  2.31E-11,  avg # of iterations =  2.0

     total cpu time spent up to now is     6056.2 secs

     total energy              =   -2443.71858074 Ry
     estimated scf accuracy    <       0.00000004 Ry

     iteration # 26     ecut=    65.00 Ry     beta= 0.70
     Davidson diagonalization with overlap

---- Real-time Memory Report at c_bands before calling an iterative solver
           375 MiB given to the printing process from OS
             0 MiB allocation reported by mallinfo(arena+hblkhd)
         22490 MiB available memory on the node where the printing process lives
------------------
     ethr =  1.51E-11,  avg # of iterations =  5.0

     total cpu time spent up to now is     6256.6 secs

     End of self-consistent calculation

          k = 0.0000 0.0000 0.0000 ( 29777 PWs)   bands (ev):

   -67.9371 -67.9285 -67.8239 -67.4553 -67.3739 -67.3577 -34.7147 -34.6955
   -34.6870 -34.6818 -34.6803 -34.6726 -34.5887 -34.5884 -34.5608 -34.2165
   -34.2096 -34.2094 -34.1480 -34.1460 -34.1329 -34.1114 -34.0981 -34.0899
   -23.4565 -23.4333 -15.3365 -15.2852 -14.4112 -14.3693 -13.8685 -13.8530
   -13.7131 -13.5955 -13.5821 -13.4234 -13.2249 -13.1916 -13.1442 -13.1204
   -13.1053 -13.0093 -12.8205 -12.7534 -12.5983 -12.5567 -12.5269 -12.4659
   -11.4805 -11.2338  -7.0072  -6.9816  -6.9408  -6.9360  -6.9079  -6.9000
    -4.5414  -4.4961  -2.6945  -2.6040  -2.1088  -1.6441  -1.4402  -1.4246
    -1.3668  -1.2856  -0.9353  -0.8977  -0.7804  -0.6561  -0.6396  -0.4494
    -0.2673  -0.2119  -0.0548   0.1660   0.3041   0.3149   0.3823   0.5770
     0.5928   0.8497   0.9885   1.0156   1.1228   1.1893   1.2744   1.3840
     1.5363   1.5626   1.6897   1.7991   1.8275   1.9222   1.9601   2.0304
     2.1421   2.1980   2.3408   2.3679   2.4283   2.4336   2.5778   2.5827
     2.6152   2.7280   2.7468   2.7594   2.9312   2.9452   3.0513   3.0742
     3.1422   3.1697   3.2576   3.2734   3.3506   3.4374   3.4940   3.5385
     3.5478   3.6448   3.6610   3.7534   3.7785   3.9463   4.0965   4.2080

     occupation numbers 
     1.0000   1.0000   1.0000   1.0000   1.0000   1.0000   1.0000   1.0000
     1.0000   1.0000   1.0000   1.0000   1.0000   1.0000   1.0000   1.0000
     1.0000   1.0000   1.0000   1.0000   1.0000   1.0000   1.0000   1.0000
     1.0000   1.0000   1.0000   1.0000   1.0000   1.0000   1.0000   1.0000
     1.0000   1.0000   1.0000   1.0000   1.0000   1.0000   1.0000   1.0000
     1.0000   1.0000   1.0000   1.0000   1.0000   1.0000   1.0000   1.0000
     1.0000   1.0000   1.0000   1.0000   1.0000   1.0000   1.0000   1.0000
     1.0000   1.0000   1.0000   1.0000   1.0000   1.0000   1.0000   1.0000
     1.0000   1.0000   1.0000   1.0000   1.0000   1.0000   1.0000   1.0000
     1.0000   1.0000   1.0000   1.0000   1.0000   1.0000   1.0000   1.0000
     1.0000   1.0000   1.0000   1.0000   1.0000   1.0000   1.0000   1.0000
     1.0000   1.0000   1.0000   1.0000   1.0000   1.0000   1.0000   1.0000
     1.0000   1.0000   1.0000   1.0000   1.0000   1.0000   1.0000   1.0000
     1.0000   1.0000   1.0000   1.0000   1.0000   1.0000   1.0000   1.0000
     1.0000   1.0000   1.0000   1.0000   1.0000   1.0000   1.0000   1.0000
     1.0000   1.0000   1.0000   1.0000   1.0000   1.0000   1.0000   1.0000

          k = 0.0000 0.0000 0.1748 ( 29787 PWs)   bands (ev):

   -67.9371 -67.9285 -67.8239 -67.4553 -67.3739 -67.3577 -34.7147 -34.6955
   -34.6870 -34.6817 -34.6804 -34.6727 -34.5887 -34.5884 -34.5608 -34.2166
   -34.2096 -34.2094 -34.1480 -34.1460 -34.1329 -34.1114 -34.0980 -34.0899
   -23.4565 -23.4333 -15.3261 -15.2963 -14.4014 -14.3796 -13.8691 -13.8523
   -13.7068 -13.5977 -13.5877 -13.4200 -13.2250 -13.1923 -13.1394 -13.1297
   -13.0981 -13.0132 -12.8134 -12.7597 -12.5949 -12.5510 -12.5295 -12.4720
   -11.4802 -11.2343  -7.0072  -6.9817  -6.9408  -6.9360  -6.9078  -6.9000
    -4.5366  -4.5013  -2.6742  -2.6277  -2.0849  -1.6335  -1.4466  -1.4112
    -1.3649  -1.3038  -0.9176  -0.9041  -0.7991  -0.6483  -0.6279  -0.5365
    -0.2553  -0.1803  -0.0950   0.1140   0.2964   0.3014   0.4057   0.5812
     0.6317   0.9079   0.9330   1.0212   1.1231   1.2122   1.2948   1.4147
     1.5561   1.5804   1.7841   1.8138   1.8408   1.9260   1.9549   2.0267
     2.1183   2.1590   2.3289   2.3534   2.3816   2.4514   2.5211   2.5524
     2.5585   2.7658   2.7970   2.8141   2.8331   2.9849   3.0240   3.0733
     3.1085   3.1585   3.2650   3.3498   3.4021   3.4206   3.4794   3.5064
     3.5214   3.6182   3.6551   3.7589   3.7997   3.9555   4.0942   4.2121

     occupation numbers 
     1.0000   1.0000   1.0000   1.0000   1.0000   1.0000   1.0000   1.0000
     1.0000   1.0000   1.0000   1.0000   1.0000   1.0000   1.0000   1.0000
     1.0000   1.0000   1.0000   1.0000   1.0000   1.0000   1.0000   1.0000
     1.0000   1.0000   1.0000   1.0000   1.0000   1.0000   1.0000   1.0000
     1.0000   1.0000   1.0000   1.0000   1.0000   1.0000   1.0000   1.0000
     1.0000   1.0000   1.0000   1.0000   1.0000   1.0000   1.0000   1.0000
     1.0000   1.0000   1.0000   1.0000   1.0000   1.0000   1.0000   1.0000
     1.0000   1.0000   1.0000   1.0000   1.0000   1.0000   1.0000   1.0000
     1.0000   1.0000   1.0000   1.0000   1.0000   1.0000   1.0000   1.0000
     1.0000   1.0000   1.0000   1.0000   1.0000   1.0000   1.0000   1.0000
     1.0000   1.0000   1.0000   1.0000   1.0000   1.0000   1.0000   1.0000
     1.0000   1.0000   1.0000   1.0000   1.0000   1.0000   1.0000   1.0000
     1.0000   1.0000   1.0000   1.0000   1.0000   1.0000   1.0000   1.0000
     1.0000   1.0000   1.0000   1.0000   1.0000   1.0000   1.0000   1.0000
     1.0000   1.0000   1.0000   1.0000   1.0000   1.0000   1.0000   1.0000
     1.0000   1.0000   1.0000   1.0000   1.0000   1.0000   1.0000   1.0000

          k = 0.0000 0.1920 0.0000 ( 29731 PWs)   bands (ev):

   -67.9371 -67.9285 -67.8239 -67.4553 -67.3739 -67.3577 -34.7147 -34.6954
   -34.6870 -34.6817 -34.6803 -34.6726 -34.5886 -34.5884 -34.5608 -34.2165
   -34.2095 -34.2093 -34.1480 -34.1460 -34.1329 -34.1114 -34.0980 -34.0899
   -23.4565 -23.4333 -15.3313 -15.2803 -14.4460 -14.3993 -13.8685 -13.8531
   -13.6499 -13.5607 -13.4809 -13.4365 -13.2496 -13.2171 -13.2008 -13.1597
   -13.1191 -13.0052 -12.8157 -12.7493 -12.5910 -12.5566 -12.5262 -12.4620
   -11.4791 -11.2332  -7.0048  -6.9842  -6.9406  -6.9352  -6.9084  -6.9004
    -4.5027  -4.4557  -2.8385  -2.7442  -2.0623  -1.6896  -1.3644  -1.3533
    -1.2606  -1.2143  -1.0129  -0.9507  -0.7954  -0.6016  -0.5694  -0.4328
    -0.3608  -0.1707  -0.0756   0.1678   0.2602   0.2640   0.3883   0.5550
     0.6316   0.8342   0.8707   1.0148   1.1348   1.2695   1.3151   1.4025
     1.5893   1.6042   1.6944   1.8067   1.8489   1.8895   2.0536   2.1169
     2.1207   2.2092   2.2699   2.3510   2.3870   2.4721   2.5675   2.6109
     2.6363   2.6968   2.7578   2.8164   2.9135   2.9710   3.1009   3.1105
     3.1407   3.1551   3.1752   3.2650   3.3282   3.3494   3.5094   3.5231
     3.5544   3.6384   3.6385   3.7565   3.7652   3.9259   3.9263   4.2053

     occupation numbers 
     1.0000   1.0000   1.0000   1.0000   1.0000   1.0000   1.0000   1.0000
     1.0000   1.0000   1.0000   1.0000   1.0000   1.0000   1.0000   1.0000
     1.0000   1.0000   1.0000   1.0000   1.0000   1.0000   1.0000   1.0000
     1.0000   1.0000   1.0000   1.0000   1.0000   1.0000   1.0000   1.0000
     1.0000   1.0000   1.0000   1.0000   1.0000   1.0000   1.0000   1.0000
     1.0000   1.0000   1.0000   1.0000   1.0000   1.0000   1.0000   1.0000
     1.0000   1.0000   1.0000   1.0000   1.0000   1.0000   1.0000   1.0000
     1.0000   1.0000   1.0000   1.0000   1.0000   1.0000   1.0000   1.0000
     1.0000   1.0000   1.0000   1.0000   1.0000   1.0000   1.0000   1.0000
     1.0000   1.0000   1.0000   1.0000   1.0000   1.0000   1.0000   1.0000
     1.0000   1.0000   1.0000   1.0000   1.0000   1.0000   1.0000   1.0000
     1.0000   1.0000   1.0000   1.0000   1.0000   1.0000   1.0000   1.0000
     1.0000   1.0000   1.0000   1.0000   1.0000   1.0000   1.0000   1.0000
     1.0000   1.0000   1.0000   1.0000   1.0000   1.0000   1.0000   1.0000
     1.0000   1.0000   1.0000   1.0000   1.0000   1.0000   1.0000   1.0000
     1.0000   1.0000   1.0000   1.0000   1.0000   1.0000   1.0000   1.0000

          k = 0.0000 0.1920 0.1748 ( 29792 PWs)   bands (ev):

   -67.9371 -67.9285 -67.8239 -67.4553 -67.3739 -67.3577 -34.7147 -34.6955
   -34.6870 -34.6818 -34.6804 -34.6727 -34.5886 -34.5884 -34.5608 -34.2166
   -34.2096 -34.2094 -34.1480 -34.1460 -34.1330 -34.1114 -34.0981 -34.0899
   -23.4565 -23.4333 -15.3207 -15.2917 -14.4362 -14.4097 -13.8692 -13.8523
   -13.6466 -13.5550 -13.4943 -13.4291 -13.2561 -13.2187 -13.1909 -13.1633
   -13.1162 -13.0092 -12.8093 -12.7555 -12.5880 -12.5497 -12.5291 -12.4680
   -11.4788 -11.2338  -7.0048  -6.9842  -6.9406  -6.9351  -6.9083  -6.9004
    -4.4953  -4.4634  -2.8159  -2.7689  -2.0419  -1.6809  -1.3607  -1.3524
    -1.2541  -1.2263  -0.9963  -0.9651  -0.8075  -0.6043  -0.5665  -0.5045
    -0.3280  -0.1587  -0.1334   0.1392   0.2450   0.2624   0.4229   0.5489
     0.6699   0.7979   0.8675   1.0540   1.2022   1.2634   1.3644   1.4409
     1.5627   1.6305   1.7336   1.7827   1.8259   1.9574   2.0249   2.0894
     2.1413   2.1965   2.2475   2.3282   2.4015   2.4421   2.5178   2.5778
     2.6396   2.7086   2.7727   2.8435   2.8912   2.9269   3.0530   3.1024
     3.1358   3.1680   3.2146   3.2842   3.3378   3.4101   3.4659   3.4977
     3.5578   3.6102   3.6342   3.7470   3.7775   3.9409   3.9466   4.2100

     occupation numbers 
     1.0000   1.0000   1.0000   1.0000   1.0000   1.0000   1.0000   1.0000
     1.0000   1.0000   1.0000   1.0000   1.0000   1.0000   1.0000   1.0000
     1.0000   1.0000   1.0000   1.0000   1.0000   1.0000   1.0000   1.0000
     1.0000   1.0000   1.0000   1.0000   1.0000   1.0000   1.0000   1.0000
     1.0000   1.0000   1.0000   1.0000   1.0000   1.0000   1.0000   1.0000
     1.0000   1.0000   1.0000   1.0000   1.0000   1.0000   1.0000   1.0000
     1.0000   1.0000   1.0000   1.0000   1.0000   1.0000   1.0000   1.0000
     1.0000   1.0000   1.0000   1.0000   1.0000   1.0000   1.0000   1.0000
     1.0000   1.0000   1.0000   1.0000   1.0000   1.0000   1.0000   1.0000
     1.0000   1.0000   1.0000   1.0000   1.0000   1.0000   1.0000   1.0000
     1.0000   1.0000   1.0000   1.0000   1.0000   1.0000   1.0000   1.0000
     1.0000   1.0000   1.0000   1.0000   1.0000   1.0000   1.0000   1.0000
     1.0000   1.0000   1.0000   1.0000   1.0000   1.0000   1.0000   1.0000
     1.0000   1.0000   1.0000   1.0000   1.0000   1.0000   1.0000   1.0000
     1.0000   1.0000   1.0000   1.0000   1.0000   1.0000   1.0000   1.0000
     1.0000   1.0000   1.0000   1.0000   1.0000   1.0000   1.0000   1.0000

          k = 0.1667 0.0000 0.0302 ( 29795 PWs)   bands (ev):

   -67.9371 -67.9285 -67.8239 -67.4553 -67.3739 -67.3577 -34.7142 -34.6964
   -34.6869 -34.6821 -34.6797 -34.6727 -34.5888 -34.5883 -34.5609 -34.2165
   -34.2100 -34.2091 -34.1493 -34.1444 -34.1330 -34.1107 -34.0990 -34.0900
   -23.4564 -23.4331 -15.2788 -15.2289 -14.4270 -14.3894 -13.9945 -13.9689
   -13.6533 -13.5489 -13.4918 -13.4054 -13.2369 -13.2099 -13.1430 -13.1217
   -13.0824 -13.0185 -12.8384 -12.7672 -12.6427 -12.5888 -12.5432 -12.4445
   -11.4763 -11.2379  -7.0070  -6.9850  -6.9405  -6.9347  -6.9078  -6.8978
    -4.3871  -4.3364  -2.6635  -2.5696  -2.1079  -1.7146  -1.6719  -1.6120
    -1.1802  -1.0853  -0.9574  -0.9410  -0.7668  -0.6406  -0.5925  -0.4475
    -0.2795  -0.1712  -0.0708   0.1462   0.2376   0.3399   0.3585   0.4637
     0.7682   0.8662   0.9599   1.0104   1.0667   1.1808   1.2516   1.3534
     1.4300   1.6379   1.6575   1.7179   1.8013   1.9854   2.0192   2.0838
     2.1127   2.2247   2.3448   2.3596   2.3970   2.4264   2.5487   2.5917
     2.6553   2.6787   2.7915   2.8129   2.8869   2.9583   3.0032   3.0553
     3.1025   3.1451   3.2289   3.3111   3.3482   3.4386   3.4746   3.5051
     3.5469   3.5920   3.6156   3.6831   3.7659   3.9469   4.0876   4.1232

     occupation numbers 
     1.0000   1.0000   1.0000   1.0000   1.0000   1.0000   1.0000   1.0000
     1.0000   1.0000   1.0000   1.0000   1.0000   1.0000   1.0000   1.0000
     1.0000   1.0000   1.0000   1.0000   1.0000   1.0000   1.0000   1.0000
     1.0000   1.0000   1.0000   1.0000   1.0000   1.0000   1.0000   1.0000
     1.0000   1.0000   1.0000   1.0000   1.0000   1.0000   1.0000   1.0000
     1.0000   1.0000   1.0000   1.0000   1.0000   1.0000   1.0000   1.0000
     1.0000   1.0000   1.0000   1.0000   1.0000   1.0000   1.0000   1.0000
     1.0000   1.0000   1.0000   1.0000   1.0000   1.0000   1.0000   1.0000
     1.0000   1.0000   1.0000   1.0000   1.0000   1.0000   1.0000   1.0000
     1.0000   1.0000   1.0000   1.0000   1.0000   1.0000   1.0000   1.0000
     1.0000   1.0000   1.0000   1.0000   1.0000   1.0000   1.0000   1.0000
     1.0000   1.0000   1.0000   1.0000   1.0000   1.0000   1.0000   1.0000
     1.0000   1.0000   1.0000   1.0000   1.0000   1.0000   1.0000   1.0000
     1.0000   1.0000   1.0000   1.0000   1.0000   1.0000   1.0000   1.0000
     1.0000   1.0000   1.0000   1.0000   1.0000   1.0000   1.0000   1.0000
     1.0000   1.0000   1.0000   1.0000   1.0000   1.0000   1.0000   1.0000

          k = 0.1667 0.0000 0.2050 ( 29806 PWs)   bands (ev):

   -67.9371 -67.9285 -67.8239 -67.4553 -67.3739 -67.3577 -34.7142 -34.6965
   -34.6868 -34.6821 -34.6797 -34.6727 -34.5888 -34.5883 -34.5609 -34.2165
   -34.2100 -34.2091 -34.1493 -34.1444 -34.1330 -34.1107 -34.0990 -34.0900
   -23.4564 -23.4331 -15.2660 -15.2426 -14.4174 -14.3995 -13.9899 -13.9737
   -13.6482 -13.5465 -13.5021 -13.4005 -13.2365 -13.2099 -13.1427 -13.1246
   -13.0783 -13.0224 -12.8324 -12.7728 -12.6374 -12.5956 -12.5323 -12.4531
   -11.4759 -11.2386  -7.0070  -6.9850  -6.9404  -6.9347  -6.9077  -6.8978
    -4.3878  -4.3359  -2.6464  -2.5906  -2.0819  -1.7457  -1.6451  -1.6030
    -1.1774  -1.0884  -0.9707  -0.9287  -0.7641  -0.6111  -0.6044  -0.5455
    -0.2522  -0.1379  -0.1136   0.0889   0.2239   0.3286   0.3534   0.5058
     0.8131   0.8730   0.9434   1.0087   1.0666   1.2081   1.2887   1.3483
     1.4750   1.6255   1.6935   1.7200   1.8984   1.9761   2.0322   2.0654
     2.1101   2.2160   2.2872   2.3083   2.3736   2.4477   2.5214   2.5408
     2.6251   2.7198   2.7925   2.8589   2.8834   2.9247   2.9698   3.0560
     3.1024   3.1309   3.2339   3.3511   3.3934   3.4291   3.4637   3.4886
     3.5512   3.5631   3.5805   3.6936   3.7996   3.9383   4.0880   4.1427

     occupation numbers 
     1.0000   1.0000   1.0000   1.0000   1.0000   1.0000   1.0000   1.0000
     1.0000   1.0000   1.0000   1.0000   1.0000   1.0000   1.0000   1.0000
     1.0000   1.0000   1.0000   1.0000   1.0000   1.0000   1.0000   1.0000
     1.0000   1.0000   1.0000   1.0000   1.0000   1.0000   1.0000   1.0000
     1.0000   1.0000   1.0000   1.0000   1.0000   1.0000   1.0000   1.0000
     1.0000   1.0000   1.0000   1.0000   1.0000   1.0000   1.0000   1.0000
     1.0000   1.0000   1.0000   1.0000   1.0000   1.0000   1.0000   1.0000
     1.0000   1.0000   1.0000   1.0000   1.0000   1.0000   1.0000   1.0000
     1.0000   1.0000   1.0000   1.0000   1.0000   1.0000   1.0000   1.0000
     1.0000   1.0000   1.0000   1.0000   1.0000   1.0000   1.0000   1.0000
     1.0000   1.0000   1.0000   1.0000   1.0000   1.0000   1.0000   1.0000
     1.0000   1.0000   1.0000   1.0000   1.0000   1.0000   1.0000   1.0000
     1.0000   1.0000   1.0000   1.0000   1.0000   1.0000   1.0000   1.0000
     1.0000   1.0000   1.0000   1.0000   1.0000   1.0000   1.0000   1.0000
     1.0000   1.0000   1.0000   1.0000   1.0000   1.0000   1.0000   1.0000
     1.0000   1.0000   1.0000   1.0000   1.0000   1.0000   1.0000   1.0000

          k = 0.1667 0.0000-0.1446 ( 29812 PWs)   bands (ev):

   -67.9371 -67.9285 -67.8239 -67.4553 -67.3739 -67.3577 -34.7142 -34.6964
   -34.6869 -34.6821 -34.6797 -34.6727 -34.5888 -34.5884 -34.5609 -34.2165
   -34.2100 -34.2091 -34.1493 -34.1444 -34.1330 -34.1107 -34.0990 -34.0900
   -23.4564 -23.4331 -15.2711 -15.2372 -14.4183 -14.3986 -13.9882 -13.9753
   -13.6502 -13.5415 -13.5055 -13.4015 -13.2363 -13.2092 -13.1446 -13.1163
   -13.0852 -13.0227 -12.8282 -12.7764 -12.6281 -12.6073 -12.5304 -12.4520
   -11.4758 -11.2385  -7.0071  -6.9850  -6.9404  -6.9347  -6.9077  -6.8978
    -4.3691  -4.3549  -2.6440  -2.5916  -2.0924  -1.7415  -1.6470  -1.6052
    -1.1678  -1.1017  -0.9546  -0.9190  -0.7807  -0.6297  -0.5995  -0.5185
    -0.2790  -0.1421  -0.0970   0.0978   0.2527   0.3386   0.3741   0.4923
     0.7728   0.8663   0.9318   1.0021   1.0965   1.2253   1.2826   1.3164
     1.4846   1.6250   1.6667   1.7348   1.8218   1.9838   2.0286   2.0473
     2.1127   2.2243   2.3036   2.3458   2.3838   2.4425   2.5212   2.5807
     2.6289   2.7101   2.7930   2.8768   2.8990   2.9237   2.9749   3.0808
     3.1114   3.1359   3.2581   3.3086   3.3555   3.3915   3.4638   3.5053
     3.5287   3.5544   3.6058   3.6730   3.8275   3.9345   4.0926   4.1365

     occupation numbers 
     1.0000   1.0000   1.0000   1.0000   1.0000   1.0000   1.0000   1.0000
     1.0000   1.0000   1.0000   1.0000   1.0000   1.0000   1.0000   1.0000
     1.0000   1.0000   1.0000   1.0000   1.0000   1.0000   1.0000   1.0000
     1.0000   1.0000   1.0000   1.0000   1.0000   1.0000   1.0000   1.0000
     1.0000   1.0000   1.0000   1.0000   1.0000   1.0000   1.0000   1.0000
     1.0000   1.0000   1.0000   1.0000   1.0000   1.0000   1.0000   1.0000
     1.0000   1.0000   1.0000   1.0000   1.0000   1.0000   1.0000   1.0000
     1.0000   1.0000   1.0000   1.0000   1.0000   1.0000   1.0000   1.0000
     1.0000   1.0000   1.0000   1.0000   1.0000   1.0000   1.0000   1.0000
     1.0000   1.0000   1.0000   1.0000   1.0000   1.0000   1.0000   1.0000
     1.0000   1.0000   1.0000   1.0000   1.0000   1.0000   1.0000   1.0000
     1.0000   1.0000   1.0000   1.0000   1.0000   1.0000   1.0000   1.0000
     1.0000   1.0000   1.0000   1.0000   1.0000   1.0000   1.0000   1.0000
     1.0000   1.0000   1.0000   1.0000   1.0000   1.0000   1.0000   1.0000
     1.0000   1.0000   1.0000   1.0000   1.0000   1.0000   1.0000   1.0000
     1.0000   1.0000   1.0000   1.0000   1.0000   1.0000   1.0000   1.0000

          k = 0.1667 0.1920 0.0302 ( 29760 PWs)   bands (ev):

   -67.9371 -67.9285 -67.8239 -67.4553 -67.3739 -67.3577 -34.7142 -34.6964
   -34.6868 -34.6821 -34.6797 -34.6727 -34.5887 -34.5883 -34.5608 -34.2164
   -34.2099 -34.2091 -34.1493 -34.1444 -34.1330 -34.1107 -34.0990 -34.0900
   -23.4564 -23.4331 -15.2739 -15.2243 -14.4575 -14.4154 -13.9802 -13.9583
   -13.6188 -13.5294 -13.4239 -13.3912 -13.2462 -13.2244 -13.2016 -13.1475
   -13.1192 -13.0126 -12.8355 -12.7579 -12.6347 -12.5894 -12.5419 -12.4430
   -11.4752 -11.2375  -7.0052  -6.9871  -6.9404  -6.9341  -6.9081  -6.8981
    -4.3511  -4.2993  -2.8188  -2.7238  -2.0413  -1.6621  -1.5768  -1.5427
    -1.1711  -1.0908  -1.0392  -0.9103  -0.7664  -0.5813  -0.5414  -0.4209
    -0.3108  -0.1833  -0.0994   0.1368   0.1983   0.3187   0.3607   0.4381
     0.7718   0.7916   0.9390   1.0328   1.0744   1.1951   1.2807   1.3709
     1.4715   1.6057   1.6354   1.7567   1.8492   1.9616   2.0572   2.0940
     2.1760   2.2194   2.2721   2.3995   2.4056   2.4973   2.5610   2.6098
     2.6579   2.6923   2.7898   2.8293   2.8838   2.9476   3.0164   3.0835
     3.1169   3.1592   3.1800   3.2840   3.3236   3.3530   3.4648   3.4795
     3.5123   3.5624   3.6376   3.7011   3.7514   3.9120   3.9812   4.1540

     occupation numbers 
     1.0000   1.0000   1.0000   1.0000   1.0000   1.0000   1.0000   1.0000
     1.0000   1.0000   1.0000   1.0000   1.0000   1.0000   1.0000   1.0000
     1.0000   1.0000   1.0000   1.0000   1.0000   1.0000   1.0000   1.0000
     1.0000   1.0000   1.0000   1.0000   1.0000   1.0000   1.0000   1.0000
     1.0000   1.0000   1.0000   1.0000   1.0000   1.0000   1.0000   1.0000
     1.0000   1.0000   1.0000   1.0000   1.0000   1.0000   1.0000   1.0000
     1.0000   1.0000   1.0000   1.0000   1.0000   1.0000   1.0000   1.0000
     1.0000   1.0000   1.0000   1.0000   1.0000   1.0000   1.0000   1.0000
     1.0000   1.0000   1.0000   1.0000   1.0000   1.0000   1.0000   1.0000
     1.0000   1.0000   1.0000   1.0000   1.0000   1.0000   1.0000   1.0000
     1.0000   1.0000   1.0000   1.0000   1.0000   1.0000   1.0000   1.0000
     1.0000   1.0000   1.0000   1.0000   1.0000   1.0000   1.0000   1.0000
     1.0000   1.0000   1.0000   1.0000   1.0000   1.0000   1.0000   1.0000
     1.0000   1.0000   1.0000   1.0000   1.0000   1.0000   1.0000   1.0000
     1.0000   1.0000   1.0000   1.0000   1.0000   1.0000   1.0000   1.0000
     1.0000   1.0000   1.0000   1.0000   1.0000   1.0000   1.0000   1.0000

          k = 0.1667 0.1920 0.2050 ( 29800 PWs)   bands (ev):

   -67.9371 -67.9285 -67.8239 -67.4553 -67.3739 -67.3577 -34.7142 -34.6965
   -34.6869 -34.6821 -34.6797 -34.6727 -34.5887 -34.5883 -34.5609 -34.2165
   -34.2100 -34.2091 -34.1493 -34.1444 -34.1330 -34.1107 -34.0990 -34.0900
   -23.4564 -23.4331 -15.2607 -15.2382 -14.4464 -14.4272 -13.9782 -13.9604
   -13.6156 -13.5244 -13.4377 -13.3818 -13.2492 -13.2271 -13.1999 -13.1445
   -13.1169 -13.0169 -12.8305 -12.7633 -12.6312 -12.5936 -12.5316 -12.4514
   -11.4748 -11.2382  -7.0053  -6.9871  -6.9403  -6.9340  -6.9080  -6.8981
    -4.3490  -4.3016  -2.7961  -2.7490  -2.0215  -1.6528  -1.5939  -1.5269
    -1.1717  -1.0907  -1.0383  -0.9062  -0.7652  -0.6061  -0.5415  -0.4711
    -0.2828  -0.1804  -0.1296   0.0967   0.1883   0.3090   0.3606   0.4647
     0.7624   0.8048   0.9288   1.0746   1.1053   1.2225   1.3099   1.4088
     1.5085   1.5656   1.6365   1.7474   1.9007   1.9701   2.0655   2.1029
     2.1694   2.2211   2.2338   2.3427   2.4108   2.4784   2.5301   2.5767
     2.6508   2.7137   2.7991   2.8265   2.8808   2.9302   2.9842   3.0672
     3.1148   3.1521   3.2254   3.2850   3.3337   3.3824   3.4217   3.4874
     3.5233   3.5701   3.5893   3.7191   3.7637   3.9184   3.9890   4.1666

     occupation numbers 
     1.0000   1.0000   1.0000   1.0000   1.0000   1.0000   1.0000   1.0000
     1.0000   1.0000   1.0000   1.0000   1.0000   1.0000   1.0000   1.0000
     1.0000   1.0000   1.0000   1.0000   1.0000   1.0000   1.0000   1.0000
     1.0000   1.0000   1.0000   1.0000   1.0000   1.0000   1.0000   1.0000
     1.0000   1.0000   1.0000   1.0000   1.0000   1.0000   1.0000   1.0000
     1.0000   1.0000   1.0000   1.0000   1.0000   1.0000   1.0000   1.0000
     1.0000   1.0000   1.0000   1.0000   1.0000   1.0000   1.0000   1.0000
     1.0000   1.0000   1.0000   1.0000   1.0000   1.0000   1.0000   1.0000
     1.0000   1.0000   1.0000   1.0000   1.0000   1.0000   1.0000   1.0000
     1.0000   1.0000   1.0000   1.0000   1.0000   1.0000   1.0000   1.0000
     1.0000   1.0000   1.0000   1.0000   1.0000   1.0000   1.0000   1.0000
     1.0000   1.0000   1.0000   1.0000   1.0000   1.0000   1.0000   1.0000
     1.0000   1.0000   1.0000   1.0000   1.0000   1.0000   1.0000   1.0000
     1.0000   1.0000   1.0000   1.0000   1.0000   1.0000   1.0000   1.0000
     1.0000   1.0000   1.0000   1.0000   1.0000   1.0000   1.0000   1.0000
     1.0000   1.0000   1.0000   1.0000   1.0000   1.0000   1.0000   1.0000

          k = 0.1667 0.1920-0.1446 ( 29797 PWs)   bands (ev):

   -67.9371 -67.9285 -67.8239 -67.4553 -67.3739 -67.3577 -34.7142 -34.6964
   -34.6868 -34.6822 -34.6797 -34.6727 -34.5887 -34.5883 -34.5609 -34.2165
   -34.2099 -34.2091 -34.1493 -34.1444 -34.1330 -34.1107 -34.0990 -34.0900
   -23.4564 -23.4331 -15.2660 -15.2327 -14.4486 -14.4249 -13.9745 -13.9643
   -13.6167 -13.5251 -13.4316 -13.3882 -13.2477 -13.2262 -13.1982 -13.1490
   -13.1160 -13.0168 -12.8262 -12.7665 -12.6193 -12.6084 -12.5295 -12.4504
   -11.4747 -11.2382  -7.0053  -6.9871  -6.9403  -6.9340  -6.9080  -6.8981
    -4.3316  -4.3193  -2.7966  -2.7480  -2.0290  -1.6559  -1.5962  -1.5233
    -1.1539  -1.1098  -1.0172  -0.9118  -0.7858  -0.5778  -0.5527  -0.4596
    -0.3086  -0.1776  -0.1322   0.1188   0.2122   0.3067   0.3876   0.4590
     0.7546   0.7743   0.9230   1.0512   1.1222   1.2144   1.3086   1.4031
     1.4962   1.5944   1.6071   1.7764   1.8636   1.9400   2.0520   2.1004
     2.1516   2.2238   2.2658   2.3572   2.4410   2.4744   2.5146   2.5834
     2.6818   2.7297   2.7841   2.8527   2.8822   2.9194   3.0083   3.1067
     3.1182   3.1475   3.2231   3.2613   3.3402   3.3725   3.4223   3.4662
     3.5283   3.5413   3.5813   3.6949   3.8011   3.9093   3.9901   4.1608

     occupation numbers 
     1.0000   1.0000   1.0000   1.0000   1.0000   1.0000   1.0000   1.0000
     1.0000   1.0000   1.0000   1.0000   1.0000   1.0000   1.0000   1.0000
     1.0000   1.0000   1.0000   1.0000   1.0000   1.0000   1.0000   1.0000
     1.0000   1.0000   1.0000   1.0000   1.0000   1.0000   1.0000   1.0000
     1.0000   1.0000   1.0000   1.0000   1.0000   1.0000   1.0000   1.0000
     1.0000   1.0000   1.0000   1.0000   1.0000   1.0000   1.0000   1.0000
     1.0000   1.0000   1.0000   1.0000   1.0000   1.0000   1.0000   1.0000
     1.0000   1.0000   1.0000   1.0000   1.0000   1.0000   1.0000   1.0000
     1.0000   1.0000   1.0000   1.0000   1.0000   1.0000   1.0000   1.0000
     1.0000   1.0000   1.0000   1.0000   1.0000   1.0000   1.0000   1.0000
     1.0000   1.0000   1.0000   1.0000   1.0000   1.0000   1.0000   1.0000
     1.0000   1.0000   1.0000   1.0000   1.0000   1.0000   1.0000   1.0000
     1.0000   1.0000   1.0000   1.0000   1.0000   1.0000   1.0000   1.0000
     1.0000   1.0000   1.0000   1.0000   1.0000   1.0000   1.0000   1.0000
     1.0000   1.0000   1.0000   1.0000   1.0000   1.0000   1.0000   1.0000
     1.0000   1.0000   1.0000   1.0000   1.0000   1.0000   1.0000   1.0000

          k = 0.3333 0.0000 0.0604 ( 29823 PWs)   bands (ev):

   -67.9370 -67.9286 -67.8239 -67.4553 -67.3739 -67.3578 -34.7131 -34.6984
   -34.6862 -34.6828 -34.6786 -34.6730 -34.5887 -34.5883 -34.5610 -34.2163
   -34.2103 -34.2091 -34.1500 -34.1432 -34.1330 -34.1086 -34.1017 -34.0901
   -23.4561 -23.4329 -15.1206 -15.0753 -14.5422 -14.5112 -14.1210 -14.0909
   -13.5708 -13.4576 -13.3800 -13.3571 -13.2595 -13.2504 -13.1520 -13.1226
   -13.0904 -13.0201 -12.8915 -12.8160 -12.7085 -12.6505 -12.5365 -12.4347
   -11.4690 -11.2467  -7.0068  -6.9918  -6.9393  -6.9326  -6.9076  -6.8935
    -3.9832  -3.9181  -2.7990  -2.6895  -2.0969  -1.9402  -1.6855  -1.5577
    -1.1702  -1.0298  -0.9910  -0.9502  -0.6793  -0.5979  -0.5109  -0.4157
    -0.3644  -0.1572  -0.0308   0.1318   0.2178   0.3258   0.3587   0.4154
     0.7091   0.8302   0.9092   0.9712   1.1199   1.1852   1.2886   1.2961
     1.3697   1.3998   1.5238   1.6904   1.7711   2.0200   2.0534   2.1093
     2.1593   2.2731   2.3924   2.4151   2.4420   2.4665   2.5273   2.6190
     2.6689   2.7078   2.7553   2.8424   2.8707   2.8999   2.9468   2.9614
     3.1331   3.1487   3.1830   3.2606   3.3139   3.3424   3.4031   3.4320
     3.4513   3.5281   3.6336   3.6713   3.7134   3.9561   4.0337   4.0637

     occupation numbers 
     1.0000   1.0000   1.0000   1.0000   1.0000   1.0000   1.0000   1.0000
     1.0000   1.0000   1.0000   1.0000   1.0000   1.0000   1.0000   1.0000
     1.0000   1.0000   1.0000   1.0000   1.0000   1.0000   1.0000   1.0000
     1.0000   1.0000   1.0000   1.0000   1.0000   1.0000   1.0000   1.0000
     1.0000   1.0000   1.0000   1.0000   1.0000   1.0000   1.0000   1.0000
     1.0000   1.0000   1.0000   1.0000   1.0000   1.0000   1.0000   1.0000
     1.0000   1.0000   1.0000   1.0000   1.0000   1.0000   1.0000   1.0000
     1.0000   1.0000   1.0000   1.0000   1.0000   1.0000   1.0000   1.0000
     1.0000   1.0000   1.0000   1.0000   1.0000   1.0000   1.0000   1.0000
     1.0000   1.0000   1.0000   1.0000   1.0000   1.0000   1.0000   1.0000
     1.0000   1.0000   1.0000   1.0000   1.0000   1.0000   1.0000   1.0000
     1.0000   1.0000   1.0000   1.0000   1.0000   1.0000   1.0000   1.0000
     1.0000   1.0000   1.0000   1.0000   1.0000   1.0000   1.0000   1.0000
     1.0000   1.0000   1.0000   1.0000   1.0000   1.0000   1.0000   1.0000
     1.0000   1.0000   1.0000   1.0000   1.0000   1.0000   1.0000   1.0000
     1.0000   1.0000   1.0000   1.0000   1.0000   1.0000   1.0000   1.0000

          k = 0.3333 0.0000 0.2353 ( 29845 PWs)   bands (ev):

   -67.9370 -67.9286 -67.8239 -67.4553 -67.3739 -67.3578 -34.7131 -34.6984
   -34.6862 -34.6828 -34.6786 -34.6730 -34.5888 -34.5884 -34.5610 -34.2163
   -34.2103 -34.2091 -34.1500 -34.1432 -34.1330 -34.1086 -34.1017 -34.0901
   -23.4561 -23.4329 -15.1054 -15.0912 -14.5397 -14.5137 -14.1137 -14.0987
   -13.5675 -13.4554 -13.3818 -13.3624 -13.2567 -13.2483 -13.1543 -13.1214
   -13.0919 -13.0222 -12.8844 -12.8231 -12.6971 -12.6606 -12.5267 -12.4435
   -11.4682 -11.2476  -7.0069  -6.9918  -6.9392  -6.9326  -6.9075  -6.8935
    -3.9839  -3.9175  -2.7794  -2.7120  -2.0749  -1.9694  -1.6638  -1.5508
    -1.1702  -1.0306  -0.9920  -0.9397  -0.6560  -0.5893  -0.5369  -0.4883
    -0.3266  -0.1940  -0.0235   0.0977   0.2228   0.3138   0.3448   0.4566
     0.7427   0.8421   0.8955   0.9808   1.0516   1.2175   1.3051   1.3408
     1.3800   1.4383   1.4790   1.7278   1.8235   1.9563   2.0825   2.1168
     2.1443   2.2261   2.3635   2.4239   2.4543   2.4745   2.5232   2.6101
     2.6171   2.7174   2.7483   2.8307   2.8521   2.8877   2.9831   3.0007
     3.1472   3.1604   3.1814   3.2682   3.2916   3.3283   3.3799   3.4465
     3.4715   3.5254   3.5642   3.6473   3.7927   3.9332   4.0538   4.0787

     occupation numbers 
     1.0000   1.0000   1.0000   1.0000   1.0000   1.0000   1.0000   1.0000
     1.0000   1.0000   1.0000   1.0000   1.0000   1.0000   1.0000   1.0000
     1.0000   1.0000   1.0000   1.0000   1.0000   1.0000   1.0000   1.0000
     1.0000   1.0000   1.0000   1.0000   1.0000   1.0000   1.0000   1.0000
     1.0000   1.0000   1.0000   1.0000   1.0000   1.0000   1.0000   1.0000
     1.0000   1.0000   1.0000   1.0000   1.0000   1.0000   1.0000   1.0000
     1.0000   1.0000   1.0000   1.0000   1.0000   1.0000   1.0000   1.0000
     1.0000   1.0000   1.0000   1.0000   1.0000   1.0000   1.0000   1.0000
     1.0000   1.0000   1.0000   1.0000   1.0000   1.0000   1.0000   1.0000
     1.0000   1.0000   1.0000   1.0000   1.0000   1.0000   1.0000   1.0000
     1.0000   1.0000   1.0000   1.0000   1.0000   1.0000   1.0000   1.0000
     1.0000   1.0000   1.0000   1.0000   1.0000   1.0000   1.0000   1.0000
     1.0000   1.0000   1.0000   1.0000   1.0000   1.0000   1.0000   1.0000
     1.0000   1.0000   1.0000   1.0000   1.0000   1.0000   1.0000   1.0000
     1.0000   1.0000   1.0000   1.0000   1.0000   1.0000   1.0000   1.0000
     1.0000   1.0000   1.0000   1.0000   1.0000   1.0000   1.0000   1.0000

          k = 0.3333 0.0000-0.1144 ( 29807 PWs)   bands (ev):

   -67.9370 -67.9286 -67.8239 -67.4553 -67.3739 -67.3578 -34.7131 -34.6984
   -34.6862 -34.6828 -34.6786 -34.6730 -34.5887 -34.5883 -34.5609 -34.2162
   -34.2103 -34.2091 -34.1500 -34.1432 -34.1329 -34.1086 -34.1017 -34.0901
   -23.4561 -23.4329 -15.1156 -15.0806 -14.5321 -14.5216 -14.1149 -14.0973
   -13.5701 -13.4533 -13.3741 -13.3715 -13.2574 -13.2460 -13.1579 -13.1125
   -13.0949 -13.0252 -12.8802 -12.8273 -12.6935 -12.6642 -12.5276 -12.4419
   -11.4681 -11.2475  -7.0069  -6.9919  -6.9392  -6.9326  -6.9075  -6.8935
    -3.9565  -3.9457  -2.7901  -2.7002  -2.0861  -1.9527  -1.6813  -1.5537
    -1.1590  -1.0243  -0.9802  -0.9504  -0.6811  -0.5846  -0.5372  -0.4491
    -0.3706  -0.1785  -0.0029   0.0951   0.2407   0.3147   0.3816   0.4208
     0.7422   0.8093   0.8976   1.0242   1.0654   1.1857   1.2933   1.3432
     1.3607   1.3818   1.5393   1.6895   1.7883   1.9837   2.0534   2.0897
     2.1505   2.2906   2.3793   2.4117   2.4371   2.4908   2.5262   2.6296
     2.6359   2.7010   2.7480   2.8246   2.8602   2.9252   2.9956   3.0354
     3.1287   3.1602   3.1909   3.2503   3.2980   3.3285   3.3518   3.4238
     3.4553   3.5057   3.6128   3.6199   3.7889   3.9457   4.0440   4.0811

     occupation numbers 
     1.0000   1.0000   1.0000   1.0000   1.0000   1.0000   1.0000   1.0000
     1.0000   1.0000   1.0000   1.0000   1.0000   1.0000   1.0000   1.0000
     1.0000   1.0000   1.0000   1.0000   1.0000   1.0000   1.0000   1.0000
     1.0000   1.0000   1.0000   1.0000   1.0000   1.0000   1.0000   1.0000
     1.0000   1.0000   1.0000   1.0000   1.0000   1.0000   1.0000   1.0000
     1.0000   1.0000   1.0000   1.0000   1.0000   1.0000   1.0000   1.0000
     1.0000   1.0000   1.0000   1.0000   1.0000   1.0000   1.0000   1.0000
     1.0000   1.0000   1.0000   1.0000   1.0000   1.0000   1.0000   1.0000
     1.0000   1.0000   1.0000   1.0000   1.0000   1.0000   1.0000   1.0000
     1.0000   1.0000   1.0000   1.0000   1.0000   1.0000   1.0000   1.0000
     1.0000   1.0000   1.0000   1.0000   1.0000   1.0000   1.0000   1.0000
     1.0000   1.0000   1.0000   1.0000   1.0000   1.0000   1.0000   1.0000
     1.0000   1.0000   1.0000   1.0000   1.0000   1.0000   1.0000   1.0000
     1.0000   1.0000   1.0000   1.0000   1.0000   1.0000   1.0000   1.0000
     1.0000   1.0000   1.0000   1.0000   1.0000   1.0000   1.0000   1.0000
     1.0000   1.0000   1.0000   1.0000   1.0000   1.0000   1.0000   1.0000

          k = 0.3333 0.1920 0.0604 ( 29815 PWs)   bands (ev):

   -67.9370 -67.9286 -67.8239 -67.4553 -67.3739 -67.3578 -34.7131 -34.6984
   -34.6862 -34.6828 -34.6786 -34.6730 -34.5887 -34.5883 -34.5610 -34.2163
   -34.2102 -34.2091 -34.1500 -34.1432 -34.1330 -34.1086 -34.1017 -34.0901
   -23.4561 -23.4329 -15.1167 -15.0717 -14.5539 -14.5214 -14.1180 -14.0893
   -13.5514 -13.4710 -13.3557 -13.3142 -13.2645 -13.2506 -13.1861 -13.1400
   -13.1124 -13.0234 -12.8855 -12.8021 -12.7063 -12.6556 -12.5355 -12.4346
   -11.4685 -11.2467  -7.0063  -6.9931  -6.9393  -6.9322  -6.9073  -6.8936
    -3.9606  -3.8964  -2.8978  -2.8023  -2.0238  -1.8346  -1.6325  -1.5780
    -1.1788  -1.0627  -0.9803  -0.9150  -0.6808  -0.5578  -0.4932  -0.4042
    -0.3399  -0.1978  -0.0467   0.1155   0.2250   0.3022   0.3402   0.3707
     0.6731   0.7500   0.9879   1.0490   1.1033   1.1974   1.2410   1.3151
     1.3569   1.4191   1.5169   1.6150   1.8260   1.9937   2.0846   2.1150
     2.1790   2.2763   2.3293   2.4093   2.4376   2.5083   2.5576   2.6178
     2.6660   2.7330   2.7995   2.8170   2.8944   2.9139   2.9944   3.0299
     3.0850   3.1300   3.1703   3.2410   3.2852   3.3358   3.3638   3.3860
     3.4943   3.5430   3.6082   3.6896   3.7176   3.9298   3.9997   4.0552

     occupation numbers 
     1.0000   1.0000   1.0000   1.0000   1.0000   1.0000   1.0000   1.0000
     1.0000   1.0000   1.0000   1.0000   1.0000   1.0000   1.0000   1.0000
     1.0000   1.0000   1.0000   1.0000   1.0000   1.0000   1.0000   1.0000
     1.0000   1.0000   1.0000   1.0000   1.0000   1.0000   1.0000   1.0000
     1.0000   1.0000   1.0000   1.0000   1.0000   1.0000   1.0000   1.0000
     1.0000   1.0000   1.0000   1.0000   1.0000   1.0000   1.0000   1.0000
     1.0000   1.0000   1.0000   1.0000   1.0000   1.0000   1.0000   1.0000
     1.0000   1.0000   1.0000   1.0000   1.0000   1.0000   1.0000   1.0000
     1.0000   1.0000   1.0000   1.0000   1.0000   1.0000   1.0000   1.0000
     1.0000   1.0000   1.0000   1.0000   1.0000   1.0000   1.0000   1.0000
     1.0000   1.0000   1.0000   1.0000   1.0000   1.0000   1.0000   1.0000
     1.0000   1.0000   1.0000   1.0000   1.0000   1.0000   1.0000   1.0000
     1.0000   1.0000   1.0000   1.0000   1.0000   1.0000   1.0000   1.0000
     1.0000   1.0000   1.0000   1.0000   1.0000   1.0000   1.0000   1.0000
     1.0000   1.0000   1.0000   1.0000   1.0000   1.0000   1.0000   1.0000
     1.0000   1.0000   1.0000   1.0000   1.0000   1.0000   1.0000   1.0000

          k = 0.3333 0.1920 0.2353 ( 29824 PWs)   bands (ev):

   -67.9370 -67.9286 -67.8239 -67.4553 -67.3739 -67.3578 -34.7131 -34.6984
   -34.6862 -34.6828 -34.6786 -34.6730 -34.5887 -34.5883 -34.5610 -34.2163
   -34.2102 -34.2091 -34.1500 -34.1432 -34.1330 -34.1086 -34.1017 -34.0901
   -23.4561 -23.4329 -15.1013 -15.0879 -14.5494 -14.5260 -14.1116 -14.0961
   -13.5490 -13.4673 -13.3595 -13.3172 -13.2638 -13.2469 -13.1928 -13.1334
   -13.1121 -13.0274 -12.8782 -12.8110 -12.6971 -12.6628 -12.5259 -12.4431
   -11.4678 -11.2475  -7.0063  -6.9932  -6.9393  -6.9322  -6.9073  -6.8936
    -3.9590  -3.8978  -2.8705  -2.8328  -2.0095  -1.8550  -1.6156  -1.5687
    -1.1734  -1.0772  -0.9468  -0.9296  -0.6582  -0.5718  -0.5212  -0.4283
    -0.3239  -0.2342  -0.0209   0.0757   0.2138   0.2866   0.3403   0.3993
     0.6693   0.7702   1.0087   1.0364   1.0955   1.1764   1.2878   1.3352
     1.3965   1.4546   1.4839   1.6238   1.8772   1.9300   2.0943   2.1203
     2.1583   2.2729   2.3084   2.4118   2.4562   2.4823   2.5308   2.6018
     2.6505   2.7232   2.8026   2.8292   2.8628   2.9239   2.9999   3.0443
     3.0881   3.1684   3.1985   3.2467   3.2638   3.3160   3.3535   3.3853
     3.5137   3.5518   3.5683   3.6371   3.7900   3.9002   4.0141   4.0766

     occupation numbers 
     1.0000   1.0000   1.0000   1.0000   1.0000   1.0000   1.0000   1.0000
     1.0000   1.0000   1.0000   1.0000   1.0000   1.0000   1.0000   1.0000
     1.0000   1.0000   1.0000   1.0000   1.0000   1.0000   1.0000   1.0000
     1.0000   1.0000   1.0000   1.0000   1.0000   1.0000   1.0000   1.0000
     1.0000   1.0000   1.0000   1.0000   1.0000   1.0000   1.0000   1.0000
     1.0000   1.0000   1.0000   1.0000   1.0000   1.0000   1.0000   1.0000
     1.0000   1.0000   1.0000   1.0000   1.0000   1.0000   1.0000   1.0000
     1.0000   1.0000   1.0000   1.0000   1.0000   1.0000   1.0000   1.0000
     1.0000   1.0000   1.0000   1.0000   1.0000   1.0000   1.0000   1.0000
     1.0000   1.0000   1.0000   1.0000   1.0000   1.0000   1.0000   1.0000
     1.0000   1.0000   1.0000   1.0000   1.0000   1.0000   1.0000   1.0000
     1.0000   1.0000   1.0000   1.0000   1.0000   1.0000   1.0000   1.0000
     1.0000   1.0000   1.0000   1.0000   1.0000   1.0000   1.0000   1.0000
     1.0000   1.0000   1.0000   1.0000   1.0000   1.0000   1.0000   1.0000
     1.0000   1.0000   1.0000   1.0000   1.0000   1.0000   1.0000   1.0000
     1.0000   1.0000   1.0000   1.0000   1.0000   1.0000   1.0000   1.0000

          k = 0.3333 0.1920-0.1144 ( 29796 PWs)   bands (ev):

   -67.9370 -67.9286 -67.8239 -67.4553 -67.3739 -67.3578 -34.7131 -34.6984
   -34.6862 -34.6828 -34.6786 -34.6730 -34.5887 -34.5883 -34.5609 -34.2163
   -34.2102 -34.2091 -34.1500 -34.1432 -34.1329 -34.1086 -34.1017 -34.0901
   -23.4561 -23.4329 -15.1117 -15.0771 -14.5444 -14.5311 -14.1109 -14.0968
   -13.5508 -13.4687 -13.3522 -13.3231 -13.2625 -13.2441 -13.1949 -13.1349
   -13.1132 -13.0269 -12.8747 -12.8133 -12.6898 -12.6704 -12.5268 -12.4417
   -11.4677 -11.2475  -7.0064  -6.9932  -6.9393  -6.9321  -6.9073  -6.8936
    -3.9333  -3.9245  -2.8864  -2.8153  -2.0181  -1.8404  -1.6300  -1.5754
    -1.1626  -1.0617  -0.9668  -0.9179  -0.6863  -0.5402  -0.5229  -0.4077
    -0.3696  -0.2168  -0.0447   0.1154   0.2403   0.3002   0.3491   0.3697
     0.6879   0.7401   0.9875   1.0594   1.1075   1.1648   1.2993   1.3385
     1.3519   1.3907   1.5260   1.6444   1.8054   1.9756   2.0796   2.0891
     2.1662   2.3062   2.3387   2.3765   2.4539   2.4773   2.5225   2.6257
     2.6843   2.7219   2.8204   2.8244   2.8964   2.9394   2.9965   3.0769
     3.0904   3.1324   3.1819   3.2356   3.2876   3.3176   3.3517   3.3946
     3.4840   3.5364   3.5772   3.6007   3.8001   3.9086   4.0116   4.0715

     occupation numbers 
     1.0000   1.0000   1.0000   1.0000   1.0000   1.0000   1.0000   1.0000
     1.0000   1.0000   1.0000   1.0000   1.0000   1.0000   1.0000   1.0000
     1.0000   1.0000   1.0000   1.0000   1.0000   1.0000   1.0000   1.0000
     1.0000   1.0000   1.0000   1.0000   1.0000   1.0000   1.0000   1.0000
     1.0000   1.0000   1.0000   1.0000   1.0000   1.0000   1.0000   1.0000
     1.0000   1.0000   1.0000   1.0000   1.0000   1.0000   1.0000   1.0000
     1.0000   1.0000   1.0000   1.0000   1.0000   1.0000   1.0000   1.0000
     1.0000   1.0000   1.0000   1.0000   1.0000   1.0000   1.0000   1.0000
     1.0000   1.0000   1.0000   1.0000   1.0000   1.0000   1.0000   1.0000
     1.0000   1.0000   1.0000   1.0000   1.0000   1.0000   1.0000   1.0000
[...]
     atom   16 type  1   force =     0.00064391   -0.00234746    0.01053042
     atom   17 type  5   force =    -0.00012522    0.00021421    0.00648945
     atom   18 type  5   force =     0.00012490    0.00021421   -0.00648949
     atom   19 type  5   force =    -0.00011249    0.00006830   -0.00700533
     atom   20 type  5   force =     0.00011222    0.00006830    0.00700531
     atom   21 type  5   force =     0.00007601   -0.00021318    0.00685752
     atom   22 type  5   force =    -0.00007629   -0.00021318   -0.00685753
     atom   23 type  5   force =     0.00006709    0.00006124   -0.00324342
     atom   24 type  5   force =    -0.00006731    0.00006123    0.00324330
     atom   25 type  5   force =     0.00459370   -0.00172067   -0.00581260
     atom   26 type  5   force =    -0.00459383   -0.00172075    0.00581232
     atom   27 type  5   force =    -0.00344115    0.00080296   -0.00711748
     atom   28 type  5   force =     0.00344085    0.00080297    0.00711728
     atom   29 type  5   force =    -0.00162114    0.00232638    0.00729010
     atom   30 type  5   force =     0.00162110    0.00232620   -0.00729033
     atom   31 type  5   force =     0.00089862   -0.00217513   -0.00745651
     atom   32 type  5   force =    -0.00089864   -0.00217532    0.00745628
     atom   33 type  5   force =    -0.00244585   -0.00349929   -0.00648831
     atom   34 type  5   force =     0.00244559   -0.00349934    0.00648814
     atom   35 type  5   force =     0.00111654    0.00409237    0.00643098
     atom   36 type  5   force =    -0.00111665    0.00409222   -0.00643117
     atom   37 type  5   force =    -0.00003466    0.00052137    0.01134242
     atom   38 type  5   force =     0.00003427    0.00052133   -0.01134220
     atom   39 type  5   force =     0.00001404   -0.00137763    0.01110539
     atom   40 type  5   force =    -0.00001445   -0.00137756   -0.01110515
     atom   41 type  2   force =     0.00000000    0.00000000    0.00000000
     atom   42 type  2   force =     0.00000000    0.00000000    0.00000000
     atom   43 type  2   force =     0.00000000    0.00000000    0.00000000
     atom   44 type  2   force =     0.00000000    0.00000000    0.00000000
     The Hubbard contrib.    to forces
     atom    1 type  3   force =     0.00000000    0.00000000    0.00000000
     atom    2 type  3   force =     0.00000000    0.00000000    0.00000000
     atom    3 type  4   force =     0.00000000    0.00000000    0.00000000
     atom    4 type  4   force =     0.00000000    0.00000000    0.00000000
     atom    5 type  4   force =     0.00000000    0.00000000    0.00000000
     atom    6 type  4   force =     0.00000000    0.00000000    0.00000000
     atom    7 type  4   force =     0.00000000    0.00000000    0.00000000
     atom    8 type  4   force =     0.00000000    0.00000000    0.00000000
     atom    9 type  6   force =     0.00000000    0.00000000    0.00000000
     atom   10 type  6   force =     0.00000000    0.00000000    0.00000000
     atom   11 type  6   force =     0.00000000    0.00000000    0.00000000
     atom   12 type  6   force =     0.00000000    0.00000000    0.00000000
     atom   13 type  6   force =     0.00000000    0.00000000    0.00000000
     atom   14 type  6   force =     0.00000000    0.00000000    0.00000000
     atom   15 type  1   force =     0.00000000    0.00000000    0.00000000
     atom   16 type  1   force =     0.00000000    0.00000000    0.00000000
     atom   17 type  5   force =     0.00000000    0.00000000    0.00000000
     atom   18 type  5   force =     0.00000000    0.00000000    0.00000000
     atom   19 type  5   force =     0.00000000    0.00000000    0.00000000
     atom   20 type  5   force =     0.00000000    0.00000000    0.00000000
     atom   21 type  5   force =     0.00000000    0.00000000    0.00000000
     atom   22 type  5   force =     0.00000000    0.00000000    0.00000000
     atom   23 type  5   force =     0.00000000    0.00000000    0.00000000
     atom   24 type  5   force =     0.00000000    0.00000000    0.00000000
     atom   25 type  5   force =     0.00000000    0.00000000    0.00000000
     atom   26 type  5   force =     0.00000000    0.00000000    0.00000000
     atom   27 type  5   force =     0.00000000    0.00000000    0.00000000
     atom   28 type  5   force =     0.00000000    0.00000000    0.00000000
     atom   29 type  5   force =     0.00000000    0.00000000    0.00000000
     atom   30 type  5   force =     0.00000000    0.00000000    0.00000000
     atom   31 type  5   force =     0.00000000    0.00000000    0.00000000
     atom   32 type  5   force =     0.00000000    0.00000000    0.00000000
     atom   33 type  5   force =     0.00000000    0.00000000    0.00000000
     atom   34 type  5   force =     0.00000000    0.00000000    0.00000000
     atom   35 type  5   force =     0.00000000    0.00000000    0.00000000
     atom   36 type  5   force =     0.00000000    0.00000000    0.00000000
     atom   37 type  5   force =     0.00000000    0.00000000    0.00000000
     atom   38 type  5   force =     0.00000000    0.00000000    0.00000000
     atom   39 type  5   force =     0.00000000    0.00000000    0.00000000
     atom   40 type  5   force =     0.00000000    0.00000000    0.00000000
     atom   41 type  2   force =     0.00000000    0.00000000    0.00000000
     atom   42 type  2   force =     0.00000000    0.00000000    0.00000000
     atom   43 type  2   force =     0.00000000    0.00000000    0.00000000
     atom   44 type  2   force =     0.00000000    0.00000000    0.00000000
     The SCF correction term to forces
     atom    1 type  3   force =    -0.00000000   -0.00000076   -0.00000000
     atom    2 type  3   force =    -0.00000000    0.00000055   -0.00000000
     atom    3 type  4   force =    -0.00000000    0.00000052   -0.00000000
     atom    4 type  4   force =     0.00000000    0.00000074    0.00000000
     atom    5 type  4   force =     0.00000000   -0.00000240    0.00000000
     atom    6 type  4   force =     0.00000000   -0.00000039    0.00000000
     atom    7 type  4   force =    -0.00000000    0.00000146   -0.00000000
     atom    8 type  4   force =     0.00000000   -0.00000060    0.00000000
     atom    9 type  6   force =    -0.00000001    0.00000006   -0.00000034
     atom   10 type  6   force =     0.00000001    0.00000006    0.00000034
     atom   11 type  6   force =    -0.00000046    0.00000032    0.00000011
     atom   12 type  6   force =     0.00000046    0.00000032   -0.00000011
     atom   13 type  6   force =    -0.00000053   -0.00000044   -0.00000120
     atom   14 type  6   force =     0.00000053   -0.00000044    0.00000120
     atom   15 type  1   force =    -0.00000005    0.00000004    0.00000034
     atom   16 type  1   force =     0.00000005    0.00000004   -0.00000034
     atom   17 type  5   force =    -0.00000048    0.00000042    0.00000049
     atom   18 type  5   force =     0.00000048    0.00000042   -0.00000049
     atom   19 type  5   force =    -0.00000023    0.00000042    0.00000064
     atom   20 type  5   force =     0.00000023    0.00000042   -0.00000064
     atom   21 type  5   force =    -0.00000033   -0.00000117    0.00000022
     atom   22 type  5   force =     0.00000033   -0.00000117   -0.00000022
     atom   23 type  5   force =    -0.00000127   -0.00000024   -0.00000030
     atom   24 type  5   force =     0.00000127   -0.00000024    0.00000030
     atom   25 type  5   force =    -0.00000041   -0.00000024   -0.00000075
     atom   26 type  5   force =     0.00000041   -0.00000024    0.00000075
     atom   27 type  5   force =     0.00000037    0.00000013   -0.00000044
     atom   28 type  5   force =    -0.00000037    0.00000013    0.00000044
     atom   29 type  5   force =     0.00000026   -0.00000006    0.00000083
     atom   30 type  5   force =    -0.00000026   -0.00000006   -0.00000083
     atom   31 type  5   force =     0.00000027   -0.00000006   -0.00000107
     atom   32 type  5   force =    -0.00000027   -0.00000006    0.00000107
     atom   33 type  5   force =     0.00000003    0.00000024   -0.00000071
     atom   34 type  5   force =    -0.00000003    0.00000024    0.00000071
     atom   35 type  5   force =    -0.00000047    0.00000005    0.00000057
     atom   36 type  5   force =     0.00000047    0.00000005   -0.00000057
     atom   37 type  5   force =    -0.00000022   -0.00000027    0.00000004
     atom   38 type  5   force =     0.00000022   -0.00000027   -0.00000004
     atom   39 type  5   force =     0.00000005    0.00000030   -0.00000003
     atom   40 type  5   force =    -0.00000005    0.00000030    0.00000003
     atom   41 type  2   force =    -0.00000002   -0.00000002    0.00000016
     atom   42 type  2   force =     0.00000002   -0.00000002   -0.00000016
     atom   43 type  2   force =    -0.00000000    0.00000004   -0.00000003
     atom   44 type  2   force =     0.00000000    0.00000004    0.00000003

     DFT-D3 dispersion contribution to forces:
     atom    1 type  3   force =    -0.00000001    0.00088680    0.00000000
     atom    2 type  3   force =    -0.00000000   -0.00073888    0.00000000
     atom    3 type  4   force =     0.00000000    0.00032201   -0.00000000
     atom    4 type  4   force =     0.00000001    0.00073613    0.00000000
     atom    5 type  4   force =     0.00000000   -0.00112279    0.00000000
     atom    6 type  4   force =    -0.00000000   -0.00063438   -0.00000000
     atom    7 type  4   force =    -0.00000000    0.00111987    0.00000000
     atom    8 type  4   force =    -0.00000000   -0.00020061   -0.00000000
     atom    9 type  6   force =     0.00003722   -0.00007417   -0.00027818
     atom   10 type  6   force =    -0.00003722   -0.00007417    0.00027818
     atom   11 type  6   force =     0.00005283    0.00005993    0.00020824
     atom   12 type  6   force =    -0.00005283    0.00005993   -0.00020824
     atom   13 type  6   force =    -0.00003859    0.00015654   -0.00019270
     atom   14 type  6   force =     0.00003859    0.00015654    0.00019270
     atom   15 type  1   force =     0.00002455    0.00008291   -0.00106433
     atom   16 type  1   force =    -0.00002454    0.00008291    0.00106433
     atom   17 type  5   force =    -0.00001113    0.00004929    0.00044766
     atom   18 type  5   force =     0.00001113    0.00004929   -0.00044766
     atom   19 type  5   force =     0.00000064    0.00001166   -0.00038236
     atom   20 type  5   force =    -0.00000064    0.00001166    0.00038236
     atom   21 type  5   force =    -0.00001436   -0.00005208    0.00040981
     atom   22 type  5   force =     0.00001436   -0.00005208   -0.00040981
     atom   23 type  5   force =    -0.00002379   -0.00002363    0.00008827
     atom   24 type  5   force =     0.00002379   -0.00002363   -0.00008827
     atom   25 type  5   force =    -0.00017911    0.00098105    0.00024721
     atom   26 type  5   force =     0.00017911    0.00098105   -0.00024721
     atom   27 type  5   force =     0.00086561    0.00007456    0.00018868
     atom   28 type  5   force =    -0.00086561    0.00007456   -0.00018868
     atom   29 type  5   force =     0.00039037   -0.00058977   -0.00003226
     atom   30 type  5   force =    -0.00039037   -0.00058977    0.00003226
     atom   31 type  5   force =    -0.00023055    0.00036968   -0.00000182
     atom   32 type  5   force =     0.00023056    0.00036968    0.00000182
     atom   33 type  5   force =     0.00094628   -0.00043268    0.00040275
     atom   34 type  5   force =    -0.00094627   -0.00043268   -0.00040275
     atom   35 type  5   force =     0.00063684   -0.00047860   -0.00043064
     atom   36 type  5   force =    -0.00063684   -0.00047859    0.00043064
     atom   37 type  5   force =    -0.00001350   -0.00004318   -0.00049695
     atom   38 type  5   force =     0.00001350   -0.00004318    0.00049695
     atom   39 type  5   force =     0.00001890    0.00004611   -0.00052611
     atom   40 type  5   force =    -0.00001890    0.00004610    0.00052611
     atom   41 type  2   force =     0.00000186    0.00007672   -0.00028321
     atom   42 type  2   force =    -0.00000186    0.00007672    0.00028321
     atom   43 type  2   force =     0.00005352   -0.00039841   -0.00029004
     atom   44 type  2   force =    -0.00005352   -0.00039841    0.00029004

     Total force =     0.001186     Total SCF correction =     0.000006

     DFT-D3 dispersion Force =     0.004426
     Energy error            =      3.2E-06 Ry
     Gradient error          =      2.7E-04 Ry/Bohr

     bfgs converged in  14 scf cycles and  13 bfgs steps
     (criteria: energy <  1.0E-05 Ry, force <  5.0E-04 Ry/Bohr)

     End of BFGS Geometry Optimization

     Final energy             =   -2443.7225024101 Ry

     File ./temp/phl-fe0-n1.bfgs deleted, as requested
Begin final coordinates

ATOMIC_POSITIONS (crystal)
K                0.0000000000        0.4890152494        0.0000000000
K                0.4999998210        0.0076588173        0.0000000000
Mg               0.9999998810        0.0043945563        0.4999998810
Mg               0.9999998810        0.3332644528        0.4999998810
Mg               0.9999998810        0.6653289964        0.4999998810
Mg               0.4999996720        0.4929783375        0.4999998810
Mg               0.4999996720        0.8345990932        0.4999998810
Mg               0.4999996720        0.1725500269        0.4999998810
Si               0.0824808010        0.1648057548        0.2244942776
Si               0.9175185510        0.1648057548        0.7755055134
Si               0.9354099763        0.8341167756        0.7691916834
Si               0.0645893827        0.8341167756        0.2308080926
Si               0.5632276344        0.6666569810        0.2286583839
Si               0.4367717096        0.6666569810        0.7713413631
Al               0.4160855214        0.3311660330        0.7735666442
Al               0.5839138226        0.3311660330        0.2264331778
O                0.1271277665        0.1636388634        0.3854476030
O                0.8728715335        0.1636388634        0.6145522480
O                0.8751395849        0.8330540680        0.6095305205
O                0.1248597441        0.8330540680        0.3904692405
O                0.6246431967        0.6691939411        0.3890117998
O                0.3753561173        0.6691939411        0.6109879912
O                0.3612672388        0.3329360371        0.6028826652
O                0.6387320762        0.3329360371        0.3971170958
O                0.3399485409        0.2047612822        0.1672258454
O                0.6600508331        0.2047612822        0.8327739156
O                0.9983547215        0.9969333539        0.1700806427
O                0.0016446095        0.9969333539        0.8299191193
O                0.6858283751        0.7733210698        0.8284349408
O                0.3141709689        0.7733210698        0.1715648502
O                0.8130502780        0.7336963893        0.1707170940
O                0.1869490360        0.7336963893        0.8292826820
O                0.4990034342        0.5079945285        0.1645736712
O                0.5009959098        0.5079945285        0.8354261198
O                0.1462066851        0.2744321925        0.8386199993
O                0.8537926449        0.2744321925        0.1613797617
O                0.1305385756        0.5040784732        0.3954820596
O                0.8694608134        0.5040784732        0.6045176724
O                0.6324992613        0.9996075747        0.3989232358
O                0.3675000527        0.9996075747        0.6010764962
H                0.0993822327        0.4957826226        0.3006575323
H                0.9006171413        0.4957826226        0.6993422887
H                0.5956615011        0.0139248063        0.3046150910
H                0.4043378429        0.0139248063        0.6953847300
End final coordinates



     Writing all to output data dir ./temp/phl-fe0-n1.save/ :
     XML data file, charge density, pseudopotentials, collected wavefunctions

     init_run     :     64.84s CPU     65.32s WALL (       1 calls)
     electrons    :  46239.37s CPU  46522.28s WALL (      14 calls)
     update_pot   :      6.46s CPU      6.54s WALL (      13 calls)
     forces       :    607.70s CPU    611.76s WALL (      14 calls)
     force_dftd3  :     27.38s CPU     27.55s WALL (      14 calls)

     Called by init_run:
     wfcinit      :     62.57s CPU     62.91s WALL (       1 calls)
     wfcinit:atom :      0.03s CPU      0.03s WALL (      20 calls)
     wfcinit:wfcr :     62.15s CPU     62.49s WALL (      20 calls)
     potinit      :      0.55s CPU      0.56s WALL (       1 calls)
     hinit0       :      0.43s CPU      0.44s WALL (       1 calls)

     Called by electrons:
     c_bands      :  43565.25s CPU  43755.73s WALL (     174 calls)
     sum_band     :   2404.25s CPU   2462.48s WALL (     174 calls)
     v_of_rho     :     14.41s CPU     15.72s WALL (     179 calls)
     v_h          :      1.02s CPU      1.10s WALL (     179 calls)
     v_xc         :     14.41s CPU     15.77s WALL (     193 calls)
     newd         :    182.94s CPU    217.97s WALL (     179 calls)
     PAW_pot      :     71.16s CPU     71.19s WALL (     192 calls)
     mix_rho      :      2.79s CPU      2.92s WALL (     174 calls)
     energy_dftd3 :     21.40s CPU     21.40s WALL (      14 calls)

     Called by c_bands:
     init_us_2    :     82.62s CPU     82.71s WALL (    7520 calls)
     cegterg      :  43339.03s CPU  43529.34s WALL (    3492 calls)

     Called by sum_band:
     sum_band:wei :      0.00s CPU      0.00s WALL (     174 calls)
     sum_band:loo :   2184.38s CPU   2206.11s WALL (     174 calls)
     sum_band:buf :     11.05s CPU     11.08s WALL (    3480 calls)
     sum_band:ini :     34.95s CPU     34.98s WALL (    3480 calls)
     sum_band:cal :   1756.76s CPU   1758.51s WALL (    3740 calls)
     sum_band:bec :      5.23s CPU      5.25s WALL (    3740 calls)
     addusdens    :    183.53s CPU    219.75s WALL (     174 calls)
                                        0.00s GPU  (     174 calls)
     addusd:skk   :      1.64s CPU      1.65s WALL (    1044 calls)
                                        0.00s GPU  (    1044 calls)

     Called by *egterg:
     cdiaghg      :   1501.70s CPU   1502.00s WALL (   26988 calls)
     cegterg:over :   5554.85s CPU   5560.89s WALL (   23936 calls)
     cegterg:upda :   2459.48s CPU   2460.33s WALL (   23936 calls)
     cegterg:last :   8372.59s CPU   8373.94s WALL (   13847 calls)
     h_psi        :  16808.01s CPU  16986.64s WALL (   27448 calls)
     s_psi        :   5844.88s CPU   5845.86s WALL (   27448 calls)
     g_psi        :     28.67s CPU     28.72s WALL (   23936 calls)

     Called by h_psi:
     h_psi:calbec :   6688.52s CPU   6696.12s WALL (   27448 calls)
     vloc_psi     :   3369.88s CPU   3539.11s WALL (   27448 calls)
     add_vuspsi   :   6720.28s CPU   6721.51s WALL (   27448 calls)

     General routines
     calbec       :   8970.87s CPU   8980.80s WALL (   32308 calls)
     fft          :     10.21s CPU     11.37s WALL (    2475 calls)
     ffts         :      0.65s CPU      0.69s WALL (     353 calls)
     fftw         :   3161.23s CPU   3318.46s WALL ( 4092920 calls)
     interpolate  :      1.15s CPU      1.24s WALL (     179 calls)

     Parallel routines

     PAW routines
     PAW_pot      :     71.16s CPU     71.19s WALL (     192 calls)
     PAW_symme    :      0.10s CPU      0.11s WALL (     366 calls)

     PWSCF        :     13h 4m CPU     13h 9m WALL


   This run was terminated on:   4:43: 3  28Nov2025            

=------------------------------------------------------------------------------=
   JOB DONE.
=------------------------------------------------------------------------------=
