
     Program PWSCF v.7.3.1 starts on 19Dec2024 at 16:36:22 

     This program is part of the open-source Quantum ESPRESSO suite
     for quantum simulation of materials; please cite
         "P. Giannozzi et al., J. Phys.:Condens. Matter 21 395502 (2009);
         "P. Giannozzi et al., J. Phys.:Condens. Matter 29 465901 (2017);
         "P. Giannozzi et al., J. Chem. Phys. 152 154105 (2020);
          URL http://www.quantum-espresso.org", 
     in publications or presentations arising from this work. More details at
     http://www.quantum-espresso.org/quote

     Parallel version (MPI), running on     8 processors

     MPI processes distributed on     1 nodes
     7154 MiB available memory on the printing compute node when the environment starts

     Reading input from vc_relax.in

     Current dimensions of program PWSCF are:
     Max number of different atomic species (ntypx) = 10
     Max number of k-points (npk) =  40000
     Max angular momentum in pseudopotentials (lmaxx) =  4
     file Al.pbe-n-kjpaw_psl.1.0.0.UPF: wavefunction(s)  3S 3P renormalized
     file Fe.pbe-spn-kjpaw_psl.1.0.0.UPF: wavefunction(s)  3P 3D renormalized
     file H.pbe-kjpaw_psl.1.0.0.UPF: wavefunction(s)  1S renormalized
     file K.pbe-spn-kjpaw_psl.1.0.0.UPF: wavefunction(s)  3S renormalized
     file Mg.pbe-spnl-kjpaw_psl.1.0.0.UPF: wavefunction(s)  2P renormalized
     file O.pbe-n-kjpaw_psl.1.0.0.UPF: wavefunction(s)  2S 2P renormalized
     file Si.pbe-n-kjpaw_psl.1.0.0.UPF: wavefunction(s)  3S 3P renormalized

     R & G space division:  proc/nbgrp/npool/nimage =       8
     Subspace diagonalization in iterative solution of the eigenvalue problem:
     one sub-group per band group will be used
     custom distributed-memory algorithm (size of sub-group:  2*  2 procs)


     Parallelization info
     --------------------
     sticks:   dense  smooth     PW     G-vecs:    dense   smooth      PW
     Min         826     414    112                72941    25797    3671
     Max         827     415    113                72945    25802    3672
     Sum        6609    3313    901               583539   206401   29369

     Using Slab Decomposition



     bravais-lattice index     =          -12
     lattice parameter (alat)  =       9.9883  a.u.
     unit-cell volume          =    3285.8057 (a.u.)^3
     number of atoms/cell      =           44
     number of atomic types    =            7
     number of electrons       =       262.00
     number of Kohn-Sham states=          157
     kinetic-energy cutoff     =      60.0000  Ry
     charge density cutoff     =     480.0000  Ry
     scf convergence threshold =      1.0E-06
     mixing beta               =       0.7000
     number of iterations used =            8  plain     mixing
     energy convergence thresh.=      1.0E-04
     force convergence thresh. =      1.0E-03
     press convergence thresh. =      5.0E-01
     Exchange-correlation= SLA  PW   PBX  PBC
                           (   1   4   3   4   0   0   0)
     nstep                     =           50


     celldm(1)=   9.988336  celldm(2)=   1.736567  celldm(3)=   1.928182
     celldm(4)=   0.000000  celldm(5)=  -0.174018  celldm(6)=   0.000000

     crystal axes: (cart. coord. in units of alat)
               a(1) = (   1.000000   0.000000   0.000000 )  
               a(2) = (   0.000000   1.736567   0.000000 )  
               a(3) = (  -0.335538   0.000000   1.898763 )  

     reciprocal axes: (cart. coord. in units 2 pi/alat)
               b(1) = (  1.000000 -0.000000  0.176714 )  
               b(2) = (  0.000000  0.575849 -0.000000 )  
               b(3) = (  0.000000  0.000000  0.526659 )  


     PseudoPot. # 1 for Al read from file:
     ./../../pseudos/Al.pbe-n-kjpaw_psl.1.0.0.UPF
     MD5 check sum: 502b6b27b9c6270cab5dd1084b96fa6d
     Pseudo is Projector augmented-wave + core cor, Zval =  3.0
     Generated using &quot;atomic&quot; code by A. Dal Corso  v.6.3
     Shape of augmentation charge: PSQ
     Using radial grid of 1135 points,  6 beta functions with: 
                l(1) =   0
                l(2) =   0
                l(3) =   1
                l(4) =   1
                l(5) =   2
                l(6) =   2
     Q(r) pseudized with 0 coefficients 


     PseudoPot. # 2 for Fe read from file:
     ./../../pseudos/Fe.pbe-spn-kjpaw_psl.1.0.0.UPF
     MD5 check sum: fc81f059e5c5069939230b1155715ae8
     Pseudo is Projector augmented-wave + core cor, Zval = 16.0
     Generated using &quot;atomic&quot; code by A. Dal Corso  v.6.3
     Shape of augmentation charge: PSQ
     Using radial grid of 1191 points,  6 beta functions with: 
                l(1) =   0
                l(2) =   0
                l(3) =   1
                l(4) =   1
                l(5) =   2
                l(6) =   2
     Q(r) pseudized with 0 coefficients 


     PseudoPot. # 3 for H  read from file:
     ./../../pseudos/H.pbe-kjpaw_psl.1.0.0.UPF
     MD5 check sum: d81a744832360e4a8af0b0b5b123bc2a
     Pseudo is Projector augmented-wave, Zval =  1.0
     Generated using &quot;atomic&quot; code by A. Dal Corso  v.6.3MaX
     Shape of augmentation charge: PSQ
     Using radial grid of  929 points,  2 beta functions with: 
                l(1) =   0
                l(2) =   0
     Q(r) pseudized with 0 coefficients 


     PseudoPot. # 4 for K  read from file:
     ./../../pseudos/K.pbe-spn-kjpaw_psl.1.0.0.UPF
     MD5 check sum: 34cc42130a09071ebe376fd42eb21491
     Pseudo is Projector augmented-wave + core cor, Zval =  9.0
     Generated using &quot;atomic&quot; code by A. Dal Corso  v.6.2.2
     Shape of augmentation charge: PSQ
     Using radial grid of 1165 points,  6 beta functions with: 
                l(1) =   0
                l(2) =   0
                l(3) =   1
                l(4) =   1
                l(5) =   2
                l(6) =   2
     Q(r) pseudized with 0 coefficients 


     PseudoPot. # 5 for Mg read from file:
     ./../../pseudos/Mg.pbe-spnl-kjpaw_psl.1.0.0.UPF
     MD5 check sum: fda14e0d92a6a9a5ebed782e5a4b3067
     Pseudo is Projector augmented-wave + core cor, Zval = 10.0
     Generated using &quot;atomic&quot; code by A. Dal Corso  v.6.3
     Shape of augmentation charge: PSQ
     Using radial grid of 1129 points,  4 beta functions with: 
                l(1) =   0
                l(2) =   0
                l(3) =   1
                l(4) =   1
     Q(r) pseudized with 0 coefficients 


     PseudoPot. # 6 for O  read from file:
     ./../../pseudos/O.pbe-n-kjpaw_psl.1.0.0.UPF
     MD5 check sum: e99d9cef9b487d1ca56f5b95ecd0fd7a
     Pseudo is Projector augmented-wave + core cor, Zval =  6.0
     Generated using &quot;atomic&quot; code by A. Dal Corso  v.6.3
     Shape of augmentation charge: PSQ
     Using radial grid of 1095 points,  4 beta functions with: 
                l(1) =   0
                l(2) =   0
                l(3) =   1
                l(4) =   1
     Q(r) pseudized with 0 coefficients 


     PseudoPot. # 7 for Si read from file:
     ./../../pseudos/Si.pbe-n-kjpaw_psl.1.0.0.UPF
     MD5 check sum: c39c59da582df4a0d9f10159256ea34e
     Pseudo is Projector augmented-wave + core cor, Zval =  4.0
     Generated using &quot;atomic&quot; code by A. Dal Corso  v.6.3
     Shape of augmentation charge: PSQ
     Using radial grid of 1141 points,  6 beta functions with: 
                l(1) =   0
                l(2) =   0
                l(3) =   1
                l(4) =   1
                l(5) =   2
                l(6) =   2
     Q(r) pseudized with 0 coefficients 


     atomic species   valence    mass     pseudopotential
     Al                3.00    26.98154     Al( 1.00)
     Fe               16.00    55.84500     Fe( 1.00)
     H                 1.00     1.00794     H ( 1.00)
     K                 9.00    39.09830     K ( 1.00)
     Mg               10.00    24.30500     Mg( 1.00)
     O                 6.00    15.99940     O ( 1.00)
     Si                4.00    28.08550     Si( 1.00)

      2 Sym. Ops. (no inversion) found


                                    s                        frac. trans.

      isym =  1     identity                                     

 cryst.   s( 1) = (     1          0          0      )
                  (     0          1          0      )
                  (     0          0          1      )

 cart.    s( 1) = (  1.0000000  0.0000000  0.0000000 )
                  (  0.0000000  1.0000000  0.0000000 )
                  (  0.0000000  0.0000000  1.0000000 )


      isym =  2     180 deg rotation - cart. axis [0,1,0]        

 cryst.   s( 2) = (    -1          0          0      )
                  (     0          1          0      )
                  (     0          0         -1      )

 cart.    s( 2) = ( -1.0000000  0.0000000  0.0000000 )
                  (  0.0000000  1.0000000  0.0000000 )
                  (  0.0000000  0.0000000 -1.0000000 )


     point group C_2  (2)   
     there are  2 classes
     the character table:

       E     C2   
A      1.00  1.00
B      1.00 -1.00

     the symmetry operations in each class and the name of the first element:

     E        1
          identity                                               
     C2       2
          180 deg rotation - cart. axis [0,1,0]                  

   Cartesian axes

     site n.     atom                  positions (alat units)
         1        K      tau(   1) = (   0.0000000   0.8604066   0.0000000  )
         2        K      tau(   2) = (   0.5000000   0.0051572   0.0000000  )
         3        Mg     tau(   3) = (  -0.1677688   0.0060089   0.9493815  )
         4        Mg     tau(   4) = (  -0.1677688   0.5803486   0.9493815  )
         5        Mg     tau(   5) = (  -0.1677688   1.1503664   0.9493815  )
         6        Mg     tau(   6) = (   0.3322312   1.4469112   0.9493815  )
         7        Mg     tau(   7) = (   0.3322312   0.3019464   0.9493815  )
         8        Fe     tau(   8) = (   0.3322312   0.8658231   0.9493815  )
         9        Si     tau(   9) = (   0.0072419   0.2867216   0.4242270  )
        10        Si     tau(  10) = (   0.6572205   0.2867216   1.4745362  )
        11        Si     tau(  11) = (   0.6747406   1.4483874   1.4638213  )
        12        Si     tau(  12) = (  -0.0102782   1.4483874   0.4349418  )
        13        Si     tau(  13) = (   0.4888125   1.1559844   0.4294214  )
        14        Si     tau(  14) = (   0.1756499   1.1559844   1.4693418  )
        15        Al     tau(  15) = (   0.1576592   0.5780386   1.4720721  )
        16        Al     tau(  16) = (   0.5068032   0.5780386   0.4266909  )
        17        O      tau(  17) = (  -0.0033968   0.2842964   0.7325588  )
        18        O      tau(  18) = (   0.6678592   0.2842964   1.1662042  )
        19        O      tau(  19) = (   0.6695090   1.4448683   1.1579971  )
        20        O      tau(  20) = (  -0.0050466   1.4448683   0.7407659  )
        21        O      tau(  21) = (   0.4971182   1.1584064   0.7374685  )
        22        O      tau(  22) = (   0.1673442   1.1584064   1.1612946  )
        23        O      tau(  23) = (   0.1625332   0.5859512   1.1439544  )
        24        O      tau(  24) = (   0.5019291   0.5859512   0.7548087  )
        25        O      tau(  25) = (   0.2877293   0.3513760   0.3160692  )
        26        O      tau(  26) = (   0.3767330   0.3513760   1.5826938  )
        27        O      tau(  27) = (   0.9367897   1.7316211   0.3190373  )
        28        O      tau(  28) = (  -0.2723273   1.7316211   1.5797258  )
        29        O      tau(  29) = (   0.4003863   1.3499671   1.5776511  )
        30        O      tau(  30) = (   0.2640762   1.3499671   0.3211120  )
        31        O      tau(  31) = (   0.7627204   1.2672052   0.3184263  )
        32        O      tau(  32) = (  -0.0982580   1.2672052   1.5803368  )
        33        O      tau(  33) = (   0.4374427   0.8822828   0.3036232  )
        34        O      tau(  34) = (   0.2270198   0.8822828   1.5951399  )
        35        O      tau(  35) = (  -0.1378698   0.4820513   1.5937664  )
        36        O      tau(  36) = (   0.8023322   0.4820513   0.3049967  )
        37        O      tau(  37) = (   0.0065011   0.8721661   0.7498981  )
        38        O      tau(  38) = (   0.6579613   0.8721661   1.1488649  )
        39        O      tau(  39) = (   0.4986210   1.7356434   0.7529947  )
        40        O      tau(  40) = (   0.1658414   1.7356434   1.1457684  )
        41        H      tau(  41) = (   0.0248070   0.8537021   0.5685308  )
        42        H      tau(  42) = (   0.6396554   0.8537021   1.3302323  )
        43        H      tau(  43) = (   0.4944516   0.0251736   0.5722089  )
        44        H      tau(  44) = (   0.1700109   0.0251736   1.3265542  )

     -------------------------------------------------
     Parameters for Dispersion (Grimme-D2) Correction:
     -------------------------------------------------
       atom      VdW radius       C_6     

        Al         3.097        374.319
        Fe         2.952        374.666
        H          1.892          4.857
        K          2.806        374.666
        Mg         2.578        198.087
        O          2.536         24.284
        Si         3.243        320.200

   Crystallographic axes

     site n.     atom                  positions (cryst. coord.)
         1        K      tau(   1) = (  0.0000000  0.4954640  0.0000000  )
         2        K      tau(   2) = (  0.5000000  0.0029698  0.0000000  )
         3        Mg     tau(   3) = (  0.0000000  0.0034602  0.5000000  )
         4        Mg     tau(   4) = (  0.0000000  0.3341930  0.5000000  )
         5        Mg     tau(   5) = (  0.0000000  0.6624370  0.5000000  )
         6        Mg     tau(   6) = (  0.5000000  0.8332019  0.5000000  )
         7        Mg     tau(   7) = (  0.5000000  0.1738754  0.5000000  )
         8        Fe     tau(   8) = (  0.5000000  0.4985831  0.5000000  )
         9        Si     tau(   9) = (  0.0822087  0.1651083  0.2234228  )
        10        Si     tau(  10) = (  0.9177913  0.1651083  0.7765772  )
        11        Si     tau(  11) = (  0.9334180  0.8340520  0.7709342  )
        12        Si     tau(  12) = (  0.0665820  0.8340520  0.2290658  )
        13        Si     tau(  13) = (  0.5646972  0.6656721  0.2261585  )
        14        Si     tau(  14) = (  0.4353028  0.6656721  0.7738416  )
        15        Al     tau(  15) = (  0.4177946  0.3328628  0.7752795  )
        16        Al     tau(  16) = (  0.5822054  0.3328628  0.2247205  )
        17        O      tau(  17) = (  0.1260564  0.1637117  0.3858084  )
        18        O      tau(  18) = (  0.8739436  0.1637117  0.6141915  )
        19        O      tau(  19) = (  0.8741431  0.8320255  0.6098692  )
        20        O      tau(  20) = (  0.1258570  0.8320255  0.3901308  )
        21        O      tau(  21) = (  0.6274390  0.6670668  0.3883942  )
        22        O      tau(  22) = (  0.3725610  0.6670668  0.6116058  )
        23        O      tau(  23) = (  0.3646857  0.3374192  0.6024735  )
        24        O      tau(  24) = (  0.6353142  0.3374192  0.3975265  )
        25        O      tau(  25) = (  0.3435831  0.2023394  0.1664606  )
        26        O      tau(  26) = (  0.6564168  0.2023394  0.8335394  )
        27        O      tau(  27) = (  0.9931680  0.9971517  0.1680237  )
        28        O      tau(  28) = (  0.0068320  0.9971517  0.8319762  )
        29        O      tau(  29) = (  0.6791790  0.7773768  0.8308836  )
        30        O      tau(  30) = (  0.3208211  0.7773768  0.1691164  )
        31        O      tau(  31) = (  0.8189907  0.7297184  0.1677020  )
        32        O      tau(  32) = (  0.1810093  0.7297184  0.8322980  )
        33        O      tau(  33) = (  0.4910971  0.5080614  0.1599058  )
        34        O      tau(  34) = (  0.5089030  0.5080614  0.8400942  )
        35        O      tau(  35) = (  0.1437707  0.2775886  0.8393708  )
        36        O      tau(  36) = (  0.8562293  0.2775886  0.1606292  )
        37        O      tau(  37) = (  0.1390184  0.5022357  0.3949403  )
        38        O      tau(  38) = (  0.8609816  0.5022357  0.6050596  )
        39        O      tau(  39) = (  0.6316856  0.9994680  0.3965712  )
        40        O      tau(  40) = (  0.3683145  0.9994680  0.6034288  )
        41        H      tau(  41) = (  0.1252742  0.4916032  0.2994217  )
        42        H      tau(  42) = (  0.8747258  0.4916032  0.7005783  )
        43        H      tau(  43) = (  0.5955688  0.0144962  0.3013588  )
        44        H      tau(  44) = (  0.4044313  0.0144962  0.6986412  )

     number of k points=    20  Gaussian smearing, width (Ry)=  0.0010
                       cart. coord. in units 2pi/alat
        k(    1) = (   0.0000000   0.0000000   0.0000000), wk =   0.0370370
        k(    2) = (   0.0000000   0.0000000   0.1755529), wk =   0.0740741
        k(    3) = (   0.0000000   0.1919496   0.0000000), wk =   0.0740741
        k(    4) = (   0.0000000   0.1919496   0.1755529), wk =   0.1481481
        k(    5) = (   0.1666667   0.0000000   0.0294523), wk =   0.0740741
        k(    6) = (   0.1666667   0.0000000   0.2050052), wk =   0.0740741
        k(    7) = (   0.1666667   0.0000000  -0.1461006), wk =   0.0740741
        k(    8) = (   0.1666667   0.1919496   0.0294523), wk =   0.1481481
        k(    9) = (   0.1666667   0.1919496   0.2050052), wk =   0.1481481
        k(   10) = (   0.1666667   0.1919496  -0.1461006), wk =   0.1481481
        k(   11) = (   0.3333333   0.0000000   0.0589046), wk =   0.0740741
        k(   12) = (   0.3333333   0.0000000   0.2344575), wk =   0.0740741
        k(   13) = (   0.3333333   0.0000000  -0.1166483), wk =   0.0740741
        k(   14) = (   0.3333333   0.1919496   0.0589046), wk =   0.1481481
        k(   15) = (   0.3333333   0.1919496   0.2344575), wk =   0.1481481
        k(   16) = (   0.3333333   0.1919496  -0.1166483), wk =   0.1481481
        k(   17) = (  -0.5000000   0.0000000  -0.0883569), wk =   0.0370370
        k(   18) = (  -0.5000000   0.0000000   0.0871960), wk =   0.0740741
        k(   19) = (  -0.5000000   0.1919496  -0.0883569), wk =   0.0740741
        k(   20) = (  -0.5000000   0.1919496   0.0871960), wk =   0.1481481

                       cryst. coord.
        k(    1) = (   0.0000000   0.0000000   0.0000000), wk =   0.0370370
        k(    2) = (   0.0000000   0.0000000   0.3333333), wk =   0.0740741
        k(    3) = (   0.0000000   0.3333333   0.0000000), wk =   0.0740741
        k(    4) = (   0.0000000   0.3333333   0.3333333), wk =   0.1481481
        k(    5) = (   0.1666667   0.0000000   0.0000000), wk =   0.0740741
        k(    6) = (   0.1666667   0.0000000   0.3333333), wk =   0.0740741
        k(    7) = (   0.1666667   0.0000000  -0.3333333), wk =   0.0740741
        k(    8) = (   0.1666667   0.3333333   0.0000000), wk =   0.1481481
        k(    9) = (   0.1666667   0.3333333   0.3333333), wk =   0.1481481
        k(   10) = (   0.1666667   0.3333333  -0.3333333), wk =   0.1481481
        k(   11) = (   0.3333333   0.0000000   0.0000000), wk =   0.0740741
        k(   12) = (   0.3333333   0.0000000   0.3333333), wk =   0.0740741
        k(   13) = (   0.3333333   0.0000000  -0.3333333), wk =   0.0740741
        k(   14) = (   0.3333333   0.3333333   0.0000000), wk =   0.1481481
        k(   15) = (   0.3333333   0.3333333   0.3333333), wk =   0.1481481
        k(   16) = (   0.3333333   0.3333333  -0.3333333), wk =   0.1481481
        k(   17) = (  -0.5000000   0.0000000   0.0000000), wk =   0.0370370
        k(   18) = (  -0.5000000   0.0000000   0.3333333), wk =   0.0740741
        k(   19) = (  -0.5000000   0.3333333   0.0000000), wk =   0.0740741
        k(   20) = (  -0.5000000   0.3333333   0.3333333), wk =   0.1481481

     Dense  grid:   583539 G-vectors     FFT dimensions: (  72, 125, 135)

     Smooth grid:   206401 G-vectors     FFT dimensions: (  50,  90,  96)

     Dynamical RAM for                 wfc:       7.72 MB

     Dynamical RAM for     wfc (w. buffer):     162.14 MB

     Dynamical RAM for           str. fact:       7.79 MB

     Dynamical RAM for           local pot:       0.00 MB

     Dynamical RAM for          nlocal pot:      21.54 MB

     Dynamical RAM for                qrad:      24.61 MB

     Dynamical RAM for          rho,v,vnew:       6.84 MB

     Dynamical RAM for               rhoin:       2.28 MB

     Dynamical RAM for            rho*nmix:      17.81 MB

     Dynamical RAM for           G-vectors:       4.37 MB

     Dynamical RAM for          h,s,v(r/c):       1.13 MB

     Dynamical RAM for          <psi|beta>:       1.05 MB

     Dynamical RAM for                 psi:      15.44 MB

     Dynamical RAM for                hpsi:      15.44 MB

     Dynamical RAM for                spsi:      15.44 MB

     Dynamical RAM for      wfcinit/wfcrot:      18.77 MB

     Dynamical RAM for           addusdens:     233.73 MB

     Dynamical RAM for          addusforce:     285.58 MB

     Dynamical RAM for         addusstress:     223.72 MB

     Estimated static dynamical RAM per process >     244.32 MB

     Estimated max dynamical RAM per process >     547.71 MB

     Estimated total dynamical RAM >       4.28 GB

     Check: negative core charge=   -0.000004

     Initial potential from superposition of free atoms

     starting charge     261.9493, renormalised to     262.0000
     Starting wfcs are  183 randomized atomic wfcs
     Checking if some PAW data can be deallocated... 
       PAW data deallocated on    7 nodes for type:  1
       PAW data deallocated on    7 nodes for type:  2
       PAW data deallocated on    7 nodes for type:  3
       PAW data deallocated on    7 nodes for type:  4
       PAW data deallocated on    6 nodes for type:  5
       PAW data deallocated on    2 nodes for type:  6
       PAW data deallocated on    6 nodes for type:  7

     total cpu time spent up to now is      119.5 secs

     Self-consistent Calculation

     iteration #  1     ecut=    60.00 Ry     beta= 0.70
     Davidson diagonalization with overlap

---- Real-time Memory Report at c_bands before calling an iterative solver
           315 MiB given to the printing process from OS
             0 MiB allocation reported by mallinfo(arena+hblkhd)
          5951 MiB available memory on the node where the printing process lives
------------------
     ethr =  1.00E-02,  avg # of iterations =  5.8

     total cpu time spent up to now is      481.0 secs

     total energy              =   -2623.97589578 Ry
     estimated scf accuracy    <      12.19924087 Ry

     iteration #  2     ecut=    60.00 Ry     beta= 0.70
     Davidson diagonalization with overlap

---- Real-time Memory Report at c_bands before calling an iterative solver
           526 MiB given to the printing process from OS
             0 MiB allocation reported by mallinfo(arena+hblkhd)
          5661 MiB available memory on the node where the printing process lives
------------------
     ethr =  4.66E-03,  avg # of iterations =  5.1

     total cpu time spent up to now is     1036.9 secs

     total energy              =   -2629.36281650 Ry
     estimated scf accuracy    <      10.81355715 Ry

     iteration #  3     ecut=    60.00 Ry     beta= 0.70
     Davidson diagonalization with overlap

---- Real-time Memory Report at c_bands before calling an iterative solver
           535 MiB given to the printing process from OS
             0 MiB allocation reported by mallinfo(arena+hblkhd)
          5591 MiB available memory on the node where the printing process lives
------------------
     ethr =  4.13E-03,  avg # of iterations =  2.0

     total cpu time spent up to now is     1323.3 secs

     total energy              =   -2630.27974288 Ry
     estimated scf accuracy    <       1.67919994 Ry

     iteration #  4     ecut=    60.00 Ry     beta= 0.70
     Davidson diagonalization with overlap

---- Real-time Memory Report at c_bands before calling an iterative solver
           535 MiB given to the printing process from OS
             0 MiB allocation reported by mallinfo(arena+hblkhd)
          5589 MiB available memory on the node where the printing process lives
------------------
     ethr =  6.41E-04,  avg # of iterations =  5.1

     total cpu time spent up to now is     1811.5 secs

     total energy              =   -2631.24620194 Ry
     estimated scf accuracy    <       0.34453905 Ry

     iteration #  5     ecut=    60.00 Ry     beta= 0.70
     Davidson diagonalization with overlap

---- Real-time Memory Report at c_bands before calling an iterative solver
           536 MiB given to the printing process from OS
             0 MiB allocation reported by mallinfo(arena+hblkhd)
          5575 MiB available memory on the node where the printing process lives
------------------
     c_bands:  1 eigenvalues not converged
     c_bands:  1 eigenvalues not converged
     c_bands:  1 eigenvalues not converged
     c_bands:  1 eigenvalues not converged
     ethr =  1.32E-04,  avg # of iterations = 15.0

     total cpu time spent up to now is     2279.2 secs

     total energy              =   -2631.32974653 Ry
     estimated scf accuracy    <       0.04889758 Ry

     iteration #  6     ecut=    60.00 Ry     beta= 0.70
     Davidson diagonalization with overlap

---- Real-time Memory Report at c_bands before calling an iterative solver
           536 MiB given to the printing process from OS
             0 MiB allocation reported by mallinfo(arena+hblkhd)
          5646 MiB available memory on the node where the printing process lives
------------------
     c_bands:  1 eigenvalues not converged
     c_bands:  1 eigenvalues not converged
     c_bands:  1 eigenvalues not converged
     c_bands:  2 eigenvalues not converged
     c_bands:  3 eigenvalues not converged
     c_bands:  2 eigenvalues not converged
     c_bands:  1 eigenvalues not converged
     c_bands:  2 eigenvalues not converged
     c_bands:  3 eigenvalues not converged
     c_bands:  2 eigenvalues not converged
     c_bands:  1 eigenvalues not converged
     c_bands:  1 eigenvalues not converged
     c_bands:  3 eigenvalues not converged
     c_bands:  2 eigenvalues not converged
     ethr =  1.87E-05,  avg # of iterations = 17.9

     total cpu time spent up to now is     2820.5 secs

     total energy              =   -2631.33912112 Ry
     estimated scf accuracy    <       0.02376045 Ry

     iteration #  7     ecut=    60.00 Ry     beta= 0.70
     Davidson diagonalization with overlap

---- Real-time Memory Report at c_bands before calling an iterative solver
           536 MiB given to the printing process from OS
             0 MiB allocation reported by mallinfo(arena+hblkhd)
          5629 MiB available memory on the node where the printing process lives
------------------
     c_bands:  1 eigenvalues not converged
     c_bands:  1 eigenvalues not converged
     c_bands:  2 eigenvalues not converged
     c_bands:  1 eigenvalues not converged
     ethr =  9.07E-06,  avg # of iterations = 11.9

     total cpu time spent up to now is     3164.2 secs

     total energy              =   -2631.33832778 Ry
     estimated scf accuracy    <       0.00834396 Ry

     iteration #  8     ecut=    60.00 Ry     beta= 0.70
     Davidson diagonalization with overlap

---- Real-time Memory Report at c_bands before calling an iterative solver
           537 MiB given to the printing process from OS
             0 MiB allocation reported by mallinfo(arena+hblkhd)
          5569 MiB available memory on the node where the printing process lives
------------------
     c_bands:  1 eigenvalues not converged
     c_bands:  1 eigenvalues not converged
     c_bands:  1 eigenvalues not converged
     c_bands:  1 eigenvalues not converged
     ethr =  3.18E-06,  avg # of iterations = 11.7

     total cpu time spent up to now is     3636.3 secs

     total energy              =   -2631.34133448 Ry
     estimated scf accuracy    <       0.00048494 Ry

     iteration #  9     ecut=    60.00 Ry     beta= 0.70
     Davidson diagonalization with overlap

---- Real-time Memory Report at c_bands before calling an iterative solver
           539 MiB given to the printing process from OS
             0 MiB allocation reported by mallinfo(arena+hblkhd)
          5555 MiB available memory on the node where the printing process lives
------------------
     ethr =  1.85E-07,  avg # of iterations = 10.0

     total cpu time spent up to now is     4327.3 secs

     total energy              =   -2631.34203021 Ry
     estimated scf accuracy    <       0.00012944 Ry

     iteration # 10     ecut=    60.00 Ry     beta= 0.70
     Davidson diagonalization with overlap

---- Real-time Memory Report at c_bands before calling an iterative solver
           541 MiB given to the printing process from OS
             0 MiB allocation reported by mallinfo(arena+hblkhd)
          5540 MiB available memory on the node where the printing process lives
------------------
     ethr =  4.94E-08,  avg # of iterations =  6.1

     total cpu time spent up to now is     4727.6 secs

     total energy              =   -2631.34205806 Ry
     estimated scf accuracy    <       0.00004850 Ry

     iteration # 11     ecut=    60.00 Ry     beta= 0.70
     Davidson diagonalization with overlap

---- Real-time Memory Report at c_bands before calling an iterative solver
           541 MiB given to the printing process from OS
             0 MiB allocation reported by mallinfo(arena+hblkhd)
          5599 MiB available memory on the node where the printing process lives
------------------
     ethr =  1.85E-08,  avg # of iterations =  4.3

     total cpu time spent up to now is     5090.5 secs

     total energy              =   -2631.34206678 Ry
     estimated scf accuracy    <       0.00000782 Ry

     iteration # 12     ecut=    60.00 Ry     beta= 0.70
     Davidson diagonalization with overlap

---- Real-time Memory Report at c_bands before calling an iterative solver
           541 MiB given to the printing process from OS
             0 MiB allocation reported by mallinfo(arena+hblkhd)
          5558 MiB available memory on the node where the printing process lives
------------------
     ethr =  2.98E-09,  avg # of iterations =  6.3

     total cpu time spent up to now is     5667.7 secs

     total energy              =   -2631.34207374 Ry
     estimated scf accuracy    <       0.00000257 Ry

     iteration # 13     ecut=    60.00 Ry     beta= 0.70
     Davidson diagonalization with overlap

---- Real-time Memory Report at c_bands before calling an iterative solver
           543 MiB given to the printing process from OS
             0 MiB allocation reported by mallinfo(arena+hblkhd)
          5521 MiB available memory on the node where the printing process lives
------------------
     ethr =  9.83E-10,  avg # of iterations =  5.0

     total cpu time spent up to now is     6005.7 secs

     End of self-consistent calculation

          k = 0.0000 0.0000 0.0000 ( 25799 PWs)   bands (ev):

   -77.9226 -67.4980 -67.4753 -67.3560 -66.9187 -66.8968 -44.0825 -44.0570
   -43.9759 -34.2705 -34.2438 -34.2433 -34.2336 -34.2288 -34.2146 -34.1180
   -34.1169 -34.0907 -33.6943 -33.6728 -33.6704 -33.6572 -33.6522 -33.6147
   -22.9319 -22.8843 -15.0273 -14.9734 -14.0813 -14.0356 -13.5698 -13.5462
   -13.3592 -13.2348 -13.1741 -13.0232 -12.7956 -12.7893 -12.7787 -12.7375
   -12.6843 -12.5957 -12.4627 -12.3969 -12.2139 -12.2031 -12.1652 -12.0423
   -11.1332 -10.8845  -6.5020  -6.4535  -6.4306  -6.4201  -6.3715  -6.3642
    -4.2022  -4.1435  -2.3428  -2.2411  -1.7572  -1.3066  -1.0829  -1.0785
    -1.0320  -0.9275  -0.6022  -0.4731  -0.4003  -0.2874  -0.2775  -0.0969
     0.0809   0.1452   0.2684   0.5370   0.6556   0.6704   0.7370   0.9321
     0.9515   1.1814   1.3127   1.3748   1.4458   1.5658   1.5757   1.7139
     1.8817   1.8991   2.0428   2.1266   2.1753   2.2463   2.2846   2.3629
     2.4608   2.4903   2.6024   2.7331   2.7824   2.8009   2.8457   2.9111
     2.9654   3.0635   3.0823   3.1522   3.2347   3.2369   3.3351   3.3764
     3.4550   3.4932   3.5173   3.6265   3.6399   3.7516   3.8302   3.8717
     3.9420   4.0050   4.0095   4.0236   4.0281   4.2926   4.4833   4.5992
     8.2446   8.3213   8.4469   9.2057   9.7518   9.8652  10.7055  11.4161
    11.6664  12.0135  12.2404  12.3100  12.6442  12.7787  13.1027  13.1446
    13.2038  13.3428  13.3764  13.5325  13.6834  13.6919  13.8220  13.8366
    13.8931  14.1682  14.3208  14.3596  14.4220

     occupation numbers 
     1.0000   1.0000   1.0000   1.0000   1.0000   1.0000   1.0000   1.0000
     1.0000   1.0000   1.0000   1.0000   1.0000   1.0000   1.0000   1.0000
     1.0000   1.0000   1.0000   1.0000   1.0000   1.0000   1.0000   1.0000
     1.0000   1.0000   1.0000   1.0000   1.0000   1.0000   1.0000   1.0000
     1.0000   1.0000   1.0000   1.0000   1.0000   1.0000   1.0000   1.0000
     1.0000   1.0000   1.0000   1.0000   1.0000   1.0000   1.0000   1.0000
     1.0000   1.0000   1.0000   1.0000   1.0000   1.0000   1.0000   1.0000
     1.0000   1.0000   1.0000   1.0000   1.0000   1.0000   1.0000   1.0000
     1.0000   1.0000   1.0000   1.0000   1.0000   1.0000   1.0000   1.0000
     1.0000   1.0000   1.0000   1.0000   1.0000   1.0000   1.0000   1.0000
     1.0000   1.0000   1.0000   1.0000   1.0000   1.0000   1.0000   1.0000
     1.0000   1.0000   1.0000   1.0000   1.0000   1.0000   1.0000   1.0000
     1.0000   1.0000   1.0000   1.0000   1.0000   1.0000   1.0000   1.0000
     1.0000   1.0000   1.0000   1.0000   1.0000   1.0000   1.0000   1.0000
     1.0000   1.0000   1.0000   1.0000   1.0000   1.0000   1.0000   1.0000
     1.0000   1.0000   1.0000   1.0000   1.0000   1.0000   1.0000   1.0000
     1.0000   1.0000   1.0000   0.0000   0.0000   0.0000   0.0000   0.0000
     0.0000   0.0000   0.0000   0.0000   0.0000   0.0000   0.0000   0.0000
     0.0000   0.0000   0.0000   0.0000   0.0000   0.0000   0.0000   0.0000
     0.0000   0.0000   0.0000   0.0000   0.0000

          k = 0.0000 0.0000 0.1756 ( 25812 PWs)   bands (ev):

   -77.9226 -67.4980 -67.4753 -67.3560 -66.9187 -66.8968 -44.0825 -44.0570
   -43.9759 -34.2705 -34.2438 -34.2433 -34.2336 -34.2288 -34.2146 -34.1180
   -34.1169 -34.0907 -33.6943 -33.6728 -33.6704 -33.6572 -33.6522 -33.6147
   -22.9319 -22.8843 -15.0144 -14.9871 -14.0703 -14.0472 -13.5703 -13.5457
   -13.3479 -13.2548 -13.1662 -13.0192 -12.8000 -12.7871 -12.7796 -12.7393
   -12.6773 -12.6000 -12.4549 -12.4045 -12.2222 -12.1878 -12.1652 -12.0491
   -11.1329 -10.8852  -6.5020  -6.4536  -6.4306  -6.4200  -6.3714  -6.3642
    -4.1986  -4.1475  -2.3195  -2.2687  -1.7241  -1.2946  -1.1073  -1.0449
    -1.0258  -0.9531  -0.5756  -0.4858  -0.4434  -0.2884  -0.2616  -0.1852
     0.0978   0.1821   0.2244   0.4811   0.6434   0.6518   0.7626   0.9510
     0.9959   1.2449   1.2590   1.3749   1.4894   1.5230   1.6330   1.7468
     1.8997   1.9148   2.1241   2.1470   2.1874   2.2427   2.3030   2.3598
     2.4035   2.4941   2.6184   2.7171   2.7284   2.7494   2.8354   2.8727
     2.8916   3.1005   3.1107   3.1675   3.1705   3.2495   3.3594   3.4029
     3.4251   3.4909   3.5412   3.6418   3.6637   3.7842   3.8142   3.8609
     3.9140   3.9538   3.9811   4.0273   4.0355   4.3340   4.4793   4.6035
     8.2472   8.3208   8.4457   9.5122   9.7353   9.8786  10.2462  11.4555
    11.7350  11.9034  12.2045  12.3065  12.7657  12.9668  13.0608  13.1420
    13.2727  13.3361  13.4188  13.5073  13.5761  13.7256  13.8148  13.8508
    13.9910  14.0910  14.2060  14.3476  14.3825

     occupation numbers 
     1.0000   1.0000   1.0000   1.0000   1.0000   1.0000   1.0000   1.0000
     1.0000   1.0000   1.0000   1.0000   1.0000   1.0000   1.0000   1.0000
     1.0000   1.0000   1.0000   1.0000   1.0000   1.0000   1.0000   1.0000
     1.0000   1.0000   1.0000   1.0000   1.0000   1.0000   1.0000   1.0000
     1.0000   1.0000   1.0000   1.0000   1.0000   1.0000   1.0000   1.0000
     1.0000   1.0000   1.0000   1.0000   1.0000   1.0000   1.0000   1.0000
     1.0000   1.0000   1.0000   1.0000   1.0000   1.0000   1.0000   1.0000
     1.0000   1.0000   1.0000   1.0000   1.0000   1.0000   1.0000   1.0000
     1.0000   1.0000   1.0000   1.0000   1.0000   1.0000   1.0000   1.0000
     1.0000   1.0000   1.0000   1.0000   1.0000   1.0000   1.0000   1.0000
     1.0000   1.0000   1.0000   1.0000   1.0000   1.0000   1.0000   1.0000
     1.0000   1.0000   1.0000   1.0000   1.0000   1.0000   1.0000   1.0000
     1.0000   1.0000   1.0000   1.0000   1.0000   1.0000   1.0000   1.0000
     1.0000   1.0000   1.0000   1.0000   1.0000   1.0000   1.0000   1.0000
     1.0000   1.0000   1.0000   1.0000   1.0000   1.0000   1.0000   1.0000
     1.0000   1.0000   1.0000   1.0000   1.0000   1.0000   1.0000   1.0000
     1.0000   1.0000   1.0000   0.0000   0.0000   0.0000   0.0000   0.0000
     0.0000   0.0000   0.0000   0.0000   0.0000   0.0000   0.0000   0.0000
     0.0000   0.0000   0.0000   0.0000   0.0000   0.0000   0.0000   0.0000
     0.0000   0.0000   0.0000   0.0000   0.0000

          k = 0.0000 0.1919 0.0000 ( 25771 PWs)   bands (ev):

   -77.9226 -67.4980 -67.4753 -67.3560 -66.9186 -66.8967 -44.0825 -44.0570
   -43.9759 -34.2705 -34.2437 -34.2433 -34.2336 -34.2288 -34.2146 -34.1180
   -34.1168 -34.0907 -33.6943 -33.6728 -33.6704 -33.6572 -33.6522 -33.6147
   -22.9319 -22.8843 -15.0222 -14.9684 -14.1167 -14.0666 -13.5698 -13.5463
   -13.2666 -13.1596 -13.1269 -13.0477 -12.8926 -12.8535 -12.7726 -12.7331
   -12.6988 -12.5937 -12.4509 -12.3931 -12.2137 -12.2007 -12.1617 -12.0387
   -11.1317 -10.8841  -6.5001  -6.4557  -6.4304  -6.4190  -6.3722  -6.3649
    -4.1644  -4.1043  -2.4835  -2.3763  -1.7029  -1.3593  -1.0302  -1.0137
    -0.9095  -0.8576  -0.6713  -0.5556  -0.3966  -0.2458  -0.1946  -0.0837
    -0.0071   0.2045   0.2610   0.5180   0.6048   0.6297   0.7433   0.9311
     0.9698   1.1668   1.2185   1.3610   1.4500   1.6000   1.6174   1.7468
     1.9259   1.9479   2.0362   2.1553   2.1988   2.2431   2.3459   2.4229
     2.4531   2.5155   2.5992   2.6968   2.7521   2.7879   2.8102   2.9411
     3.0062   3.0670   3.1159   3.1406   3.2451   3.2697   3.3414   3.3790
     3.4385   3.4446   3.4929   3.5853   3.6617   3.6784   3.8715   3.8816
     3.9150   3.9821   3.9963   4.0429   4.0449   4.2779   4.2892   4.5888
     8.2449   8.3324   8.4464   9.5849   9.7059   9.8890  10.5904  10.9508
    11.5693  11.9652  12.3994  12.6571  12.6635  12.9163  13.0657  13.1261
    13.2057  13.3511  13.3854  13.4934  13.5453  13.6471  13.6918  13.8449
    13.8460  13.9266  14.3771  14.4264  14.5607

     occupation numbers 
     1.0000   1.0000   1.0000   1.0000   1.0000   1.0000   1.0000   1.0000
     1.0000   1.0000   1.0000   1.0000   1.0000   1.0000   1.0000   1.0000
     1.0000   1.0000   1.0000   1.0000   1.0000   1.0000   1.0000   1.0000
     1.0000   1.0000   1.0000   1.0000   1.0000   1.0000   1.0000   1.0000
     1.0000   1.0000   1.0000   1.0000   1.0000   1.0000   1.0000   1.0000
     1.0000   1.0000   1.0000   1.0000   1.0000   1.0000   1.0000   1.0000
     1.0000   1.0000   1.0000   1.0000   1.0000   1.0000   1.0000   1.0000
     1.0000   1.0000   1.0000   1.0000   1.0000   1.0000   1.0000   1.0000
     1.0000   1.0000   1.0000   1.0000   1.0000   1.0000   1.0000   1.0000
     1.0000   1.0000   1.0000   1.0000   1.0000   1.0000   1.0000   1.0000
     1.0000   1.0000   1.0000   1.0000   1.0000   1.0000   1.0000   1.0000
     1.0000   1.0000   1.0000   1.0000   1.0000   1.0000   1.0000   1.0000
     1.0000   1.0000   1.0000   1.0000   1.0000   1.0000   1.0000   1.0000
     1.0000   1.0000   1.0000   1.0000   1.0000   1.0000   1.0000   1.0000
     1.0000   1.0000   1.0000   1.0000   1.0000   1.0000   1.0000   1.0000
     1.0000   1.0000   1.0000   1.0000   1.0000   1.0000   1.0000   1.0000
     1.0000   1.0000   1.0000   0.0000   0.0000   0.0000   0.0000   0.0000
     0.0000   0.0000   0.0000   0.0000   0.0000   0.0000   0.0000   0.0000
     0.0000   0.0000   0.0000   0.0000   0.0000   0.0000   0.0000   0.0000
     0.0000   0.0000   0.0000   0.0000   0.0000

          k = 0.0000 0.1919 0.1756 ( 25786 PWs)   bands (ev):

   -77.9226 -67.4980 -67.4753 -67.3560 -66.9187 -66.8968 -44.0825 -44.0570
   -43.9759 -34.2705 -34.2437 -34.2433 -34.2336 -34.2288 -34.2146 -34.1180
   -34.1168 -34.0907 -33.6943 -33.6728 -33.6704 -33.6572 -33.6522 -33.6147
   -22.9319 -22.8843 -15.0093 -14.9822 -14.1047 -14.0794 -13.5704 -13.5457
   -13.2588 -13.1558 -13.1426 -13.0382 -12.9082 -12.8372 -12.7749 -12.7345
   -12.6957 -12.5979 -12.4436 -12.4005 -12.2212 -12.1871 -12.1604 -12.0455
   -11.1314 -10.8848  -6.5002  -6.4558  -6.4304  -6.4188  -6.3720  -6.3649
    -4.1579  -4.1113  -2.4587  -2.4037  -1.6743  -1.3481  -1.0239  -1.0147
    -0.9052  -0.8691  -0.6491  -0.5885  -0.4110  -0.2536  -0.1997  -0.1541
     0.0371   0.1925   0.2211   0.4937   0.5924   0.6087   0.7797   0.9303
     1.0266   1.1280   1.2033   1.4066   1.5268   1.6002   1.7061   1.7564
     1.8984   1.9716   2.0723   2.1147   2.1734   2.3137   2.3352   2.4020
     2.4740   2.5009   2.5898   2.6905   2.7231   2.7408   2.8468   2.8746
     2.9689   3.0442   3.1357   3.1509   3.2154   3.2819   3.3256   3.3606
     3.4298   3.4643   3.5365   3.5716   3.6799   3.7366   3.8273   3.8610
     3.9139   3.9625   3.9812   4.0150   4.0529   4.2881   4.3345   4.5952
     8.2475   8.3322   8.4441   9.6498   9.8171   9.9723  10.5413  10.7857
    11.2750  11.9373  12.3724  12.6973  12.7862  13.0029  13.1298  13.1703
    13.2935  13.3344  13.4433  13.5127  13.5833  13.6682  13.6813  13.8019
    13.8500  14.0485  14.3031  14.3660  14.4424

     occupation numbers 
     1.0000   1.0000   1.0000   1.0000   1.0000   1.0000   1.0000   1.0000
     1.0000   1.0000   1.0000   1.0000   1.0000   1.0000   1.0000   1.0000
     1.0000   1.0000   1.0000   1.0000   1.0000   1.0000   1.0000   1.0000
     1.0000   1.0000   1.0000   1.0000   1.0000   1.0000   1.0000   1.0000
     1.0000   1.0000   1.0000   1.0000   1.0000   1.0000   1.0000   1.0000
     1.0000   1.0000   1.0000   1.0000   1.0000   1.0000   1.0000   1.0000
     1.0000   1.0000   1.0000   1.0000   1.0000   1.0000   1.0000   1.0000
     1.0000   1.0000   1.0000   1.0000   1.0000   1.0000   1.0000   1.0000
     1.0000   1.0000   1.0000   1.0000   1.0000   1.0000   1.0000   1.0000
     1.0000   1.0000   1.0000   1.0000   1.0000   1.0000   1.0000   1.0000
     1.0000   1.0000   1.0000   1.0000   1.0000   1.0000   1.0000   1.0000
     1.0000   1.0000   1.0000   1.0000   1.0000   1.0000   1.0000   1.0000
     1.0000   1.0000   1.0000   1.0000   1.0000   1.0000   1.0000   1.0000
     1.0000   1.0000   1.0000   1.0000   1.0000   1.0000   1.0000   1.0000
     1.0000   1.0000   1.0000   1.0000   1.0000   1.0000   1.0000   1.0000
     1.0000   1.0000   1.0000   1.0000   1.0000   1.0000   1.0000   1.0000
     1.0000   1.0000   1.0000   0.0000   0.0000   0.0000   0.0000   0.0000
     0.0000   0.0000   0.0000   0.0000   0.0000   0.0000   0.0000   0.0000
     0.0000   0.0000   0.0000   0.0000   0.0000   0.0000   0.0000   0.0000
     0.0000   0.0000   0.0000   0.0000   0.0000

          k = 0.1667 0.0000 0.0295 ( 25803 PWs)   bands (ev):

   -77.9226 -67.4980 -67.4753 -67.3560 -66.9186 -66.8968 -44.0825 -44.0570
   -43.9759 -34.2702 -34.2452 -34.2424 -34.2332 -34.2289 -34.2147 -34.1181
   -34.1168 -34.0908 -33.6944 -33.6735 -33.6689 -33.6577 -33.6524 -33.6149
   -22.9317 -22.8841 -14.9686 -14.9157 -14.1009 -14.0578 -13.6839 -13.6520
   -13.2877 -13.1639 -13.1252 -13.0056 -12.8271 -12.7821 -12.7774 -12.7475
   -12.6733 -12.6041 -12.4764 -12.4084 -12.2883 -12.2381 -12.1501 -12.0276
   -11.1296 -10.8889  -6.5021  -6.4575  -6.4293  -6.4188  -6.3713  -6.3602
    -4.0454  -3.9841  -2.3122  -2.2102  -1.7496  -1.3724  -1.3248  -1.2588
    -0.8219  -0.7312  -0.6014  -0.5328  -0.4103  -0.2711  -0.2461  -0.0973
     0.0610   0.1821   0.2547   0.5154   0.5848   0.6973   0.7230   0.8198
     1.0984   1.2220   1.3007   1.3729   1.4050   1.4755   1.6015   1.6772
     1.7561   1.9752   2.0030   2.0699   2.1459   2.3069   2.3703   2.4047
     2.4462   2.5295   2.6217   2.6990   2.7690   2.7894   2.8411   2.9324
     2.9871   2.9983   3.1101   3.1605   3.1836   3.2567   3.3051   3.3527
     3.4434   3.5020   3.5267   3.6515   3.6626   3.7278   3.7878   3.8444
     3.8993   3.9516   4.0034   4.0178   4.0495   4.2273   4.4298   4.5152
     8.2457   8.3227   8.4242   9.5330   9.7594   9.8448  10.8997  11.4693
    11.7809  12.0628  12.2466  12.4492  12.6164  12.8805  12.9565  13.0862
    13.2218  13.3181  13.3983  13.5524  13.6258  13.6769  13.7607  13.8473
    13.9485  14.1939  14.2551  14.3305  14.4614

     occupation numbers 
     1.0000   1.0000   1.0000   1.0000   1.0000   1.0000   1.0000   1.0000
     1.0000   1.0000   1.0000   1.0000   1.0000   1.0000   1.0000   1.0000
     1.0000   1.0000   1.0000   1.0000   1.0000   1.0000   1.0000   1.0000
     1.0000   1.0000   1.0000   1.0000   1.0000   1.0000   1.0000   1.0000
     1.0000   1.0000   1.0000   1.0000   1.0000   1.0000   1.0000   1.0000
     1.0000   1.0000   1.0000   1.0000   1.0000   1.0000   1.0000   1.0000
     1.0000   1.0000   1.0000   1.0000   1.0000   1.0000   1.0000   1.0000
     1.0000   1.0000   1.0000   1.0000   1.0000   1.0000   1.0000   1.0000
     1.0000   1.0000   1.0000   1.0000   1.0000   1.0000   1.0000   1.0000
     1.0000   1.0000   1.0000   1.0000   1.0000   1.0000   1.0000   1.0000
     1.0000   1.0000   1.0000   1.0000   1.0000   1.0000   1.0000   1.0000
     1.0000   1.0000   1.0000   1.0000   1.0000   1.0000   1.0000   1.0000
     1.0000   1.0000   1.0000   1.0000   1.0000   1.0000   1.0000   1.0000
     1.0000   1.0000   1.0000   1.0000   1.0000   1.0000   1.0000   1.0000
     1.0000   1.0000   1.0000   1.0000   1.0000   1.0000   1.0000   1.0000
     1.0000   1.0000   1.0000   1.0000   1.0000   1.0000   1.0000   1.0000
     1.0000   1.0000   1.0000   0.0000   0.0000   0.0000   0.0000   0.0000
     0.0000   0.0000   0.0000   0.0000   0.0000   0.0000   0.0000   0.0000
     0.0000   0.0000   0.0000   0.0000   0.0000   0.0000   0.0000   0.0000
     0.0000   0.0000   0.0000   0.0000   0.0000

          k = 0.1667 0.0000 0.2050 ( 25826 PWs)   bands (ev):

   -77.9226 -67.4980 -67.4753 -67.3560 -66.9186 -66.8968 -44.0825 -44.0570
   -43.9759 -34.2702 -34.2452 -34.2424 -34.2332 -34.2289 -34.2147 -34.1181
   -34.1168 -34.0908 -33.6944 -33.6735 -33.6689 -33.6577 -33.6524 -33.6149
   -22.9317 -22.8841 -14.9524 -14.9329 -14.0914 -14.0678 -13.6797 -13.6564
   -13.2767 -13.1846 -13.1165 -13.0009 -12.8225 -12.7963 -12.7727 -12.7469
   -12.6678 -12.6078 -12.4705 -12.4147 -12.2833 -12.2438 -12.1400 -12.0363
   -11.1292 -10.8898  -6.5022  -6.4576  -6.4293  -6.4187  -6.3712  -6.3602
    -4.0471  -3.9826  -2.2926  -2.2346  -1.7136  -1.4074  -1.3037  -1.2388
    -0.8219  -0.7295  -0.5920  -0.5473  -0.4181  -0.2768  -0.2331  -0.2024
     0.0986   0.2016   0.2270   0.4509   0.5680   0.6763   0.7197   0.8729
     1.1645   1.2021   1.2936   1.3702   1.4230   1.5187   1.6113   1.6973
     1.7987   1.9594   2.0412   2.0682   2.2337   2.3164   2.3517   2.3979
     2.4600   2.5227   2.6145   2.6539   2.6803   2.7798   2.8332   2.8580
     2.9467   3.0408   3.1305   3.1550   3.2021   3.2543   3.2903   3.3703
     3.4245   3.5060   3.5327   3.6615   3.6862   3.7384   3.8158   3.8416
     3.8895   3.9161   3.9395   4.0170   4.0433   4.2786   4.4312   4.5292
     8.2481   8.3215   8.4234   9.7448   9.7857   9.9486  10.3956  11.4988
    11.8325  11.9706  12.2873  12.3642  12.5666  12.9088  13.0942  13.2119
    13.2961  13.3907  13.4289  13.4935  13.5793  13.6762  13.8246  13.8667
    13.9267  14.0151  14.1882  14.4018  14.4554

     occupation numbers 
     1.0000   1.0000   1.0000   1.0000   1.0000   1.0000   1.0000   1.0000
     1.0000   1.0000   1.0000   1.0000   1.0000   1.0000   1.0000   1.0000
     1.0000   1.0000   1.0000   1.0000   1.0000   1.0000   1.0000   1.0000
     1.0000   1.0000   1.0000   1.0000   1.0000   1.0000   1.0000   1.0000
     1.0000   1.0000   1.0000   1.0000   1.0000   1.0000   1.0000   1.0000
     1.0000   1.0000   1.0000   1.0000   1.0000   1.0000   1.0000   1.0000
     1.0000   1.0000   1.0000   1.0000   1.0000   1.0000   1.0000   1.0000
     1.0000   1.0000   1.0000   1.0000   1.0000   1.0000   1.0000   1.0000
     1.0000   1.0000   1.0000   1.0000   1.0000   1.0000   1.0000   1.0000
     1.0000   1.0000   1.0000   1.0000   1.0000   1.0000   1.0000   1.0000
     1.0000   1.0000   1.0000   1.0000   1.0000   1.0000   1.0000   1.0000
     1.0000   1.0000   1.0000   1.0000   1.0000   1.0000   1.0000   1.0000
     1.0000   1.0000   1.0000   1.0000   1.0000   1.0000   1.0000   1.0000
     1.0000   1.0000   1.0000   1.0000   1.0000   1.0000   1.0000   1.0000
     1.0000   1.0000   1.0000   1.0000   1.0000   1.0000   1.0000   1.0000
     1.0000   1.0000   1.0000   1.0000   1.0000   1.0000   1.0000   1.0000
     1.0000   1.0000   1.0000   0.0000   0.0000   0.0000   0.0000   0.0000
     0.0000   0.0000   0.0000   0.0000   0.0000   0.0000   0.0000   0.0000
     0.0000   0.0000   0.0000   0.0000   0.0000   0.0000   0.0000   0.0000
     0.0000   0.0000   0.0000   0.0000   0.0000

          k = 0.1667 0.0000-0.1461 ( 25786 PWs)   bands (ev):

   -77.9226 -67.4980 -67.4753 -67.3560 -66.9186 -66.8968 -44.0825 -44.0570
   -43.9759 -34.2702 -34.2452 -34.2424 -34.2332 -34.2288 -34.2147 -34.1181
   -34.1168 -34.0908 -33.6944 -33.6735 -33.6688 -33.6577 -33.6524 -33.6148
   -22.9317 -22.8841 -14.9593 -14.9257 -14.0920 -14.0672 -13.6785 -13.6576
   -13.2800 -13.1749 -13.1244 -13.0012 -12.8228 -12.7960 -12.7711 -12.7448
   -12.6707 -12.6085 -12.4654 -12.4193 -12.2689 -12.2591 -12.1393 -12.0351
   -11.1290 -10.8897  -6.5023  -6.4576  -6.4293  -6.4187  -6.3712  -6.3602
    -4.0307  -3.9994  -2.2888  -2.2367  -1.7272  -1.4062  -1.2967  -1.2473
    -0.8057  -0.7507  -0.5616  -0.5368  -0.4395  -0.2766  -0.2578  -0.1665
     0.0629   0.2097   0.2327   0.4610   0.5997   0.7019   0.7376   0.8625
     1.1125   1.1862   1.2814   1.3678   1.4476   1.5445   1.6180   1.6421
     1.8120   1.9486   2.0266   2.0803   2.1544   2.2898   2.3770   2.4022
     2.4438   2.5410   2.6102   2.6664   2.7449   2.7819   2.8328   2.8905
     2.9453   3.0294   3.1364   3.1831   3.2145   3.2565   3.2923   3.3883
     3.4321   3.5021   3.5605   3.6233   3.6510   3.7434   3.7684   3.8133
     3.8919   3.9414   3.9668   3.9988   4.0436   4.2782   4.4300   4.5320
     8.2457   8.3214   8.4249   9.6722   9.7461   9.9061  10.5917  11.5787
    11.8727  11.9279  12.3235  12.3441  12.6146  12.9449  13.0138  13.1502
    13.2118  13.3125  13.3946  13.5193  13.5630  13.7107  13.7724  13.8474
    13.9543  14.1559  14.2346  14.3648  14.4572

     occupation numbers 
     1.0000   1.0000   1.0000   1.0000   1.0000   1.0000   1.0000   1.0000
     1.0000   1.0000   1.0000   1.0000   1.0000   1.0000   1.0000   1.0000
     1.0000   1.0000   1.0000   1.0000   1.0000   1.0000   1.0000   1.0000
     1.0000   1.0000   1.0000   1.0000   1.0000   1.0000   1.0000   1.0000
     1.0000   1.0000   1.0000   1.0000   1.0000   1.0000   1.0000   1.0000
     1.0000   1.0000   1.0000   1.0000   1.0000   1.0000   1.0000   1.0000
     1.0000   1.0000   1.0000   1.0000   1.0000   1.0000   1.0000   1.0000
     1.0000   1.0000   1.0000   1.0000   1.0000   1.0000   1.0000   1.0000
     1.0000   1.0000   1.0000   1.0000   1.0000   1.0000   1.0000   1.0000
     1.0000   1.0000   1.0000   1.0000   1.0000   1.0000   1.0000   1.0000
     1.0000   1.0000   1.0000   1.0000   1.0000   1.0000   1.0000   1.0000
     1.0000   1.0000   1.0000   1.0000   1.0000   1.0000   1.0000   1.0000
     1.0000   1.0000   1.0000   1.0000   1.0000   1.0000   1.0000   1.0000
     1.0000   1.0000   1.0000   1.0000   1.0000   1.0000   1.0000   1.0000
     1.0000   1.0000   1.0000   1.0000   1.0000   1.0000   1.0000   1.0000
     1.0000   1.0000   1.0000   1.0000   1.0000   1.0000   1.0000   1.0000
     1.0000   1.0000   1.0000   0.0000   0.0000   0.0000   0.0000   0.0000
     0.0000   0.0000   0.0000   0.0000   0.0000   0.0000   0.0000   0.0000
     0.0000   0.0000   0.0000   0.0000   0.0000   0.0000   0.0000   0.0000
     0.0000   0.0000   0.0000   0.0000   0.0000

          k = 0.1667 0.1919 0.0295 ( 25796 PWs)   bands (ev):

   -77.9226 -67.4980 -67.4753 -67.3560 -66.9186 -66.8968 -44.0825 -44.0570
   -43.9759 -34.2702 -34.2451 -34.2424 -34.2332 -34.2289 -34.2147 -34.1181
   -34.1168 -34.0908 -33.6944 -33.6735 -33.6688 -33.6577 -33.6524 -33.6149
   -22.9317 -22.8841 -14.9637 -14.9109 -14.1317 -14.0844 -13.6707 -13.6428
   -13.2253 -13.1342 -13.0738 -13.0101 -12.8737 -12.8569 -12.7790 -12.7483
   -12.6932 -12.6026 -12.4695 -12.3975 -12.2828 -12.2395 -12.1478 -12.0258
   -11.1285 -10.8887  -6.5009  -6.4593  -6.4293  -6.4178  -6.3716  -6.3607
    -4.0106  -3.9481  -2.4658  -2.3603  -1.6752  -1.3282  -1.2318  -1.1941
    -0.8162  -0.7328  -0.6804  -0.5022  -0.4164  -0.2210  -0.1940  -0.0629
     0.0408   0.1751   0.2389   0.4969   0.5496   0.6784   0.7113   0.7996
     1.1063   1.1364   1.3046   1.3612   1.4011   1.4930   1.6136   1.7019
     1.8085   1.9451   1.9714   2.1218   2.1957   2.2957   2.3654   2.4158
     2.5027   2.5508   2.5972   2.7434   2.7855   2.8000   2.8615   2.9158
     2.9898   3.0566   3.1383   3.1544   3.2091   3.2542   3.3127   3.3764
     3.4075   3.4471   3.4850   3.6202   3.6567   3.6858   3.7964   3.8462
     3.8669   3.9164   3.9825   4.0346   4.0672   4.2112   4.3240   4.5158
     8.2458   8.3337   8.4228   9.7103   9.8309   9.9219  10.7513  11.1211
    11.6641  11.9960  12.3676  12.6551  12.7185  12.8648  13.0632  13.1430
    13.2041  13.3383  13.3729  13.4771  13.5316  13.6155  13.7188  13.8115
    13.9818  14.0688  14.3209  14.4657  14.6230

     occupation numbers 
     1.0000   1.0000   1.0000   1.0000   1.0000   1.0000   1.0000   1.0000
     1.0000   1.0000   1.0000   1.0000   1.0000   1.0000   1.0000   1.0000
     1.0000   1.0000   1.0000   1.0000   1.0000   1.0000   1.0000   1.0000
     1.0000   1.0000   1.0000   1.0000   1.0000   1.0000   1.0000   1.0000
     1.0000   1.0000   1.0000   1.0000   1.0000   1.0000   1.0000   1.0000
     1.0000   1.0000   1.0000   1.0000   1.0000   1.0000   1.0000   1.0000
     1.0000   1.0000   1.0000   1.0000   1.0000   1.0000   1.0000   1.0000
     1.0000   1.0000   1.0000   1.0000   1.0000   1.0000   1.0000   1.0000
     1.0000   1.0000   1.0000   1.0000   1.0000   1.0000   1.0000   1.0000
     1.0000   1.0000   1.0000   1.0000   1.0000   1.0000   1.0000   1.0000
     1.0000   1.0000   1.0000   1.0000   1.0000   1.0000   1.0000   1.0000
     1.0000   1.0000   1.0000   1.0000   1.0000   1.0000   1.0000   1.0000
     1.0000   1.0000   1.0000   1.0000   1.0000   1.0000   1.0000   1.0000
     1.0000   1.0000   1.0000   1.0000   1.0000   1.0000   1.0000   1.0000
     1.0000   1.0000   1.0000   1.0000   1.0000   1.0000   1.0000   1.0000
     1.0000   1.0000   1.0000   1.0000   1.0000   1.0000   1.0000   1.0000
     1.0000   1.0000   1.0000   0.0000   0.0000   0.0000   0.0000   0.0000
     0.0000   0.0000   0.0000   0.0000   0.0000   0.0000   0.0000   0.0000
     0.0000   0.0000   0.0000   0.0000   0.0000   0.0000   0.0000   0.0000
     0.0000   0.0000   0.0000   0.0000   0.0000

          k = 0.1667 0.1919 0.2050 ( 25776 PWs)   bands (ev):

   -77.9226 -67.4980 -67.4753 -67.3560 -66.9186 -66.8968 -44.0825 -44.0570
   -43.9759 -34.2702 -34.2451 -34.2424 -34.2332 -34.2289 -34.2147 -34.1181
   -34.1168 -34.0908 -33.6944 -33.6735 -33.6688 -33.6577 -33.6524 -33.6149
   -22.9317 -22.8841 -14.9475 -14.9281 -14.1194 -14.0976 -13.6687 -13.6447
   -13.2175 -13.1307 -13.0913 -12.9978 -12.8915 -12.8420 -12.7778 -12.7488
   -12.6912 -12.6070 -12.4651 -12.4027 -12.2801 -12.2427 -12.1379 -12.0342
   -11.1280 -10.8894  -6.5009  -6.4594  -6.4293  -6.4177  -6.3715  -6.3606
    -4.0090  -3.9499  -2.4401  -2.3890  -1.6471  -1.3170  -1.2523  -1.1744
    -0.8202  -0.7298  -0.6769  -0.5039  -0.4237  -0.2754  -0.1732  -0.1183
     0.0783   0.1549   0.2326   0.4546   0.5328   0.6618   0.7065   0.8384
     1.0992   1.1488   1.2824   1.4048   1.4492   1.5468   1.6365   1.7532
     1.8518   1.8969   1.9646   2.1070   2.2185   2.3235   2.3812   2.4255
     2.4806   2.5599   2.5838   2.7020   2.7320   2.7860   2.8616   2.8999
     2.9412   3.0647   3.1036   3.1795   3.2111   3.2457   3.3069   3.3231
     3.4057   3.4616   3.5734   3.6243   3.6551   3.7121   3.7688   3.8491
     3.8594   3.9002   3.9539   4.0030   4.0727   4.2556   4.3402   4.5285
     8.2481   8.3327   8.4213   9.6936   9.8518  10.2011  10.6817  10.9463
    11.3715  11.9642  12.3374  12.6425  12.7950  12.9143  13.1171  13.2670
    13.3068  13.3574  13.4332  13.4579  13.5880  13.6647  13.7278  13.8227
    13.9356  14.0642  14.2343  14.3511  14.5979

     occupation numbers 
     1.0000   1.0000   1.0000   1.0000   1.0000   1.0000   1.0000   1.0000
     1.0000   1.0000   1.0000   1.0000   1.0000   1.0000   1.0000   1.0000
     1.0000   1.0000   1.0000   1.0000   1.0000   1.0000   1.0000   1.0000
     1.0000   1.0000   1.0000   1.0000   1.0000   1.0000   1.0000   1.0000
     1.0000   1.0000   1.0000   1.0000   1.0000   1.0000   1.0000   1.0000
     1.0000   1.0000   1.0000   1.0000   1.0000   1.0000   1.0000   1.0000
     1.0000   1.0000   1.0000   1.0000   1.0000   1.0000   1.0000   1.0000
     1.0000   1.0000   1.0000   1.0000   1.0000   1.0000   1.0000   1.0000
     1.0000   1.0000   1.0000   1.0000   1.0000   1.0000   1.0000   1.0000
     1.0000   1.0000   1.0000   1.0000   1.0000   1.0000   1.0000   1.0000
     1.0000   1.0000   1.0000   1.0000   1.0000   1.0000   1.0000   1.0000
     1.0000   1.0000   1.0000   1.0000   1.0000   1.0000   1.0000   1.0000
     1.0000   1.0000   1.0000   1.0000   1.0000   1.0000   1.0000   1.0000
     1.0000   1.0000   1.0000   1.0000   1.0000   1.0000   1.0000   1.0000
     1.0000   1.0000   1.0000   1.0000   1.0000   1.0000   1.0000   1.0000
     1.0000   1.0000   1.0000   1.0000   1.0000   1.0000   1.0000   1.0000
     1.0000   1.0000   1.0000   0.0000   0.0000   0.0000   0.0000   0.0000
     0.0000   0.0000   0.0000   0.0000   0.0000   0.0000   0.0000   0.0000
     0.0000   0.0000   0.0000   0.0000   0.0000   0.0000   0.0000   0.0000
     0.0000   0.0000   0.0000   0.0000   0.0000

          k = 0.1667 0.1919-0.1461 ( 25782 PWs)   bands (ev):

   -77.9226 -67.4980 -67.4753 -67.3560 -66.9186 -66.8968 -44.0825 -44.0570
   -43.9759 -34.2702 -34.2451 -34.2424 -34.2332 -34.2289 -34.2147 -34.1181
   -34.1168 -34.0908 -33.6944 -33.6734 -33.6688 -33.6577 -33.6524 -33.6149
   -22.9317 -22.8841 -14.9544 -14.9209 -14.1217 -14.0951 -13.6661 -13.6475
   -13.2197 -13.1307 -13.0860 -13.0030 -12.8899 -12.8417 -12.7812 -12.7472
   -12.6912 -12.6067 -12.4592 -12.4077 -12.2661 -12.2579 -12.1371 -12.0333
   -11.1278 -10.8894  -6.5010  -6.4594  -6.4293  -6.4177  -6.3715  -6.3607
    -3.9937  -3.9656  -2.4415  -2.3870  -1.6572  -1.3210  -1.2553  -1.1706
    -0.7987  -0.7529  -0.6444  -0.5110  -0.4496  -0.2426  -0.1887  -0.1052
     0.0450   0.1732   0.2132   0.4840   0.5580   0.6620   0.7412   0.8362
     1.0945   1.1042   1.2736   1.3821   1.4611   1.5441   1.6413   1.7298
     1.8190   1.9125   1.9599   2.1363   2.2107   2.2783   2.3690   2.4233
     2.5009   2.5288   2.6009   2.7201   2.7741   2.8061   2.8394   2.9027
     2.9477   3.0752   3.1141   3.1835   3.2312   3.2371   3.3078   3.3593
     3.4389   3.4804   3.5124   3.6078   3.6781   3.7035   3.7446   3.8169
     3.8692   3.9109   3.9608   4.0070   4.0425   4.2665   4.3311   4.5251
     8.2458   8.3330   8.4238   9.6721   9.8212  10.1452  10.8248  10.9285
    11.4376  12.0366  12.3837  12.6409  12.7245  12.8925  13.0747  13.1881
    13.2694  13.3261  13.4232  13.5069  13.5776  13.6409  13.6730  13.9320
    13.9499  14.0193  14.1990  14.3870  14.5571

     occupation numbers 
     1.0000   1.0000   1.0000   1.0000   1.0000   1.0000   1.0000   1.0000
     1.0000   1.0000   1.0000   1.0000   1.0000   1.0000   1.0000   1.0000
     1.0000   1.0000   1.0000   1.0000   1.0000   1.0000   1.0000   1.0000
     1.0000   1.0000   1.0000   1.0000   1.0000   1.0000   1.0000   1.0000
     1.0000   1.0000   1.0000   1.0000   1.0000   1.0000   1.0000   1.0000
     1.0000   1.0000   1.0000   1.0000   1.0000   1.0000   1.0000   1.0000
     1.0000   1.0000   1.0000   1.0000   1.0000   1.0000   1.0000   1.0000
     1.0000   1.0000   1.0000   1.0000   1.0000   1.0000   1.0000   1.0000
     1.0000   1.0000   1.0000   1.0000   1.0000   1.0000   1.0000   1.0000
     1.0000   1.0000   1.0000   1.0000   1.0000   1.0000   1.0000   1.0000
     1.0000   1.0000   1.0000   1.0000   1.0000   1.0000   1.0000   1.0000
     1.0000   1.0000   1.0000   1.0000   1.0000   1.0000   1.0000   1.0000
     1.0000   1.0000   1.0000   1.0000   1.0000   1.0000   1.0000   1.0000
     1.0000   1.0000   1.0000   1.0000   1.0000   1.0000   1.0000   1.0000
     1.0000   1.0000   1.0000   1.0000   1.0000   1.0000   1.0000   1.0000
     1.0000   1.0000   1.0000   1.0000   1.0000   1.0000   1.0000   1.0000
     1.0000   1.0000   1.0000   0.0000   0.0000   0.0000   0.0000   0.0000
     0.0000   0.0000   0.0000   0.0000   0.0000   0.0000   0.0000   0.0000
     0.0000   0.0000   0.0000   0.0000   0.0000   0.0000   0.0000   0.0000
     0.0000   0.0000   0.0000   0.0000   0.0000

          k = 0.3333 0.0000 0.0589 ( 25772 PWs)   bands (ev):

   -77.9226 -67.4979 -67.4753 -67.3560 -66.9186 -66.8968 -44.0825 -44.0570
   -43.9759 -34.2696 -34.2469 -34.2417 -34.2321 -34.2292 -34.2150 -34.1181
   -34.1167 -34.0908 -33.6946 -33.6740 -33.6660 -33.6591 -33.6528 -33.6151
   -22.9314 -22.8838 -14.8067 -14.7574 -14.2277 -14.1890 -13.7999 -13.7635
   -13.1742 -13.0596 -13.0051 -12.9671 -12.8919 -12.8271 -12.7819 -12.7601
   -12.6820 -12.6078 -12.5178 -12.4522 -12.3745 -12.3048 -12.1340 -12.0178
   -11.1237 -10.8982  -6.5033  -6.4654  -6.4264  -6.4162  -6.3710  -6.3520
    -3.6365  -3.5653  -2.4536  -2.3418  -1.7341  -1.5778  -1.3293  -1.1678
    -0.7686  -0.7093  -0.6365  -0.6039  -0.3294  -0.2253  -0.1500  -0.0840
    -0.0495   0.1834   0.3196   0.4813   0.5712   0.6893   0.7274   0.7609
     1.0387   1.1868   1.2536   1.3068   1.4721   1.5112   1.5882   1.6417
     1.6867   1.7285   1.8665   2.0251   2.1336   2.3475   2.4022   2.4381
     2.5038   2.6035   2.7373   2.7700   2.7829   2.8292   2.8600   2.9352
     2.9724   3.0130   3.0730   3.1471   3.2043   3.2389   3.2774   3.3218
     3.4293   3.4502   3.5014   3.5950   3.6578   3.6976   3.7118   3.7913
     3.8254   3.8674   3.9524   4.0247   4.0912   4.1145   4.3243   4.4734
     8.2470   8.3260   8.3776   9.7737   9.8235  10.3135  11.3133  11.5850
    11.9878  12.1240  12.2763  12.3128  12.7304  12.7677  12.7896  13.0581
    13.2009  13.2675  13.4883  13.5606  13.5968  13.6407  13.8136  13.9903
    14.0622  14.2612  14.2992  14.3691  14.4969

     occupation numbers 
     1.0000   1.0000   1.0000   1.0000   1.0000   1.0000   1.0000   1.0000
     1.0000   1.0000   1.0000   1.0000   1.0000   1.0000   1.0000   1.0000
     1.0000   1.0000   1.0000   1.0000   1.0000   1.0000   1.0000   1.0000
     1.0000   1.0000   1.0000   1.0000   1.0000   1.0000   1.0000   1.0000
     1.0000   1.0000   1.0000   1.0000   1.0000   1.0000   1.0000   1.0000
     1.0000   1.0000   1.0000   1.0000   1.0000   1.0000   1.0000   1.0000
     1.0000   1.0000   1.0000   1.0000   1.0000   1.0000   1.0000   1.0000
     1.0000   1.0000   1.0000   1.0000   1.0000   1.0000   1.0000   1.0000
     1.0000   1.0000   1.0000   1.0000   1.0000   1.0000   1.0000   1.0000
     1.0000   1.0000   1.0000   1.0000   1.0000   1.0000   1.0000   1.0000
     1.0000   1.0000   1.0000   1.0000   1.0000   1.0000   1.0000   1.0000
     1.0000   1.0000   1.0000   1.0000   1.0000   1.0000   1.0000   1.0000
     1.0000   1.0000   1.0000   1.0000   1.0000   1.0000   1.0000   1.0000
     1.0000   1.0000   1.0000   1.0000   1.0000   1.0000   1.0000   1.0000
     1.0000   1.0000   1.0000   1.0000   1.0000   1.0000   1.0000   1.0000
     1.0000   1.0000   1.0000   1.0000   1.0000   1.0000   1.0000   1.0000
     1.0000   1.0000   1.0000   0.0000   0.0000   0.0000   0.0000   0.0000
     0.0000   0.0000   0.0000   0.0000   0.0000   0.0000   0.0000   0.0000
     0.0000   0.0000   0.0000   0.0000   0.0000   0.0000   0.0000   0.0000
     0.0000   0.0000   0.0000   0.0000   0.0000

          k = 0.3333 0.0000 0.2345 ( 25788 PWs)   bands (ev):

   -77.9226 -67.4979 -67.4753 -67.3560 -66.9186 -66.8968 -44.0825 -44.0570
   -43.9759 -34.2696 -34.2469 -34.2417 -34.2321 -34.2292 -34.2150 -34.1181
   -34.1167 -34.0908 -33.6946 -33.6740 -33.6660 -33.6591 -33.6528 -33.6151
   -22.9314 -22.8838 -14.7885 -14.7764 -14.2255 -14.1913 -13.7929 -13.7710
   -13.1650 -13.0709 -13.0067 -12.9629 -12.8879 -12.8239 -12.7959 -12.7525
   -12.6824 -12.6092 -12.5122 -12.4596 -12.3595 -12.3176 -12.1237 -12.0270
   -11.1228 -10.8992  -6.5034  -6.4655  -6.4263  -6.4162  -6.3709  -6.3520
    -3.6385  -3.5633  -2.4272  -2.3716  -1.7059  -1.6145  -1.3009  -1.1559
    -0.7680  -0.7137  -0.6448  -0.5846  -0.3017  -0.2227  -0.1983  -0.1567
    -0.0016   0.1391   0.3252   0.4501   0.5783   0.6660   0.7194   0.8118
     1.0723   1.1973   1.2349   1.3253   1.3936   1.5630   1.6337   1.6476
     1.7115   1.7612   1.8191   2.0943   2.1689   2.2874   2.4156   2.4636
     2.4858   2.5273   2.7131   2.7540   2.8246   2.8361   2.8799   2.8910
     2.9540   2.9771   3.0453   3.1462   3.1815   3.2520   3.3239   3.3790
     3.4315   3.4522   3.5355   3.5764   3.6417   3.7000   3.7275   3.7436
     3.8340   3.8751   3.9234   3.9742   4.0663   4.1899   4.3290   4.4958
     8.2469   8.3239   8.3782   9.7675   9.8073  10.6596  10.8798  11.6195
    12.0162  12.0631  12.2537  12.3858  12.6637  12.7104  12.8111  12.9568
    13.3066  13.3583  13.4913  13.5210  13.6379  13.6614  13.8942  14.0084
    14.0627  14.0888  14.1248  14.4911  14.6638

     occupation numbers 
     1.0000   1.0000   1.0000   1.0000   1.0000   1.0000   1.0000   1.0000
     1.0000   1.0000   1.0000   1.0000   1.0000   1.0000   1.0000   1.0000
     1.0000   1.0000   1.0000   1.0000   1.0000   1.0000   1.0000   1.0000
     1.0000   1.0000   1.0000   1.0000   1.0000   1.0000   1.0000   1.0000
     1.0000   1.0000   1.0000   1.0000   1.0000   1.0000   1.0000   1.0000
     1.0000   1.0000   1.0000   1.0000   1.0000   1.0000   1.0000   1.0000
     1.0000   1.0000   1.0000   1.0000   1.0000   1.0000   1.0000   1.0000
     1.0000   1.0000   1.0000   1.0000   1.0000   1.0000   1.0000   1.0000
     1.0000   1.0000   1.0000   1.0000   1.0000   1.0000   1.0000   1.0000
     1.0000   1.0000   1.0000   1.0000   1.0000   1.0000   1.0000   1.0000
     1.0000   1.0000   1.0000   1.0000   1.0000   1.0000   1.0000   1.0000
     1.0000   1.0000   1.0000   1.0000   1.0000   1.0000   1.0000   1.0000
     1.0000   1.0000   1.0000   1.0000   1.0000   1.0000   1.0000   1.0000
     1.0000   1.0000   1.0000   1.0000   1.0000   1.0000   1.0000   1.0000
     1.0000   1.0000   1.0000   1.0000   1.0000   1.0000   1.0000   1.0000
     1.0000   1.0000   1.0000   1.0000   1.0000   1.0000   1.0000   1.0000
     1.0000   1.0000   1.0000   0.0000   0.0000   0.0000   0.0000   0.0000
     0.0000   0.0000   0.0000   0.0000   0.0000   0.0000   0.0000   0.0000
     0.0000   0.0000   0.0000   0.0000   0.0000   0.0000   0.0000   0.0000
     0.0000   0.0000   0.0000   0.0000   0.0000

          k = 0.3333 0.0000-0.1166 ( 25772 PWs)   bands (ev):

   -77.9226 -67.4979 -67.4753 -67.3560 -66.9186 -66.8968 -44.0824 -44.0570
   -43.9759 -34.2696 -34.2469 -34.2417 -34.2321 -34.2292 -34.2150 -34.1181
   -34.1167 -34.0908 -33.6946 -33.6740 -33.6660 -33.6591 -33.6528 -33.6151
   -22.9314 -22.8838 -14.8010 -14.7634 -14.2193 -14.1978 -13.7942 -13.7697
   -13.1706 -13.0542 -13.0208 -12.9627 -12.8856 -12.8330 -12.7869 -12.7506
   -12.6819 -12.6120 -12.5071 -12.4652 -12.3556 -12.3207 -12.1247 -12.0255
   -11.1227 -10.8991  -6.5034  -6.4655  -6.4263  -6.4162  -6.3709  -6.3520
    -3.6049  -3.5978  -2.4428  -2.3550  -1.7183  -1.5964  -1.3211  -1.1630
    -0.7531  -0.6976  -0.6440  -0.5842  -0.3383  -0.2202  -0.1713  -0.1297
    -0.0573   0.1541   0.3557   0.4430   0.5971   0.6778   0.7521   0.7763
     1.0725   1.1538   1.2595   1.3626   1.3933   1.5339   1.5941   1.6614
     1.6867   1.7143   1.8858   2.0465   2.1237   2.3136   2.4018   2.4156
     2.4951   2.6023   2.7320   2.7846   2.7891   2.8448   2.8631   2.9102
     2.9834   2.9968   3.0281   3.1493   3.2103   3.2743   3.3437   3.3583
     3.4183   3.4342   3.5666   3.6169   3.6524   3.6717   3.6965   3.7224
     3.8047   3.8732   3.9283   3.9424   4.0974   4.1739   4.3324   4.4970
     8.2447   8.3241   8.3792   9.7662   9.8219  10.3817  11.1941  11.7115
    11.9734  12.1149  12.2724  12.4184  12.6451  12.7042  12.8839  12.9330
    13.1780  13.3185  13.4153  13.5515  13.6273  13.6808  13.7171  13.9631
    14.0978  14.1948  14.2696  14.4680  14.5629

     occupation numbers 
     1.0000   1.0000   1.0000   1.0000   1.0000   1.0000   1.0000   1.0000
     1.0000   1.0000   1.0000   1.0000   1.0000   1.0000   1.0000   1.0000
     1.0000   1.0000   1.0000   1.0000   1.0000   1.0000   1.0000   1.0000
     1.0000   1.0000   1.0000   1.0000   1.0000   1.0000   1.0000   1.0000
     1.0000   1.0000   1.0000   1.0000   1.0000   1.0000   1.0000   1.0000
     1.0000   1.0000   1.0000   1.0000   1.0000   1.0000   1.0000   1.0000
     1.0000   1.0000   1.0000   1.0000   1.0000   1.0000   1.0000   1.0000
     1.0000   1.0000   1.0000   1.0000   1.0000   1.0000   1.0000   1.0000
     1.0000   1.0000   1.0000   1.0000   1.0000   1.0000   1.0000   1.0000
     1.0000   1.0000   1.0000   1.0000   1.0000   1.0000   1.0000   1.0000
     1.0000   1.0000   1.0000   1.0000   1.0000   1.0000   1.0000   1.0000
     1.0000   1.0000   1.0000   1.0000   1.0000   1.0000   1.0000   1.0000
     1.0000   1.0000   1.0000   1.0000   1.0000   1.0000   1.0000   1.0000
     1.0000   1.0000   1.0000   1.0000   1.0000   1.0000   1.0000   1.0000
     1.0000   1.0000   1.0000   1.0000   1.0000   1.0000   1.0000   1.0000
     1.0000   1.0000   1.0000   1.0000   1.0000   1.0000   1.0000   1.0000
     1.0000   1.0000   1.0000   0.0000   0.0000   0.0000   0.0000   0.0000
     0.0000   0.0000   0.0000   0.0000   0.0000   0.0000   0.0000   0.0000
     0.0000   0.0000   0.0000   0.0000   0.0000   0.0000   0.0000   0.0000
     0.0000   0.0000   0.0000   0.0000   0.0000

          k = 0.3333 0.1919 0.0589 ( 25803 PWs)   bands (ev):

   -77.9226 -67.4979 -67.4753 -67.3560 -66.9186 -66.8968 -44.0825 -44.0570
   -43.9759 -34.2696 -34.2469 -34.2417 -34.2321 -34.2292 -34.2150 -34.1181
   -34.1167 -34.0908 -33.6946 -33.6740 -33.6660 -33.6591 -33.6528 -33.6151
   -22.9314 -22.8838 -14.8030 -14.7536 -14.2395 -14.1989 -13.7964 -13.7628
   -13.1374 -13.0721 -12.9866 -12.9433 -12.8922 -12.8494 -12.8112 -12.7770
   -12.6834 -12.6122 -12.5127 -12.4354 -12.3731 -12.3122 -12.1329 -12.0174
   -11.1231 -10.8982  -6.5031  -6.4669  -6.4266  -6.4156  -6.3705  -6.3522
    -3.6152  -3.5439  -2.5531  -2.4517  -1.6538  -1.4721  -1.2839  -1.1890
    -0.7888  -0.7291  -0.6305  -0.5632  -0.3283  -0.1970  -0.1485  -0.0670
     0.0008   0.1521   0.3104   0.4778   0.5610   0.6518   0.7073   0.7180
     1.0167   1.0926   1.3124   1.3690   1.4277   1.5348   1.5940   1.6345
     1.6918   1.7439   1.8570   1.9887   2.1556   2.3060   2.4026   2.4557
     2.5158   2.6366   2.6744   2.7305   2.7803   2.8780   2.9244   2.9557
     2.9890   3.0307   3.1356   3.1558   3.2148   3.2493   3.2670   3.3514
     3.4096   3.4652   3.5008   3.5634   3.6210   3.6448   3.6835   3.7312
     3.8478   3.9056   3.9570   4.0373   4.0649   4.1656   4.2569   4.4500
     8.2469   8.3359   8.3760   9.7405   9.8438  10.5621  11.1707  11.4967
    11.9070  11.9945  12.1927  12.5366  12.5984  12.7698  12.8937  13.1078
    13.2030  13.2895  13.4519  13.4871  13.5846  13.6753  13.8304  13.9536
    14.1706  14.3051  14.3462  14.4216  14.5238

     occupation numbers 
     1.0000   1.0000   1.0000   1.0000   1.0000   1.0000   1.0000   1.0000
     1.0000   1.0000   1.0000   1.0000   1.0000   1.0000   1.0000   1.0000
     1.0000   1.0000   1.0000   1.0000   1.0000   1.0000   1.0000   1.0000
     1.0000   1.0000   1.0000   1.0000   1.0000   1.0000   1.0000   1.0000
     1.0000   1.0000   1.0000   1.0000   1.0000   1.0000   1.0000   1.0000
     1.0000   1.0000   1.0000   1.0000   1.0000   1.0000   1.0000   1.0000
     1.0000   1.0000   1.0000   1.0000   1.0000   1.0000   1.0000   1.0000
     1.0000   1.0000   1.0000   1.0000   1.0000   1.0000   1.0000   1.0000
     1.0000   1.0000   1.0000   1.0000   1.0000   1.0000   1.0000   1.0000
     1.0000   1.0000   1.0000   1.0000   1.0000   1.0000   1.0000   1.0000
     1.0000   1.0000   1.0000   1.0000   1.0000   1.0000   1.0000   1.0000
     1.0000   1.0000   1.0000   1.0000   1.0000   1.0000   1.0000   1.0000
     1.0000   1.0000   1.0000   1.0000   1.0000   1.0000   1.0000   1.0000
     1.0000   1.0000   1.0000   1.0000   1.0000   1.0000   1.0000   1.0000
     1.0000   1.0000   1.0000   1.0000   1.0000   1.0000   1.0000   1.0000
     1.0000   1.0000   1.0000   1.0000   1.0000   1.0000   1.0000   1.0000
     1.0000   1.0000   1.0000   0.0000   0.0000   0.0000   0.0000   0.0000
     0.0000   0.0000   0.0000   0.0000   0.0000   0.0000   0.0000   0.0000
     0.0000   0.0000   0.0000   0.0000   0.0000   0.0000   0.0000   0.0000
     0.0000   0.0000   0.0000   0.0000   0.0000

          k = 0.3333 0.1919 0.2345 ( 25763 PWs)   bands (ev):

   -77.9226 -67.4979 -67.4753 -67.3560 -66.9186 -66.8968 -44.0825 -44.0570
   -43.9759 -34.2696 -34.2469 -34.2417 -34.2321 -34.2291 -34.2150 -34.1181
   -34.1167 -34.0908 -33.6946 -33.6740 -33.6660 -33.6591 -33.6528 -33.6151
   -22.9314 -22.8838 -14.7851 -14.7723 -14.2352 -14.2034 -13.7900 -13.7697
   -13.1299 -13.0693 -13.0027 -12.9357 -12.8924 -12.8523 -12.8117 -12.7717
   -12.6829 -12.6155 -12.5060 -12.4459 -12.3606 -12.3215 -12.1226 -12.0264
   -11.1223 -10.8991  -6.5032  -6.4670  -6.4265  -6.4155  -6.3704  -6.3521
    -3.6144  -3.5445  -2.5180  -2.4905  -1.6346  -1.4988  -1.2625  -1.1727
    -0.7776  -0.7534  -0.5984  -0.5734  -0.3028  -0.2488  -0.1598  -0.0826
     0.0128   0.1118   0.3415   0.4318   0.5513   0.6343   0.7043   0.7517
     1.0113   1.1156   1.3297   1.3533   1.4450   1.5154   1.6217   1.6804
     1.7211   1.7637   1.8426   2.0010   2.2011   2.2544   2.4228   2.4496
     2.4861   2.6075   2.6519   2.7525   2.7930   2.8459   2.8956   2.9202
     2.9807   3.0457   3.1083   3.1422   3.2009   3.2436   3.2968   3.3646
     3.4405   3.4854   3.5375   3.5845   3.6164   3.6508   3.6805   3.7197
     3.8343   3.8714   3.9514   3.9821   4.0866   4.1956   4.2639   4.4726
     8.2467   8.3341   8.3766   9.7333   9.8325  10.8481  11.1143  11.3427
    11.6823  11.9636  12.1622  12.5596  12.6803  12.7757  12.8852  13.0210
    13.1974  13.3857  13.4581  13.5329  13.6774  13.7341  13.8910  13.9578
    14.0821  14.2128  14.2411  14.4055  14.5123

     occupation numbers 
     1.0000   1.0000   1.0000   1.0000   1.0000   1.0000   1.0000   1.0000
     1.0000   1.0000   1.0000   1.0000   1.0000   1.0000   1.0000   1.0000
     1.0000   1.0000   1.0000   1.0000   1.0000   1.0000   1.0000   1.0000
     1.0000   1.0000   1.0000   1.0000   1.0000   1.0000   1.0000   1.0000
     1.0000   1.0000   1.0000   1.0000   1.0000   1.0000   1.0000   1.0000
     1.0000   1.0000   1.0000   1.0000   1.0000   1.0000   1.0000   1.0000
     1.0000   1.0000   1.0000   1.0000   1.0000   1.0000   1.0000   1.0000
     1.0000   1.0000   1.0000   1.0000   1.0000   1.0000   1.0000   1.0000
     1.0000   1.0000   1.0000   1.0000   1.0000   1.0000   1.0000   1.0000
     1.0000   1.0000   1.0000   1.0000   1.0000   1.0000   1.0000   1.0000
     1.0000   1.0000   1.0000   1.0000   1.0000   1.0000   1.0000   1.0000
     1.0000   1.0000   1.0000   1.0000   1.0000   1.0000   1.0000   1.0000
     1.0000   1.0000   1.0000   1.0000   1.0000   1.0000   1.0000   1.0000
     1.0000   1.0000   1.0000   1.0000   1.0000   1.0000   1.0000   1.0000
     1.0000   1.0000   1.0000   1.0000   1.0000   1.0000   1.0000   1.0000
     1.0000   1.0000   1.0000   1.0000   1.0000   1.0000   1.0000   1.0000
     1.0000   1.0000   1.0000   0.0000   0.0000   0.0000   0.0000   0.0000
     0.0000   0.0000   0.0000   0.0000   0.0000   0.0000   0.0000   0.0000
     0.0000   0.0000   0.0000   0.0000   0.0000   0.0000   0.0000   0.0000
     0.0000   0.0000   0.0000   0.0000   0.0000

          k = 0.3333 0.1919-0.1166 ( 25766 PWs)   bands (ev):

   -77.9226 -67.4979 -67.4753 -67.3560 -66.9186 -66.8968 -44.0825 -44.0570
   -43.9759 -34.2696 -34.2469 -34.2417 -34.2321 -34.2292 -34.2150 -34.1181
   -34.1167 -34.0908 -33.6946 -33.6740 -33.6660 -33.6591 -33.6528 -33.6151
   -22.9314 -22.8838 -14.7973 -14.7597 -14.2311 -14.2077 -13.7898 -13.7698
   -13.1340 -13.0700 -12.9930 -12.9408 -12.8855 -12.8625 -12.8129 -12.7692
   -12.6830 -12.6150 -12.5021 -12.4487 -12.3526 -12.3296 -12.1236 -12.0251
   -11.1221 -10.8991  -6.5033  -6.4670  -6.4265  -6.4155  -6.3704  -6.3522
    -3.5844  -3.5757  -2.5413  -2.4654  -1.6450  -1.4821  -1.2780  -1.1858
    -0.7638  -0.7299  -0.6199  -0.5585  -0.3393  -0.1965  -0.1724  -0.0610
    -0.0461   0.1313   0.3125   0.4818   0.5806   0.6516   0.7070   0.7282
     1.0369   1.0803   1.3121   1.3668   1.4509   1.5164   1.6220   1.6513
     1.6812   1.7213   1.8839   2.0179   2.1354   2.2986   2.3981   2.4266
     2.4937   2.6447   2.6642   2.7339   2.7842   2.8632   2.8940   2.9375
     3.0229   3.0604   3.1013   3.1517   3.2178   3.2455   3.3027   3.3701
     3.4513   3.4769   3.5209   3.5653   3.6184   3.6550   3.6927   3.7327
     3.8050   3.8805   3.9187   3.9678   4.0920   4.2006   4.2578   4.4698
     8.2444   8.3345   8.3778   9.7263   9.8379  10.6553  11.2911  11.3651
    11.7797  12.0376  12.1892  12.5309  12.6239  12.7777  12.8710  13.0935
    13.2071  13.3195  13.4207  13.5040  13.6033  13.7147  13.8049  14.0033
    14.1408  14.2270  14.2794  14.3986  14.5515

     occupation numbers 
     1.0000   1.0000   1.0000   1.0000   1.0000   1.0000   1.0000   1.0000
     1.0000   1.0000   1.0000   1.0000   1.0000   1.0000   1.0000   1.0000
     1.0000   1.0000   1.0000   1.0000   1.0000   1.0000   1.0000   1.0000
     1.0000   1.0000   1.0000   1.0000   1.0000   1.0000   1.0000   1.0000
     1.0000   1.0000   1.0000   1.0000   1.0000   1.0000   1.0000   1.0000
     1.0000   1.0000   1.0000   1.0000   1.0000   1.0000   1.0000   1.0000
     1.0000   1.0000   1.0000   1.0000   1.0000   1.0000   1.0000   1.0000
     1.0000   1.0000   1.0000   1.0000   1.0000   1.0000   1.0000   1.0000
     1.0000   1.0000   1.0000   1.0000   1.0000   1.0000   1.0000   1.0000
     1.0000   1.0000   1.0000   1.0000   1.0000   1.0000   1.0000   1.0000
     1.0000   1.0000   1.0000   1.0000   1.0000   1.0000   1.0000   1.0000
     1.0000   1.0000   1.0000   1.0000   1.0000   1.0000   1.0000   1.0000
     1.0000   1.0000   1.0000   1.0000   1.0000   1.0000   1.0000   1.0000
     1.0000   1.0000   1.0000   1.0000   1.0000   1.0000   1.0000   1.0000
     1.0000   1.0000   1.0000   1.0000   1.0000   1.0000   1.0000   1.0000
     1.0000   1.0000   1.0000   1.0000   1.0000   1.0000   1.0000   1.0000
     1.0000   1.0000   1.0000   0.0000   0.0000   0.0000   0.0000   0.0000
     0.0000   0.0000   0.0000   0.0000   0.0000   0.0000   0.0000   0.0000
     0.0000   0.0000   0.0000   0.0000   0.0000   0.0000   0.0000   0.0000
     0.0000   0.0000   0.0000   0.0000   0.0000

          k =-0.5000 0.0000-0.0884 ( 25734 PWs)   bands (ev):

   -77.9225 -67.4979 -67.4753 -67.3560 -66.9186 -66.8968 -44.0825 -44.0570
   -43.9759 -34.2693 -34.2476 -34.2414 -34.2312 -34.2297 -34.2151 -34.1181
   -34.1167 -34.0908 -33.6947 -33.6742 -33.6641 -33.6605 -33.6530 -33.6152
[...]
     atom   10 type  7   force =    -0.00265297    0.01075662   -0.00611565
     atom   11 type  7   force =     0.00023366    0.00317397   -0.01334180
     atom   12 type  7   force =    -0.00023364    0.00317397    0.01334185
     atom   13 type  7   force =    -0.00179140   -0.01191337    0.00935570
     atom   14 type  7   force =     0.00179139   -0.01191339   -0.00935557
     atom   15 type  1   force =    -0.00056093   -0.00189853   -0.00908057
     atom   16 type  1   force =     0.00056093   -0.00189853    0.00908053
     atom   17 type  6   force =    -0.00012188    0.00021615    0.00648889
     atom   18 type  6   force =     0.00012186    0.00021615   -0.00648890
     atom   19 type  6   force =    -0.00008412   -0.00004497   -0.00702296
     atom   20 type  6   force =     0.00008414   -0.00004497    0.00702296
     atom   21 type  6   force =     0.00093596    0.00098861    0.00638075
     atom   22 type  6   force =    -0.00093596    0.00098861   -0.00638075
     atom   23 type  6   force =    -0.00089202   -0.00135975   -0.00257228
     atom   24 type  6   force =     0.00089201   -0.00135976    0.00257229
     atom   25 type  6   force =     0.00476039   -0.00194712   -0.00579807
     atom   26 type  6   force =    -0.00476040   -0.00194713    0.00579804
     atom   27 type  6   force =    -0.00381478    0.00081461   -0.00713942
     atom   28 type  6   force =     0.00381480    0.00081461    0.00713940
     atom   29 type  6   force =    -0.00191764    0.00280608    0.00726871
     atom   30 type  6   force =     0.00191764    0.00280609   -0.00726868
     atom   31 type  6   force =     0.00114142   -0.00252667   -0.00752725
     atom   32 type  6   force =    -0.00114142   -0.00252667    0.00752725
     atom   33 type  6   force =    -0.00278787   -0.00346198   -0.00683376
     atom   34 type  6   force =     0.00278788   -0.00346197    0.00683378
     atom   35 type  6   force =     0.00099944    0.00429643    0.00645020
     atom   36 type  6   force =    -0.00099944    0.00429642   -0.00645020
     atom   37 type  6   force =    -0.00302237    0.00091232    0.01058055
     atom   38 type  6   force =     0.00302236    0.00091232   -0.01058053
     atom   39 type  6   force =     0.00000435   -0.00146158    0.01097730
     atom   40 type  6   force =    -0.00000434   -0.00146159   -0.01097732
     atom   41 type  3   force =     0.00000000    0.00000000    0.00000000
     atom   42 type  3   force =     0.00000000    0.00000000    0.00000000
     atom   43 type  3   force =     0.00000000    0.00000000    0.00000000
     atom   44 type  3   force =     0.00000000    0.00000000    0.00000000
     The Hubbard contrib.    to forces
     atom    1 type  4   force =     0.00000000    0.00000000    0.00000000
     atom    2 type  4   force =     0.00000000    0.00000000    0.00000000
     atom    3 type  5   force =     0.00000000    0.00000000    0.00000000
     atom    4 type  5   force =     0.00000000    0.00000000    0.00000000
     atom    5 type  5   force =     0.00000000    0.00000000    0.00000000
     atom    6 type  5   force =     0.00000000    0.00000000    0.00000000
     atom    7 type  5   force =     0.00000000    0.00000000    0.00000000
     atom    8 type  2   force =     0.00000000    0.00000000    0.00000000
     atom    9 type  7   force =     0.00000000    0.00000000    0.00000000
     atom   10 type  7   force =     0.00000000    0.00000000    0.00000000
     atom   11 type  7   force =     0.00000000    0.00000000    0.00000000
     atom   12 type  7   force =     0.00000000    0.00000000    0.00000000
     atom   13 type  7   force =     0.00000000    0.00000000    0.00000000
     atom   14 type  7   force =     0.00000000    0.00000000    0.00000000
     atom   15 type  1   force =     0.00000000    0.00000000    0.00000000
     atom   16 type  1   force =     0.00000000    0.00000000    0.00000000
     atom   17 type  6   force =     0.00000000    0.00000000    0.00000000
     atom   18 type  6   force =     0.00000000    0.00000000    0.00000000
     atom   19 type  6   force =     0.00000000    0.00000000    0.00000000
     atom   20 type  6   force =     0.00000000    0.00000000    0.00000000
     atom   21 type  6   force =     0.00000000    0.00000000    0.00000000
     atom   22 type  6   force =     0.00000000    0.00000000    0.00000000
     atom   23 type  6   force =     0.00000000    0.00000000    0.00000000
     atom   24 type  6   force =     0.00000000    0.00000000    0.00000000
     atom   25 type  6   force =     0.00000000    0.00000000    0.00000000
     atom   26 type  6   force =     0.00000000    0.00000000    0.00000000
     atom   27 type  6   force =     0.00000000    0.00000000    0.00000000
     atom   28 type  6   force =     0.00000000    0.00000000    0.00000000
     atom   29 type  6   force =     0.00000000    0.00000000    0.00000000
     atom   30 type  6   force =     0.00000000    0.00000000    0.00000000
     atom   31 type  6   force =     0.00000000    0.00000000    0.00000000
     atom   32 type  6   force =     0.00000000    0.00000000    0.00000000
     atom   33 type  6   force =     0.00000000    0.00000000    0.00000000
     atom   34 type  6   force =     0.00000000    0.00000000    0.00000000
     atom   35 type  6   force =     0.00000000    0.00000000    0.00000000
     atom   36 type  6   force =     0.00000000    0.00000000    0.00000000
     atom   37 type  6   force =     0.00000000    0.00000000    0.00000000
     atom   38 type  6   force =     0.00000000    0.00000000    0.00000000
     atom   39 type  6   force =     0.00000000    0.00000000    0.00000000
     atom   40 type  6   force =     0.00000000    0.00000000    0.00000000
     atom   41 type  3   force =     0.00000000    0.00000000    0.00000000
     atom   42 type  3   force =     0.00000000    0.00000000    0.00000000
     atom   43 type  3   force =     0.00000000    0.00000000    0.00000000
     atom   44 type  3   force =     0.00000000    0.00000000    0.00000000
     The SCF correction term to forces
     atom    1 type  4   force =    -0.00000000    0.00002152    0.00000000
     atom    2 type  4   force =    -0.00000000   -0.00002094    0.00000000
     atom    3 type  5   force =    -0.00000000    0.00000673   -0.00000000
     atom    4 type  5   force =    -0.00000000   -0.00003682   -0.00000000
     atom    5 type  5   force =    -0.00000000    0.00003365   -0.00000000
     atom    6 type  5   force =     0.00000000    0.00000442   -0.00000000
     atom    7 type  5   force =     0.00000000   -0.00005454    0.00000000
     atom    8 type  2   force =     0.00000000    0.00007073   -0.00000000
     atom    9 type  7   force =    -0.00000403   -0.00000895    0.00000917
     atom   10 type  7   force =     0.00000403   -0.00000895   -0.00000917
     atom   11 type  7   force =     0.00000185   -0.00000006    0.00000267
     atom   12 type  7   force =    -0.00000185   -0.00000006   -0.00000267
     atom   13 type  7   force =     0.00000391    0.00001545    0.00000407
     atom   14 type  7   force =    -0.00000391    0.00001545   -0.00000407
     atom   15 type  1   force =    -0.00000262   -0.00000414    0.00000135
     atom   16 type  1   force =     0.00000262   -0.00000414   -0.00000135
     atom   17 type  6   force =    -0.00000541   -0.00001363    0.00002728
     atom   18 type  6   force =     0.00000541   -0.00001363   -0.00002728
     atom   19 type  6   force =    -0.00000031    0.00000732   -0.00002180
     atom   20 type  6   force =     0.00000031    0.00000732    0.00002180
     atom   21 type  6   force =     0.00000150    0.00001635    0.00002262
     atom   22 type  6   force =    -0.00000150    0.00001635   -0.00002262
     atom   23 type  6   force =    -0.00000947   -0.00001657   -0.00000237
     atom   24 type  6   force =     0.00000947   -0.00001657    0.00000237
     atom   25 type  6   force =     0.00001085   -0.00000774   -0.00000113
     atom   26 type  6   force =    -0.00001085   -0.00000774    0.00000113
     atom   27 type  6   force =    -0.00000699   -0.00001114   -0.00000659
     atom   28 type  6   force =     0.00000699   -0.00001114    0.00000659
     atom   29 type  6   force =    -0.00000046    0.00000848    0.00001393
     atom   30 type  6   force =     0.00000046    0.00000848   -0.00001393
     atom   31 type  6   force =     0.00000394    0.00000469   -0.00001604
     atom   32 type  6   force =    -0.00000394    0.00000469    0.00001604
     atom   33 type  6   force =     0.00000048    0.00000583   -0.00000618
     atom   34 type  6   force =    -0.00000048    0.00000583    0.00000618
     atom   35 type  6   force =     0.00000727    0.00000148    0.00000141
     atom   36 type  6   force =    -0.00000727    0.00000148   -0.00000141
     atom   37 type  6   force =    -0.00000922    0.00000825   -0.00000487
     atom   38 type  6   force =     0.00000922    0.00000825    0.00000487
     atom   39 type  6   force =     0.00000155   -0.00000294    0.00001128
     atom   40 type  6   force =    -0.00000155   -0.00000294   -0.00001128
     atom   41 type  3   force =    -0.00000137    0.00000118    0.00000116
     atom   42 type  3   force =     0.00000137    0.00000118   -0.00000116
     atom   43 type  3   force =     0.00000045   -0.00000124    0.00000429
     atom   44 type  3   force =    -0.00000045   -0.00000124   -0.00000429

     Dispersion contribution to forces:
     atom    1 type  4   force =     0.00000000    0.00224249    0.00000000
     atom    2 type  4   force =    -0.00000000   -0.00167083    0.00000000
     atom    3 type  5   force =    -0.00000000    0.00057947    0.00000000
     atom    4 type  5   force =    -0.00000000   -0.00226676    0.00000000
     atom    5 type  5   force =     0.00000000    0.00192428    0.00000000
     atom    6 type  5   force =    -0.00000000    0.00382403    0.00000000
     atom    7 type  5   force =     0.00000000   -0.00438290    0.00000000
     atom    8 type  2   force =    -0.00000000    0.00087937    0.00000000
     atom    9 type  7   force =    -0.00005883   -0.00036195    0.00124311
     atom   10 type  7   force =     0.00005883   -0.00036195   -0.00124312
     atom   11 type  7   force =    -0.00015849    0.00006050   -0.00076462
     atom   12 type  7   force =     0.00015849    0.00006050    0.00076462
     atom   13 type  7   force =     0.00059603    0.00147783   -0.00082409
     atom   14 type  7   force =    -0.00059603    0.00147783    0.00082408
     atom   15 type  1   force =    -0.00054339   -0.00109823   -0.00132644
     atom   16 type  1   force =     0.00054339   -0.00109823    0.00132645
     atom   17 type  6   force =    -0.00011425    0.00027460    0.00043659
     atom   18 type  6   force =     0.00011425    0.00027460   -0.00043658
     atom   19 type  6   force =     0.00002098   -0.00025805   -0.00032356
     atom   20 type  6   force =    -0.00002098   -0.00025805    0.00032356
     atom   21 type  6   force =    -0.00027201   -0.00025261    0.00038118
     atom   22 type  6   force =     0.00027201   -0.00025261   -0.00038118
     atom   23 type  6   force =    -0.00006555   -0.00015280    0.00132453
     atom   24 type  6   force =     0.00006555   -0.00015280   -0.00132454
     atom   25 type  6   force =     0.00031460    0.00195446    0.00154813
     atom   26 type  6   force =    -0.00031460    0.00195446   -0.00154813
     atom   27 type  6   force =     0.00027978    0.00013406    0.00069443
     atom   28 type  6   force =    -0.00027978    0.00013406   -0.00069443
     atom   29 type  6   force =    -0.00006957    0.00011504   -0.00021465
     atom   30 type  6   force =     0.00006957    0.00011504    0.00021465
     atom   31 type  6   force =     0.00022591   -0.00034135   -0.00021596
     atom   32 type  6   force =    -0.00022591   -0.00034135    0.00021596
     atom   33 type  6   force =     0.00104677   -0.00145122    0.00125394
     atom   34 type  6   force =    -0.00104677   -0.00145122   -0.00125394
     atom   35 type  6   force =     0.00150066   -0.00033395   -0.00131426
     atom   36 type  6   force =    -0.00150066   -0.00033395    0.00131426
     atom   37 type  6   force =    -0.00002841    0.00009081   -0.00238121
     atom   38 type  6   force =     0.00002841    0.00009082    0.00238121
     atom   39 type  6   force =     0.00017282    0.00006229   -0.00252190
     atom   40 type  6   force =    -0.00017282    0.00006229    0.00252190
     atom   41 type  3   force =    -0.00117811   -0.00030981   -0.00068759
     atom   42 type  3   force =     0.00117811   -0.00030981    0.00068759
     atom   43 type  3   force =     0.00034103   -0.00017421    0.00092940
     atom   44 type  3   force =    -0.00034103   -0.00017421   -0.00092940

     Total force =     0.004161     Total SCF correction =     0.000143

     Total Dispersion Force =     0.011676


     Computing stress (Cartesian axis) and pressure

          total   stress  (Ry/bohr**3)                   (kbar)     P=        0.10
   0.00000032   0.00000000   0.00000084            0.05        0.00        0.12
   0.00000000   0.00000149   0.00000000            0.00        0.22        0.00
   0.00000084   0.00000000   0.00000021            0.12        0.00        0.03

     kinetic stress (kbar)  21007.71      0.00     11.45
                                0.00  21006.27      0.00
                               11.45      0.00  20718.97

     local   stress (kbar) -39988.63      0.00     97.94
                                0.00 -39673.65      0.00
                               97.94      0.00  18507.76

     nonloc. stress (kbar)   3949.02      0.00      0.52
                                0.00   3950.75      0.00
                                0.52      0.00   3932.43

     hartree stress (kbar)  22757.13     -0.00    -42.92
                               -0.00  22609.06      0.00
                              -42.92      0.00  -5836.59

     exc-cor stress (kbar)  -2940.43     -0.00     -0.04
                               -0.00  -2940.63     -0.00
                               -0.04     -0.00  -2937.36

     corecor stress (kbar)  -1937.59      0.00     -0.07
                                0.00  -1937.72      0.00
                               -0.07      0.00  -1939.33

     ewald   stress (kbar)  -2817.36     -0.00    -66.76
                               -0.00  -2983.99     -0.00
                              -66.76     -0.00 -32416.79

     hubbard stress (kbar)      0.00      0.00      0.00
                                0.00      0.00      0.00
                                0.00      0.00      0.00

     DFT-D   stress (kbar)    -29.78     -0.00      0.00
                               -0.00    -29.87      0.00
                                0.00      0.00    -29.04

     XDM     stress (kbar)      0.00      0.00      0.00
                                0.00      0.00      0.00
                                0.00      0.00      0.00

     dft-nl  stress (kbar)      0.00      0.00      0.00
                                0.00      0.00      0.00
                                0.00      0.00      0.00

     TS-vdW  stress (kbar)      0.00      0.00      0.00
                                0.00      0.00      0.00
                                0.00      0.00      0.00

     MDB     stress (kbar)      0.00      0.00      0.00
                                0.00      0.00      0.00
                                0.00      0.00      0.00

     3D-RISM stress (kbar)      0.00      0.00      0.00
                                0.00      0.00      0.00
                                0.00      0.00      0.00


     Writing all to output data dir ./temp/phl-fe1.save/ :
     XML data file, charge density, pseudopotentials, collected wavefunctions

     init_run     :    219.46s CPU    229.27s WALL (       2 calls)
     electrons    :  28625.81s CPU  29232.10s WALL (       6 calls)
     update_pot   :      4.19s CPU      4.97s WALL (       4 calls)
     forces       :    522.10s CPU    533.25s WALL (       6 calls)
     force_london :      2.41s CPU      2.44s WALL (       6 calls)
     stress       :   1374.54s CPU   1394.56s WALL (       6 calls)
     stres_london :      3.06s CPU      3.09s WALL (       6 calls)

     Called by init_run:
     wfcinit      :    209.97s CPU    218.00s WALL (       2 calls)
     wfcinit:atom :      0.37s CPU      0.39s WALL (      40 calls)
     wfcinit:wfcr :    207.04s CPU    214.91s WALL (      40 calls)
     potinit      :      2.11s CPU      2.53s WALL (       2 calls)
     hinit0       :      1.25s CPU      1.45s WALL (       2 calls)

     Called by electrons:
     c_bands      :  26568.30s CPU  27076.05s WALL (      58 calls)
     sum_band     :   1850.62s CPU   1916.19s WALL (      58 calls)
     v_of_rho     :     11.84s CPU     12.33s WALL (      60 calls)
     v_h          :      1.13s CPU      1.21s WALL (      60 calls)
     v_xc         :     12.83s CPU     13.35s WALL (      72 calls)
     newd         :    171.04s CPU    196.43s WALL (      60 calls)
     PAW_pot      :     42.89s CPU     53.90s WALL (      64 calls)
     mix_rho      :      2.34s CPU      2.45s WALL (      58 calls)
     energy_londo :      2.13s CPU      2.13s WALL (       6 calls)

     Called by c_bands:
     init_us_2    :     61.92s CPU     62.78s WALL (    2680 calls)
     cegterg      :  26473.31s CPU  26978.43s WALL (    1180 calls)

     Called by sum_band:
     sum_band:wei :      0.02s CPU      0.02s WALL (      58 calls)
     sum_band:loo :   1587.94s CPU   1625.25s WALL (      58 calls)
     sum_band:buf :      8.05s CPU      8.14s WALL (    1160 calls)
     sum_band:ini :     27.52s CPU     27.83s WALL (    1160 calls)
     sum_band:cal :   1201.63s CPU   1213.17s WALL (    1240 calls)
     sum_band:bec :      2.62s CPU      2.67s WALL (    1240 calls)
     addusdens    :    259.01s CPU    285.38s WALL (      58 calls)
                                        0.00s GPU  (      58 calls)
     addusd:skk   :      1.61s CPU      1.73s WALL (     406 calls)
                                        0.00s GPU  (     406 calls)

     Called by *egterg:
     cdiaghg      :   1060.15s CPU   1178.52s WALL (    9743 calls)
     cegterg:over :   3459.72s CPU   3524.28s WALL (    8743 calls)
     cegterg:upda :   2010.03s CPU   2036.24s WALL (    8743 calls)
     cegterg:last :   5543.81s CPU   5602.53s WALL (    3720 calls)
     cdiaghg:chol :     21.89s CPU     26.59s WALL (    9743 calls)
     cdiaghg:inve :     15.08s CPU     21.44s WALL (    9743 calls)
     cdiaghg:para :    376.30s CPU    434.25s WALL (   19486 calls)
     h_psi        :  10004.76s CPU  10205.11s WALL (    9963 calls)
     s_psi        :   3934.20s CPU   3951.99s WALL (    9963 calls)
     g_psi        :     12.62s CPU     12.72s WALL (    8743 calls)

     Called by h_psi:
     h_psi:calbec :   3938.73s CPU   3979.18s WALL (    9963 calls)
     vloc_psi     :   2100.86s CPU   2239.99s WALL (    9963 calls)
     add_vuspsi   :   3939.45s CPU   3958.21s WALL (    9963 calls)

     General routines
     calbec       :   5725.15s CPU   5788.19s WALL (   11803 calls)
     fft          :     10.41s CPU     11.38s WALL (     926 calls)
     ffts         :      0.46s CPU      0.51s WALL (     118 calls)
     fftw         :   1529.88s CPU   1636.87s WALL ( 1458954 calls)
     interpolate  :      1.18s CPU      1.27s WALL (      60 calls)

     Parallel routines

     PAW routines
     PAW_pot      :     42.89s CPU     53.90s WALL (      64 calls)
     PAW_symme    :      0.04s CPU      0.05s WALL (     122 calls)

     PWSCF        :      8h34m CPU      8h44m WALL


   This run was terminated on:   1:21:17  20Dec2024            

=------------------------------------------------------------------------------=
   JOB DONE.
=------------------------------------------------------------------------------=
