
     Program PWSCF v.7.3.1 starts on 23Jan2025 at 10:44: 7 

     This program is part of the open-source Quantum ESPRESSO suite
     for quantum simulation of materials; please cite
         "P. Giannozzi et al., J. Phys.:Condens. Matter 21 395502 (2009);
         "P. Giannozzi et al., J. Phys.:Condens. Matter 29 465901 (2017);
         "P. Giannozzi et al., J. Chem. Phys. 152 154105 (2020);
          URL http://www.quantum-espresso.org", 
     in publications or presentations arising from this work. More details at
     http://www.quantum-espresso.org/quote

     Parallel version (MPI), running on     6 processors

     MPI processes distributed on     1 nodes
     2765 MiB available memory on the printing compute node when the environment starts

     Reading input from vc_relax.in

     Current dimensions of program PWSCF are:
     Max number of different atomic species (ntypx) = 10
     Max number of k-points (npk) =  40000
     Max angular momentum in pseudopotentials (lmaxx) =  4
     file Al.pbe-n-kjpaw_psl.1.0.0.UPF: wavefunction(s)  3S 3P renormalized
     file F.pbe-n-kjpaw_psl.1.0.0.UPF: wavefunction(s)  2S 2P renormalized
     file K.pbe-spn-kjpaw_psl.1.0.0.UPF: wavefunction(s)  3S renormalized
     file Mg.pbe-spnl-kjpaw_psl.1.0.0.UPF: wavefunction(s)  2P renormalized
     file O.pbe-n-kjpaw_psl.1.0.0.UPF: wavefunction(s)  2S 2P renormalized
     file Si.pbe-n-kjpaw_psl.1.0.0.UPF: wavefunction(s)  3S 3P renormalized

     R & G space division:  proc/nbgrp/npool/nimage =       6
     Subspace diagonalization in iterative solution of the eigenvalue problem:
     a serial algorithm will be used


     Parallelization info
     --------------------
     sticks:   dense  smooth     PW     G-vecs:    dense   smooth      PW
     Min        1105     554    150                97744    34578    4918
     Max        1106     555    151                97745    34580    4920
     Sum        6633    3329    905               586467   207475   29511

     Using Slab Decomposition



     bravais-lattice index     =          -12
     lattice parameter (alat)  =      10.0136  a.u.
     unit-cell volume          =    3303.4414 (a.u.)^3
     number of atoms/cell      =           40
     number of atomic types    =            6
     number of electrons       =       256.00
     number of Kohn-Sham states=          128
     kinetic-energy cutoff     =      60.0000  Ry
     charge density cutoff     =     480.0000  Ry
     scf convergence threshold =      1.0E-06
     mixing beta               =       0.7000
     number of iterations used =            8  plain     mixing
     energy convergence thresh.=      1.0E-04
     force convergence thresh. =      1.0E-03
     press convergence thresh. =      5.0E-01
     Exchange-correlation= SLA  PW   PBX  PBC
                           (   1   4   3   4   0   0   0)
     nstep                     =           50


     celldm(1)=  10.013640  celldm(2)=   1.735306  celldm(3)=   1.926511
     celldm(4)=   0.000000  celldm(5)=  -0.177565  celldm(6)=   0.000000

     crystal axes: (cart. coord. in units of alat)
               a(1) = (   1.000000   0.000000   0.000000 )  
               a(2) = (   0.000000   1.735306   0.000000 )  
               a(3) = (  -0.342081   0.000000   1.895896 )  

     reciprocal axes: (cart. coord. in units 2 pi/alat)
               b(1) = (  1.000000 -0.000000  0.180432 )  
               b(2) = (  0.000000  0.576267 -0.000000 )  
               b(3) = (  0.000000  0.000000  0.527455 )  


     PseudoPot. # 1 for Al read from file:
     ./../../pseudos/Al.pbe-n-kjpaw_psl.1.0.0.UPF
     MD5 check sum: 502b6b27b9c6270cab5dd1084b96fa6d
     Pseudo is Projector augmented-wave + core cor, Zval =  3.0
     Generated using &quot;atomic&quot; code by A. Dal Corso  v.6.3
     Shape of augmentation charge: PSQ
     Using radial grid of 1135 points,  6 beta functions with: 
                l(1) =   0
                l(2) =   0
                l(3) =   1
                l(4) =   1
                l(5) =   2
                l(6) =   2
     Q(r) pseudized with 0 coefficients 


     PseudoPot. # 2 for F  read from file:
     ./../../pseudos/F.pbe-n-kjpaw_psl.1.0.0.UPF
     MD5 check sum: 66d718ea72839a4268ab2a9540e8cdd4
     Pseudo is Projector augmented-wave + core cor, Zval =  7.0
     Generated using &quot;atomic&quot; code by A. Dal Corso  v.6.3
     Shape of augmentation charge: PSQ
     Using radial grid of 1105 points,  4 beta functions with: 
                l(1) =   0
                l(2) =   0
                l(3) =   1
                l(4) =   1
     Q(r) pseudized with 0 coefficients 


     PseudoPot. # 3 for K  read from file:
     ./../../pseudos/K.pbe-spn-kjpaw_psl.1.0.0.UPF
     MD5 check sum: 34cc42130a09071ebe376fd42eb21491
     Pseudo is Projector augmented-wave + core cor, Zval =  9.0
     Generated using &quot;atomic&quot; code by A. Dal Corso  v.6.2.2
     Shape of augmentation charge: PSQ
     Using radial grid of 1165 points,  6 beta functions with: 
                l(1) =   0
                l(2) =   0
                l(3) =   1
                l(4) =   1
                l(5) =   2
                l(6) =   2
     Q(r) pseudized with 0 coefficients 


     PseudoPot. # 4 for Mg read from file:
     ./../../pseudos/Mg.pbe-spnl-kjpaw_psl.1.0.0.UPF
     MD5 check sum: fda14e0d92a6a9a5ebed782e5a4b3067
     Pseudo is Projector augmented-wave + core cor, Zval = 10.0
     Generated using &quot;atomic&quot; code by A. Dal Corso  v.6.3
     Shape of augmentation charge: PSQ
     Using radial grid of 1129 points,  4 beta functions with: 
                l(1) =   0
                l(2) =   0
                l(3) =   1
                l(4) =   1
     Q(r) pseudized with 0 coefficients 


     PseudoPot. # 5 for O  read from file:
     ./../../pseudos/O.pbe-n-kjpaw_psl.1.0.0.UPF
     MD5 check sum: e99d9cef9b487d1ca56f5b95ecd0fd7a
     Pseudo is Projector augmented-wave + core cor, Zval =  6.0
     Generated using &quot;atomic&quot; code by A. Dal Corso  v.6.3
     Shape of augmentation charge: PSQ
     Using radial grid of 1095 points,  4 beta functions with: 
                l(1) =   0
                l(2) =   0
                l(3) =   1
                l(4) =   1
     Q(r) pseudized with 0 coefficients 


     PseudoPot. # 6 for Si read from file:
     ./../../pseudos/Si.pbe-n-kjpaw_psl.1.0.0.UPF
     MD5 check sum: c39c59da582df4a0d9f10159256ea34e
     Pseudo is Projector augmented-wave + core cor, Zval =  4.0
     Generated using &quot;atomic&quot; code by A. Dal Corso  v.6.3
     Shape of augmentation charge: PSQ
     Using radial grid of 1141 points,  6 beta functions with: 
                l(1) =   0
                l(2) =   0
                l(3) =   1
                l(4) =   1
                l(5) =   2
                l(6) =   2
     Q(r) pseudized with 0 coefficients 


     atomic species   valence    mass     pseudopotential
     Al                3.00    26.98154     Al( 1.00)
     F                 7.00    18.99840     F ( 1.00)
     K                 9.00    39.09830     K ( 1.00)
     Mg               10.00    24.30500     Mg( 1.00)
     O                 6.00    15.99940     O ( 1.00)
     Si                4.00    28.08550     Si( 1.00)

      2 Sym. Ops. (no inversion) found


                                    s                        frac. trans.

      isym =  1     identity                                     

 cryst.   s( 1) = (     1          0          0      )
                  (     0          1          0      )
                  (     0          0          1      )

 cart.    s( 1) = (  1.0000000  0.0000000 -0.0000000 )
                  (  0.0000000  1.0000000  0.0000000 )
                  (  0.0000000  0.0000000  1.0000000 )


      isym =  2     180 deg rotation - cart. axis [0,1,0]        

 cryst.   s( 2) = (    -1          0          0      )
                  (     0          1          0      )
                  (     0          0         -1      )

 cart.    s( 2) = ( -1.0000000  0.0000000  0.0000000 )
                  (  0.0000000  1.0000000  0.0000000 )
                  (  0.0000000  0.0000000 -1.0000000 )


     point group C_2  (2)   
     there are  2 classes
     the character table:

       E     C2   
A      1.00  1.00
B      1.00 -1.00

     the symmetry operations in each class and the name of the first element:

     E        1
          identity                                               
     C2       2
          180 deg rotation - cart. axis [0,1,0]                  

   Cartesian axes

     site n.     atom                  positions (alat units)
         1        K      tau(   1) = (   0.0000000   0.8468609   0.0000000  )
         2        K      tau(   2) = (   0.5000000   0.0167233   0.0000000  )
         3        Mg     tau(   3) = (  -0.1710407   0.0066588   0.9479482  )
         4        Mg     tau(   4) = (  -0.1710407   0.5763952   0.9479482  )
         5        Mg     tau(   5) = (  -0.1710407   1.1561885   0.9479482  )
         6        Mg     tau(   6) = (   0.3289593   0.8580319   0.9479482  )
         7        Mg     tau(   7) = (   0.3289593   1.4457000   0.9479482  )
         8        Mg     tau(   8) = (   0.3289593   0.3014119   0.9479482  )
         9        Si     tau(   9) = (   0.0061865   0.2862223   0.4208854  )
        10        Si     tau(  10) = (   0.6517322   0.2862223   1.4750109  )
        11        Si     tau(  11) = (   0.6695219   1.4470829   1.4642529  )
        12        Si     tau(  12) = (  -0.0116032   1.4470829   0.4316435  )
        13        Si     tau(  13) = (   0.4877121   1.1558851   0.4270992  )
        14        Si     tau(  14) = (   0.1702066   1.1558851   1.4687973  )
        15        Al     tau(  15) = (   0.1509427   0.5746884   1.4715234  )
        16        Al     tau(  16) = (   0.5069760   0.5746884   0.4243729  )
        17        O      tau(  17) = (  -0.0038180   0.2825315   0.7322793  )
        18        O      tau(  18) = (   0.6617367   0.2825315   1.1636171  )
        19        O      tau(  19) = (   0.6658990   1.4448064   1.1561260  )
        20        O      tau(  20) = (  -0.0079804   1.4448064   0.7397705  )
        21        O      tau(  21) = (   0.4923394   1.1612222   0.7368663  )
        22        O      tau(  22) = (   0.1655792   1.1612222   1.1590302  )
        23        O      tau(  23) = (   0.1535635   0.5805277   1.1419054  )
        24        O      tau(  24) = (   0.5043552   0.5805277   0.7539910  )
        25        O      tau(  25) = (   0.2805287   0.3615432   0.3121975  )
        26        O      tau(  26) = (   0.3773900   0.3615432   1.5836990  )
        27        O      tau(  27) = (  -0.0542995   1.7296176   0.3183937  )
        28        O      tau(  28) = (   0.7122183   1.7296176   1.5775027  )
        29        O      tau(  29) = (   0.3999055   1.3405657   1.5749935  )
        30        O      tau(  30) = (   0.2580133   1.3405657   0.3209028  )
        31        O      tau(  31) = (   0.7566973   1.2742256   0.3192096  )
        32        O      tau(  32) = (  -0.0987786   1.2742256   1.5766868  )
        33        O      tau(  33) = (   0.4484521   0.8809566   0.3060192  )
        34        O      tau(  34) = (   0.2094666   0.8809566   1.5898772  )
        35        O      tau(  35) = (  -0.1377514   0.4712201   1.5944708  )
        36        O      tau(  36) = (   0.7956702   0.4712201   0.3014256  )
        37        F      tau(  37) = (  -0.0053443   0.8788784   0.7555156  )
        38        F      tau(  38) = (   0.6632630   0.8788784   1.1403808  )
        39        F      tau(  39) = (   0.4963900   1.7320517   0.7641272  )
        40        F      tau(  40) = (   0.1615287   1.7320517   1.1317692  )

     --------------------------------------------
     DFT-D3 Dispersion Correction (3-body terms):
     --------------------------------------------
       Reference C6 values for interpolation: 

         atom   Coordination number   C6
         O          0.000            31.01
         O          0.993            25.63
         O          1.989            20.74
         F          0.000            19.38
         F          0.998            14.27
         Mg         0.000          1366.75
         Mg         0.963           902.54
         Mg         1.950           351.12
         Al         0.000          1081.08
         Al         0.965           875.51
         Al         1.931           513.50
         Al         2.915           307.19
         Si         0.000           635.71
         Si         0.951           540.53
         Si         1.944           466.25
         Si         2.941           443.01
         Si         3.868           299.55
         K          0.000          9967.00
         K          0.977           676.04

       Values used:

         atom   Coordination number  R0_AB[au]  C6      C8
         K         13.239            4.007    676.04 129074.98
         K         13.518            4.007    676.04 129074.98
         Mg        11.792            3.292    351.12  31436.69
         Mg        12.165            3.292    351.12  31436.69
         Mg        11.772            3.292    351.12  31436.69
         Mg        12.042            3.292    351.12  31436.69
         Mg        11.721            3.292    351.12  31436.69
         Mg        12.158            3.292    351.12  31436.69
         Si         7.036            3.583    299.55  21425.58
         Si         7.036            3.583    299.55  21425.58
         Si         6.475            3.583    299.55  21425.58
         Si         6.475            3.583    299.55  21425.58
         Si         6.533            3.583    299.55  21425.58
         Si         6.533            3.583    299.55  21425.58
         Al         7.937            3.789    307.19  29441.29
         Al         7.937            3.789    307.19  29441.29
         O          3.940            2.345     20.74    418.58
         O          3.940            2.345     20.74    418.58
         O          3.936            2.345     20.74    418.58
         O          3.936            2.345     20.74    418.58
         O          3.923            2.345     20.74    418.58
         O          3.923            2.345     20.74    418.58
         O          3.997            2.345     20.74    418.58
         O          3.997            2.345     20.74    418.58
         O          3.253            2.345     20.74    418.58
         O          3.253            2.345     20.74    418.58
         O          3.153            2.345     20.74    418.58
         O          3.153            2.345     20.74    418.58
         O          2.985            2.345     20.74    418.58
         O          2.985            2.345     20.74    418.58
         O          2.979            2.345     20.74    418.58
         O          2.979            2.345     20.74    418.58
         O          3.203            2.345     20.74    418.58
         O          3.203            2.345     20.74    418.58
         O          3.341            2.345     20.74    418.58
         O          3.341            2.345     20.74    418.58
         F          3.031            2.173     14.27    244.15
         F          3.031            2.173     14.27    244.15
         F          3.031            2.173     14.27    244.15
         F          3.031            2.173     14.27    244.15

         Molecular C6 ( Ry / a.u.^6 ) =    157465.17


   Crystallographic axes

     site n.     atom                  positions (cryst. coord.)
         1        K      tau(   1) = (  0.0000000  0.4880182  0.0000000  )
         2        K      tau(   2) = (  0.5000000  0.0096371  0.0000000  )
         3        Mg     tau(   3) = (  0.0000000  0.0038373  0.5000000  )
         4        Mg     tau(   4) = (  0.0000000  0.3321576  0.5000000  )
         5        Mg     tau(   5) = (  0.0000000  0.6662735  0.5000000  )
         6        Mg     tau(   6) = (  0.5000000  0.4944556  0.5000000  )
         7        Mg     tau(   7) = (  0.5000000  0.8331095  0.5000000  )
         8        Mg     tau(   8) = (  0.5000000  0.1736938  0.5000000  )
         9        Si     tau(   9) = (  0.0821279  0.1649405  0.2219981  )
        10        Si     tau(  10) = (  0.9178721  0.1649405  0.7780018  )
        11        Si     tau(  11) = (  0.9337206  0.8339064  0.7723275  )
        12        Si     tau(  12) = (  0.0662793  0.8339064  0.2276725  )
        13        Si     tau(  13) = (  0.5647747  0.6660987  0.2252756  )
        14        Si     tau(  14) = (  0.4352253  0.6660987  0.7747244  )
        15        Al     tau(  15) = (  0.4164534  0.3311741  0.7761623  )
        16        Al     tau(  16) = (  0.5835466  0.3311741  0.2238376  )
        17        O      tau(  17) = (  0.1283090  0.1628136  0.3862444  )
        18        O      tau(  18) = (  0.8716910  0.1628136  0.6137556  )
        19        O      tau(  19) = (  0.8745017  0.8325945  0.6098044  )
        20        O      tau(  20) = (  0.1254983  0.8325945  0.3901956  )
        21        O      tau(  21) = (  0.6252940  0.6691743  0.3886638  )
        22        O      tau(  22) = (  0.3747059  0.6691743  0.6113362  )
        23        O      tau(  23) = (  0.3596003  0.3345391  0.6023037  )
        24        O      tau(  24) = (  0.6403997  0.3345391  0.3976963  )
        25        O      tau(  25) = (  0.3368593  0.2083455  0.1646701  )
        26        O      tau(  26) = (  0.6631408  0.2083455  0.8353300  )
        27        O      tau(  27) = (  0.0031490  0.9967219  0.1679383  )
        28        O      tau(  28) = (  0.9968510  0.9967219  0.8320616  )
        29        O      tau(  29) = (  0.6840855  0.7725240  0.8307382  )
        30        O      tau(  30) = (  0.3159146  0.7725240  0.1692618  )
        31        O      tau(  31) = (  0.8142931  0.7342944  0.1683687  )
        32        O      tau(  32) = (  0.1857069  0.7342944  0.8316313  )
        33        O      tau(  33) = (  0.5036679  0.5076664  0.1614113  )
        34        O      tau(  34) = (  0.4963321  0.5076664  0.8385887  )
        35        O      tau(  35) = (  0.1499429  0.2715487  0.8410116  )
        36        O      tau(  36) = (  0.8500571  0.2715487  0.1589884  )
        37        F      tau(  37) = (  0.1309753  0.5064688  0.3985004  )
        38        F      tau(  38) = (  0.8690248  0.5064688  0.6014996  )
        39        F      tau(  39) = (  0.6342633  0.9981245  0.4030427  )
        40        F      tau(  40) = (  0.3657367  0.9981245  0.5969573  )

     number of k points=    20
                       cart. coord. in units 2pi/alat
        k(    1) = (   0.0000000   0.0000000   0.0000000), wk =   0.0370370
        k(    2) = (   0.0000000   0.0000000   0.1758183), wk =   0.0740741
        k(    3) = (   0.0000000   0.1920891   0.0000000), wk =   0.0740741
        k(    4) = (   0.0000000   0.1920891   0.1758183), wk =   0.1481481
        k(    5) = (   0.1666667   0.0000000   0.0300721), wk =   0.0740741
        k(    6) = (   0.1666667   0.0000000   0.2058904), wk =   0.0740741
        k(    7) = (   0.1666667   0.0000000  -0.1457462), wk =   0.0740741
        k(    8) = (   0.1666667   0.1920891   0.0300721), wk =   0.1481481
        k(    9) = (   0.1666667   0.1920891   0.2058904), wk =   0.1481481
        k(   10) = (   0.1666667   0.1920891  -0.1457462), wk =   0.1481481
        k(   11) = (   0.3333333   0.0000000   0.0601442), wk =   0.0740741
        k(   12) = (   0.3333333   0.0000000   0.2359625), wk =   0.0740741
        k(   13) = (   0.3333333   0.0000000  -0.1156742), wk =   0.0740741
        k(   14) = (   0.3333333   0.1920891   0.0601442), wk =   0.1481481
        k(   15) = (   0.3333333   0.1920891   0.2359625), wk =   0.1481481
        k(   16) = (   0.3333333   0.1920891  -0.1156742), wk =   0.1481481
        k(   17) = (  -0.5000000   0.0000000  -0.0902162), wk =   0.0370370
        k(   18) = (  -0.5000000   0.0000000   0.0856021), wk =   0.0740741
        k(   19) = (  -0.5000000   0.1920891  -0.0902162), wk =   0.0740741
        k(   20) = (  -0.5000000   0.1920891   0.0856021), wk =   0.1481481

                       cryst. coord.
        k(    1) = (   0.0000000   0.0000000   0.0000000), wk =   0.0370370
        k(    2) = (   0.0000000   0.0000000   0.3333333), wk =   0.0740741
        k(    3) = (   0.0000000   0.3333333   0.0000000), wk =   0.0740741
        k(    4) = (   0.0000000   0.3333333   0.3333333), wk =   0.1481481
        k(    5) = (   0.1666667   0.0000000  -0.0000000), wk =   0.0740741
        k(    6) = (   0.1666667   0.0000000   0.3333333), wk =   0.0740741
        k(    7) = (   0.1666667   0.0000000  -0.3333333), wk =   0.0740741
        k(    8) = (   0.1666667   0.3333333  -0.0000000), wk =   0.1481481
        k(    9) = (   0.1666667   0.3333333   0.3333333), wk =   0.1481481
        k(   10) = (   0.1666667   0.3333333  -0.3333333), wk =   0.1481481
        k(   11) = (   0.3333333   0.0000000  -0.0000000), wk =   0.0740741
        k(   12) = (   0.3333333   0.0000000   0.3333333), wk =   0.0740741
        k(   13) = (   0.3333333   0.0000000  -0.3333333), wk =   0.0740741
        k(   14) = (   0.3333333   0.3333333  -0.0000000), wk =   0.1481481
        k(   15) = (   0.3333333   0.3333333   0.3333333), wk =   0.1481481
        k(   16) = (   0.3333333   0.3333333  -0.3333333), wk =   0.1481481
        k(   17) = (  -0.5000000   0.0000000   0.0000000), wk =   0.0370370
        k(   18) = (  -0.5000000   0.0000000   0.3333333), wk =   0.0740741
        k(   19) = (  -0.5000000   0.3333333   0.0000000), wk =   0.0740741
        k(   20) = (  -0.5000000   0.3333333   0.3333333), wk =   0.1481481

     Dense  grid:   586467 G-vectors     FFT dimensions: (  72, 125, 135)

     Smooth grid:   207475 G-vectors     FFT dimensions: (  50,  90,  96)

     Dynamical RAM for                 wfc:       8.44 MB

     Dynamical RAM for     wfc (w. buffer):     177.23 MB

     Dynamical RAM for           str. fact:       8.95 MB

     Dynamical RAM for           local pot:       0.00 MB

     Dynamical RAM for          nlocal pot:      27.69 MB

     Dynamical RAM for                qrad:      21.10 MB

     Dynamical RAM for          rho,v,vnew:       9.21 MB

     Dynamical RAM for               rhoin:       3.07 MB

     Dynamical RAM for            rho*nmix:      23.86 MB

     Dynamical RAM for           G-vectors:       5.86 MB

     Dynamical RAM for          h,s,v(r/c):       3.00 MB

     Dynamical RAM for          <psi|beta>:       0.82 MB

     Dynamical RAM for                 psi:      16.88 MB

     Dynamical RAM for                hpsi:      16.88 MB

     Dynamical RAM for                spsi:      16.88 MB

     Dynamical RAM for      wfcinit/wfcrot:      23.64 MB

     Dynamical RAM for           addusdens:     307.24 MB

     Dynamical RAM for          addusforce:     364.74 MB

     Dynamical RAM for         addusstress:     299.79 MB

     Estimated static dynamical RAM per process >     271.44 MB

     Estimated max dynamical RAM per process >     660.05 MB

     Estimated total dynamical RAM >       3.87 GB

     Check: negative core charge=   -0.000004

     Initial potential from superposition of free atoms

     starting charge     255.9488, renormalised to     256.0000
     Starting wfcs are  174 randomized atomic wfcs
     Checking if some PAW data can be deallocated... 
       PAW data deallocated on    5 nodes for type:  1
       PAW data deallocated on    5 nodes for type:  2
       PAW data deallocated on    5 nodes for type:  3
       PAW data deallocated on    4 nodes for type:  4
       PAW data deallocated on    2 nodes for type:  5
       PAW data deallocated on    5 nodes for type:  6

     total cpu time spent up to now is      162.1 secs

     Self-consistent Calculation

     iteration #  1     ecut=    60.00 Ry     beta= 0.70
     Davidson diagonalization with overlap

---- Real-time Memory Report at c_bands before calling an iterative solver
           389 MiB given to the printing process from OS
             0 MiB allocation reported by mallinfo(arena+hblkhd)
           838 MiB available memory on the node where the printing process lives
------------------
     ethr =  1.00E-02,  avg # of iterations =  2.0

     total cpu time spent up to now is      503.8 secs

     total energy              =   -2502.57190305 Ry
     estimated scf accuracy    <      11.50760627 Ry

     iteration #  2     ecut=    60.00 Ry     beta= 0.70
     Davidson diagonalization with overlap

---- Real-time Memory Report at c_bands before calling an iterative solver
           632 MiB given to the printing process from OS
             0 MiB allocation reported by mallinfo(arena+hblkhd)
          1878 MiB available memory on the node where the printing process lives
------------------
     ethr =  4.50E-03,  avg # of iterations =  5.0

     total cpu time spent up to now is     1125.7 secs

     total energy              =   -2508.63744080 Ry
     estimated scf accuracy    <       8.93686416 Ry

     iteration #  3     ecut=    60.00 Ry     beta= 0.70
     Davidson diagonalization with overlap

---- Real-time Memory Report at c_bands before calling an iterative solver
           635 MiB given to the printing process from OS
             0 MiB allocation reported by mallinfo(arena+hblkhd)
          1881 MiB available memory on the node where the printing process lives
------------------
     ethr =  3.49E-03,  avg # of iterations =  2.0

     total cpu time spent up to now is     1501.4 secs

     total energy              =   -2508.63112213 Ry
     estimated scf accuracy    <       1.78234711 Ry

     iteration #  4     ecut=    60.00 Ry     beta= 0.70
     Davidson diagonalization with overlap

---- Real-time Memory Report at c_bands before calling an iterative solver
           636 MiB given to the printing process from OS
             0 MiB allocation reported by mallinfo(arena+hblkhd)
          1878 MiB available memory on the node where the printing process lives
------------------
     ethr =  6.96E-04,  avg # of iterations =  6.2

     total cpu time spent up to now is     2242.1 secs

     total energy              =   -2510.10860532 Ry
     estimated scf accuracy    <       0.51550878 Ry

     iteration #  5     ecut=    60.00 Ry     beta= 0.70
     Davidson diagonalization with overlap

---- Real-time Memory Report at c_bands before calling an iterative solver
           638 MiB given to the printing process from OS
             0 MiB allocation reported by mallinfo(arena+hblkhd)
          1871 MiB available memory on the node where the printing process lives
------------------
     ethr =  2.01E-04,  avg # of iterations =  2.6

     total cpu time spent up to now is     2591.5 secs

     total energy              =   -2509.94295861 Ry
     estimated scf accuracy    <       0.43150855 Ry

     iteration #  6     ecut=    60.00 Ry     beta= 0.70
     Davidson diagonalization with overlap

---- Real-time Memory Report at c_bands before calling an iterative solver
           639 MiB given to the printing process from OS
             0 MiB allocation reported by mallinfo(arena+hblkhd)
          1867 MiB available memory on the node where the printing process lives
------------------
     ethr =  1.69E-04,  avg # of iterations =  3.4

     total cpu time spent up to now is     2953.8 secs

     total energy              =   -2509.97298926 Ry
     estimated scf accuracy    <       0.07522950 Ry

     iteration #  7     ecut=    60.00 Ry     beta= 0.70
     Davidson diagonalization with overlap

---- Real-time Memory Report at c_bands before calling an iterative solver
           640 MiB given to the printing process from OS
             0 MiB allocation reported by mallinfo(arena+hblkhd)
          1852 MiB available memory on the node where the printing process lives
------------------
     ethr =  2.94E-05,  avg # of iterations =  6.5

     total cpu time spent up to now is     3584.9 secs

     total energy              =   -2510.02826504 Ry
     estimated scf accuracy    <       0.00242824 Ry

     iteration #  8     ecut=    60.00 Ry     beta= 0.70
     Davidson diagonalization with overlap

---- Real-time Memory Report at c_bands before calling an iterative solver
           641 MiB given to the printing process from OS
             0 MiB allocation reported by mallinfo(arena+hblkhd)
          1851 MiB available memory on the node where the printing process lives
------------------
     ethr =  9.49E-07,  avg # of iterations = 14.8

     total cpu time spent up to now is     4862.8 secs

     total energy              =   -2510.03403873 Ry
     estimated scf accuracy    <       0.00055304 Ry

     iteration #  9     ecut=    60.00 Ry     beta= 0.70
     Davidson diagonalization with overlap

---- Real-time Memory Report at c_bands before calling an iterative solver
           642 MiB given to the printing process from OS
             0 MiB allocation reported by mallinfo(arena+hblkhd)
          1848 MiB available memory on the node where the printing process lives
------------------
     ethr =  2.16E-07,  avg # of iterations =  6.1

     total cpu time spent up to now is     5422.7 secs

     total energy              =   -2510.03433523 Ry
     estimated scf accuracy    <       0.00005221 Ry

     iteration # 10     ecut=    60.00 Ry     beta= 0.70
     Davidson diagonalization with overlap

---- Real-time Memory Report at c_bands before calling an iterative solver
           643 MiB given to the printing process from OS
             0 MiB allocation reported by mallinfo(arena+hblkhd)
          1838 MiB available memory on the node where the printing process lives
------------------
     ethr =  2.04E-08,  avg # of iterations = 10.8

     total cpu time spent up to now is     6591.9 secs

     total energy              =   -2510.03430559 Ry
     estimated scf accuracy    <       0.00037304 Ry

     iteration # 11     ecut=    60.00 Ry     beta= 0.70
     Davidson diagonalization with overlap

---- Real-time Memory Report at c_bands before calling an iterative solver
           645 MiB given to the printing process from OS
             0 MiB allocation reported by mallinfo(arena+hblkhd)
          1813 MiB available memory on the node where the printing process lives
------------------
     ethr =  2.04E-08,  avg # of iterations =  6.9

     total cpu time spent up to now is     7425.6 secs

     total energy              =   -2510.03435037 Ry
     estimated scf accuracy    <       0.00001647 Ry

     iteration # 12     ecut=    60.00 Ry     beta= 0.70
     Davidson diagonalization with overlap

---- Real-time Memory Report at c_bands before calling an iterative solver
           645 MiB given to the printing process from OS
             0 MiB allocation reported by mallinfo(arena+hblkhd)
          1834 MiB available memory on the node where the printing process lives
------------------
     ethr =  6.44E-09,  avg # of iterations =  9.5

     total cpu time spent up to now is     8364.9 secs

     total energy              =   -2510.03436006 Ry
     estimated scf accuracy    <       0.00005071 Ry

     iteration # 13     ecut=    60.00 Ry     beta= 0.70
     Davidson diagonalization with overlap

---- Real-time Memory Report at c_bands before calling an iterative solver
           645 MiB given to the printing process from OS
             0 MiB allocation reported by mallinfo(arena+hblkhd)
          1829 MiB available memory on the node where the printing process lives
------------------
     ethr =  6.44E-09,  avg # of iterations =  2.0

     total cpu time spent up to now is     8707.7 secs

     total energy              =   -2510.03434995 Ry
     estimated scf accuracy    <       0.00002278 Ry

     iteration # 14     ecut=    60.00 Ry     beta= 0.70
     Davidson diagonalization with overlap

---- Real-time Memory Report at c_bands before calling an iterative solver
           645 MiB given to the printing process from OS
             0 MiB allocation reported by mallinfo(arena+hblkhd)
          1820 MiB available memory on the node where the printing process lives
------------------
     ethr =  6.44E-09,  avg # of iterations =  5.5

     total cpu time spent up to now is     9365.6 secs

     total energy              =   -2510.03436022 Ry
     estimated scf accuracy    <       0.00000271 Ry

     iteration # 15     ecut=    60.00 Ry     beta= 0.70
     Davidson diagonalization with overlap

---- Real-time Memory Report at c_bands before calling an iterative solver
           645 MiB given to the printing process from OS
             0 MiB allocation reported by mallinfo(arena+hblkhd)
          1812 MiB available memory on the node where the printing process lives
------------------
     ethr =  1.06E-09,  avg # of iterations =  3.0

     total cpu time spent up to now is     9746.0 secs

     End of self-consistent calculation

          k = 0.0000 0.0000 0.0000 ( 25927 PWs)   bands (ev):

   -68.5531 -68.5054 -68.4434 -68.0722 -68.0142 -67.9741 -35.3126 -35.3063
   -35.3041 -35.2612 -35.2604 -35.2525 -35.2131 -35.1931 -35.1803 -34.8561
   -34.8141 -34.8075 -34.7707 -34.7672 -34.7605 -34.7498 -34.7456 -34.6756
   -23.0824 -23.0249 -17.8171 -17.6422 -17.5421 -17.4033 -15.3830 -15.3349
   -14.4036 -14.3640 -13.9154 -13.8920 -13.6224 -13.5624 -13.5086 -13.2153
   -13.2020 -13.1382 -12.9066 -12.8423 -12.7115 -12.5551 -12.4336 -12.3982
   -11.7684 -11.4901  -6.6110  -6.5841  -6.5821  -6.5430  -6.5230  -6.5152
    -4.6274  -4.5681  -2.7152  -2.6008  -2.0213  -1.4279  -1.4029  -1.2835
    -1.1988  -0.9708  -0.8010  -0.7317  -0.6728  -0.3769  -0.3189  -0.2991
    -0.1530  -0.0746   0.0660   0.1334   0.1772   0.3064   0.3889   0.5139
     0.5162   0.5870   0.6008   0.6786   0.7902   0.8750   0.9534   0.9729
     1.0049   1.1257   1.2125   1.4383   1.4667   1.5220   1.5744   1.6690
     1.8437   1.8479   1.9143   1.9472   2.0112   2.1823   2.2385   2.2474
     2.3009   2.4122   2.4435   2.5106   2.5553   2.5753   2.6116   2.6681
     2.8628   2.8985   2.9098   2.9597   3.0436   3.2262   3.2550   3.3010
     3.3295   3.3981   3.4393   3.6521   3.6577   3.7786   3.8866   3.9264

     occupation numbers 
     1.0000   1.0000   1.0000   1.0000   1.0000   1.0000   1.0000   1.0000
     1.0000   1.0000   1.0000   1.0000   1.0000   1.0000   1.0000   1.0000
     1.0000   1.0000   1.0000   1.0000   1.0000   1.0000   1.0000   1.0000
     1.0000   1.0000   1.0000   1.0000   1.0000   1.0000   1.0000   1.0000
     1.0000   1.0000   1.0000   1.0000   1.0000   1.0000   1.0000   1.0000
     1.0000   1.0000   1.0000   1.0000   1.0000   1.0000   1.0000   1.0000
     1.0000   1.0000   1.0000   1.0000   1.0000   1.0000   1.0000   1.0000
     1.0000   1.0000   1.0000   1.0000   1.0000   1.0000   1.0000   1.0000
     1.0000   1.0000   1.0000   1.0000   1.0000   1.0000   1.0000   1.0000
     1.0000   1.0000   1.0000   1.0000   1.0000   1.0000   1.0000   1.0000
     1.0000   1.0000   1.0000   1.0000   1.0000   1.0000   1.0000   1.0000
     1.0000   1.0000   1.0000   1.0000   1.0000   1.0000   1.0000   1.0000
     1.0000   1.0000   1.0000   1.0000   1.0000   1.0000   1.0000   1.0000
     1.0000   1.0000   1.0000   1.0000   1.0000   1.0000   1.0000   1.0000
     1.0000   1.0000   1.0000   1.0000   1.0000   1.0000   1.0000   1.0000
     1.0000   1.0000   1.0000   1.0000   1.0000   1.0000   1.0000   1.0000

          k = 0.0000 0.0000 0.1758 ( 25971 PWs)   bands (ev):

   -68.5531 -68.5054 -68.4434 -68.0722 -68.0142 -67.9741 -35.3126 -35.3063
   -35.3041 -35.2612 -35.2604 -35.2525 -35.2131 -35.1931 -35.1803 -34.8561
   -34.8142 -34.8075 -34.7707 -34.7672 -34.7605 -34.7499 -34.7456 -34.6756
   -23.0824 -23.0249 -17.8171 -17.6422 -17.5421 -17.4033 -15.3714 -15.3473
   -14.3948 -14.3732 -13.9153 -13.8921 -13.6110 -13.5772 -13.5008 -13.2117
   -13.2050 -13.1479 -12.8926 -12.8556 -12.6952 -12.5661 -12.4338 -12.3980
   -11.7679 -11.4911  -6.6110  -6.5841  -6.5820  -6.5431  -6.5229  -6.5152
    -4.6216  -4.5744  -2.6899  -2.6304  -1.9745  -1.4410  -1.4036  -1.3200
    -1.1471  -0.9458  -0.8521  -0.8018  -0.6696  -0.3655  -0.3177  -0.2896
    -0.1921  -0.0762   0.0245   0.1480   0.2006   0.3009   0.4275   0.4779
     0.5085   0.5641   0.6062   0.6996   0.8111   0.8476   0.9682   1.0088
     1.0659   1.0921   1.3137   1.3769   1.4836   1.5268   1.5481   1.7343
     1.8696   1.9053   1.9173   1.9555   2.0057   2.1281   2.2047   2.2463
     2.2973   2.3742   2.4057   2.5057   2.5288   2.5446   2.6514   2.6902
     2.8184   2.8915   2.9374   3.0335   3.0483   3.1729   3.2336   3.3008
     3.3375   3.3823   3.4424   3.5567   3.6852   3.8213   3.9064   3.9199

     occupation numbers 
     1.0000   1.0000   1.0000   1.0000   1.0000   1.0000   1.0000   1.0000
     1.0000   1.0000   1.0000   1.0000   1.0000   1.0000   1.0000   1.0000
     1.0000   1.0000   1.0000   1.0000   1.0000   1.0000   1.0000   1.0000
     1.0000   1.0000   1.0000   1.0000   1.0000   1.0000   1.0000   1.0000
     1.0000   1.0000   1.0000   1.0000   1.0000   1.0000   1.0000   1.0000
     1.0000   1.0000   1.0000   1.0000   1.0000   1.0000   1.0000   1.0000
     1.0000   1.0000   1.0000   1.0000   1.0000   1.0000   1.0000   1.0000
     1.0000   1.0000   1.0000   1.0000   1.0000   1.0000   1.0000   1.0000
     1.0000   1.0000   1.0000   1.0000   1.0000   1.0000   1.0000   1.0000
     1.0000   1.0000   1.0000   1.0000   1.0000   1.0000   1.0000   1.0000
     1.0000   1.0000   1.0000   1.0000   1.0000   1.0000   1.0000   1.0000
     1.0000   1.0000   1.0000   1.0000   1.0000   1.0000   1.0000   1.0000
     1.0000   1.0000   1.0000   1.0000   1.0000   1.0000   1.0000   1.0000
     1.0000   1.0000   1.0000   1.0000   1.0000   1.0000   1.0000   1.0000
     1.0000   1.0000   1.0000   1.0000   1.0000   1.0000   1.0000   1.0000
     1.0000   1.0000   1.0000   1.0000   1.0000   1.0000   1.0000   1.0000

          k = 0.0000 0.1921 0.0000 ( 25933 PWs)   bands (ev):

   -68.5531 -68.5054 -68.4434 -68.0722 -68.0142 -67.9741 -35.3126 -35.3063
   -35.3041 -35.2613 -35.2604 -35.2525 -35.2131 -35.1930 -35.1803 -34.8561
   -34.8140 -34.8075 -34.7707 -34.7672 -34.7605 -34.7499 -34.7456 -34.6756
   -23.0824 -23.0249 -17.8168 -17.6424 -17.5421 -17.4032 -15.3802 -15.3313
   -14.4286 -14.3895 -13.9154 -13.8920 -13.5555 -13.4773 -13.4723 -13.2884
   -13.2492 -13.1621 -12.9254 -12.8456 -12.6988 -12.5505 -12.4337 -12.3982
   -11.7663 -11.4894  -6.6100  -6.5835  -6.5812  -6.5446  -6.5235  -6.5158
    -4.5875  -4.5274  -2.8620  -2.7420  -1.9566  -1.3846  -1.3788  -1.1732
    -1.1538  -0.9703  -0.8722  -0.6773  -0.6340  -0.4674  -0.3394  -0.3018
    -0.1448  -0.1009  -0.0283   0.0014   0.3018   0.3053   0.4167   0.4542
     0.5402   0.5664   0.6561   0.7344   0.8211   0.9078   0.9339   1.0675
     1.1546   1.2091   1.2443   1.4173   1.4594   1.4867   1.6172   1.6473
     1.8246   1.8330   1.8951   1.9197   1.9997   2.0522   2.2318   2.3214
     2.3531   2.3596   2.4393   2.4818   2.4858   2.5493   2.6102   2.6622
     2.8370   2.8655   2.9597   2.9834   3.0520   3.2347   3.2476   3.2929
     3.3347   3.3943   3.3992   3.6357   3.6366   3.7742   3.8670   3.9075

     occupation numbers 
     1.0000   1.0000   1.0000   1.0000   1.0000   1.0000   1.0000   1.0000
     1.0000   1.0000   1.0000   1.0000   1.0000   1.0000   1.0000   1.0000
     1.0000   1.0000   1.0000   1.0000   1.0000   1.0000   1.0000   1.0000
     1.0000   1.0000   1.0000   1.0000   1.0000   1.0000   1.0000   1.0000
     1.0000   1.0000   1.0000   1.0000   1.0000   1.0000   1.0000   1.0000
     1.0000   1.0000   1.0000   1.0000   1.0000   1.0000   1.0000   1.0000
     1.0000   1.0000   1.0000   1.0000   1.0000   1.0000   1.0000   1.0000
     1.0000   1.0000   1.0000   1.0000   1.0000   1.0000   1.0000   1.0000
     1.0000   1.0000   1.0000   1.0000   1.0000   1.0000   1.0000   1.0000
     1.0000   1.0000   1.0000   1.0000   1.0000   1.0000   1.0000   1.0000
     1.0000   1.0000   1.0000   1.0000   1.0000   1.0000   1.0000   1.0000
     1.0000   1.0000   1.0000   1.0000   1.0000   1.0000   1.0000   1.0000
     1.0000   1.0000   1.0000   1.0000   1.0000   1.0000   1.0000   1.0000
     1.0000   1.0000   1.0000   1.0000   1.0000   1.0000   1.0000   1.0000
     1.0000   1.0000   1.0000   1.0000   1.0000   1.0000   1.0000   1.0000
     1.0000   1.0000   1.0000   1.0000   1.0000   1.0000   1.0000   1.0000

          k = 0.0000 0.1921 0.1758 ( 25924 PWs)   bands (ev):

   -68.5531 -68.5054 -68.4434 -68.0722 -68.0142 -67.9741 -35.3126 -35.3063
   -35.3041 -35.2613 -35.2604 -35.2525 -35.2131 -35.1930 -35.1803 -34.8561
   -34.8140 -34.8075 -34.7707 -34.7672 -34.7605 -34.7498 -34.7456 -34.6756
   -23.0824 -23.0249 -17.8168 -17.6424 -17.5421 -17.4032 -15.3684 -15.3438
   -14.4197 -14.3989 -13.9153 -13.8921 -13.5480 -13.4881 -13.4638 -13.2795
   -13.2603 -13.1696 -12.9115 -12.8588 -12.6825 -12.5616 -12.4339 -12.3980
   -11.7657 -11.4904  -6.6100  -6.5835  -6.5811  -6.5447  -6.5234  -6.5158
    -4.5792  -4.5362  -2.8334  -2.7736  -1.9110  -1.3845  -1.3794  -1.2157
    -1.1207  -0.9509  -0.9275  -0.7122  -0.6318  -0.4412  -0.3874  -0.2883
    -0.1479  -0.1392  -0.0280  -0.0018   0.2844   0.3188   0.4096   0.4308
     0.5381   0.5976   0.6772   0.7516   0.8246   0.9263   0.9953   1.0540
     1.1884   1.2200   1.3144   1.3747   1.4385   1.5069   1.5852   1.7070
     1.8204   1.8667   1.8993   1.9464   1.9642   2.0528   2.1267   2.3130
     2.3452   2.3712   2.4150   2.4483   2.4911   2.5425   2.6044   2.6900
     2.8502   2.8996   2.9332   2.9984   3.1006   3.1675   3.2544   3.2627
     3.3357   3.3619   3.4474   3.5305   3.6653   3.8167   3.8831   3.9061

     occupation numbers 
     1.0000   1.0000   1.0000   1.0000   1.0000   1.0000   1.0000   1.0000
     1.0000   1.0000   1.0000   1.0000   1.0000   1.0000   1.0000   1.0000
     1.0000   1.0000   1.0000   1.0000   1.0000   1.0000   1.0000   1.0000
     1.0000   1.0000   1.0000   1.0000   1.0000   1.0000   1.0000   1.0000
     1.0000   1.0000   1.0000   1.0000   1.0000   1.0000   1.0000   1.0000
     1.0000   1.0000   1.0000   1.0000   1.0000   1.0000   1.0000   1.0000
     1.0000   1.0000   1.0000   1.0000   1.0000   1.0000   1.0000   1.0000
     1.0000   1.0000   1.0000   1.0000   1.0000   1.0000   1.0000   1.0000
     1.0000   1.0000   1.0000   1.0000   1.0000   1.0000   1.0000   1.0000
     1.0000   1.0000   1.0000   1.0000   1.0000   1.0000   1.0000   1.0000
     1.0000   1.0000   1.0000   1.0000   1.0000   1.0000   1.0000   1.0000
     1.0000   1.0000   1.0000   1.0000   1.0000   1.0000   1.0000   1.0000
     1.0000   1.0000   1.0000   1.0000   1.0000   1.0000   1.0000   1.0000
     1.0000   1.0000   1.0000   1.0000   1.0000   1.0000   1.0000   1.0000
     1.0000   1.0000   1.0000   1.0000   1.0000   1.0000   1.0000   1.0000
     1.0000   1.0000   1.0000   1.0000   1.0000   1.0000   1.0000   1.0000

          k = 0.1667 0.0000 0.0301 ( 25941 PWs)   bands (ev):

   -68.5531 -68.5054 -68.4434 -68.0722 -68.0142 -67.9741 -35.3120 -35.3063
   -35.3047 -35.2615 -35.2600 -35.2526 -35.2132 -35.1931 -35.1803 -34.8561
   -34.8145 -34.8073 -34.7709 -34.7672 -34.7604 -34.7490 -34.7460 -34.6760
   -23.0822 -23.0248 -17.8076 -17.6344 -17.5502 -17.4100 -15.3260 -15.2781
   -14.4354 -14.3963 -14.0271 -13.9964 -13.5416 -13.4841 -13.4771 -13.2203
   -13.1909 -13.1344 -12.9240 -12.8546 -12.7005 -12.5695 -12.4821 -12.4288
   -11.7586 -11.4942  -6.6102  -6.5844  -6.5804  -6.5464  -6.5229  -6.5120
    -4.4688  -4.4052  -2.6905  -2.5729  -2.0728  -1.7178  -1.4893  -1.0807
    -1.0669  -0.9425  -0.8020  -0.7225  -0.6593  -0.3817  -0.3131  -0.2515
    -0.1914  -0.0845  -0.0004   0.1312   0.1555   0.3166   0.3455   0.4098
     0.4980   0.5455   0.6102   0.7126   0.7785   0.9011   0.9528   1.0723
     1.1233   1.2388   1.2574   1.3739   1.4681   1.4813   1.5125   1.6585
     1.7239   1.8208   1.9030   1.9182   2.0513   2.1514   2.2134   2.2711
     2.2788   2.4180   2.4566   2.5004   2.5439   2.5873   2.6354   2.6639
     2.8214   2.8903   2.9332   2.9457   3.0095   3.1197   3.1893   3.2831
     3.3229   3.4011   3.4690   3.6283   3.6538   3.7213   3.8039   3.8644

     occupation numbers 
     1.0000   1.0000   1.0000   1.0000   1.0000   1.0000   1.0000   1.0000
     1.0000   1.0000   1.0000   1.0000   1.0000   1.0000   1.0000   1.0000
     1.0000   1.0000   1.0000   1.0000   1.0000   1.0000   1.0000   1.0000
     1.0000   1.0000   1.0000   1.0000   1.0000   1.0000   1.0000   1.0000
     1.0000   1.0000   1.0000   1.0000   1.0000   1.0000   1.0000   1.0000
     1.0000   1.0000   1.0000   1.0000   1.0000   1.0000   1.0000   1.0000
     1.0000   1.0000   1.0000   1.0000   1.0000   1.0000   1.0000   1.0000
     1.0000   1.0000   1.0000   1.0000   1.0000   1.0000   1.0000   1.0000
     1.0000   1.0000   1.0000   1.0000   1.0000   1.0000   1.0000   1.0000
     1.0000   1.0000   1.0000   1.0000   1.0000   1.0000   1.0000   1.0000
     1.0000   1.0000   1.0000   1.0000   1.0000   1.0000   1.0000   1.0000
     1.0000   1.0000   1.0000   1.0000   1.0000   1.0000   1.0000   1.0000
     1.0000   1.0000   1.0000   1.0000   1.0000   1.0000   1.0000   1.0000
     1.0000   1.0000   1.0000   1.0000   1.0000   1.0000   1.0000   1.0000
     1.0000   1.0000   1.0000   1.0000   1.0000   1.0000   1.0000   1.0000
     1.0000   1.0000   1.0000   1.0000   1.0000   1.0000   1.0000   1.0000

          k = 0.1667 0.0000 0.2059 ( 25961 PWs)   bands (ev):

   -68.5531 -68.5054 -68.4434 -68.0722 -68.0142 -67.9741 -35.3120 -35.3063
   -35.3047 -35.2615 -35.2601 -35.2526 -35.2132 -35.1931 -35.1803 -34.8561
   -34.8145 -34.8073 -34.7709 -34.7672 -34.7604 -34.7490 -34.7460 -34.6760
   -23.0822 -23.0248 -17.8076 -17.6344 -17.5502 -17.4100 -15.3119 -15.2930
   -14.4293 -14.4028 -14.0233 -14.0005 -13.5333 -13.4949 -13.4687 -13.2234
   -13.1895 -13.1435 -12.9128 -12.8645 -12.6838 -12.5829 -12.4677 -12.4420
   -11.7576 -11.4954  -6.6102  -6.5844  -6.5804  -6.5464  -6.5228  -6.5120
    -4.4690  -4.4050  -2.6685  -2.6001  -2.0270  -1.7567  -1.4469  -1.1093
    -1.0272  -0.9304  -0.8551  -0.7850  -0.6395  -0.3849  -0.3303  -0.2568
    -0.1770  -0.1253  -0.0024   0.1420   0.1434   0.3299   0.3416   0.4365
     0.4800   0.5148   0.6106   0.7393   0.7973   0.8763   1.0347   1.0736
     1.1562   1.1916   1.3277   1.3917   1.4316   1.4573   1.5497   1.6763
     1.7674   1.8466   1.8519   1.9701   2.0580   2.1057   2.2126   2.2685
     2.2799   2.3403   2.4401   2.4521   2.5528   2.6015   2.6630   2.6766
     2.8160   2.8809   2.9133   2.9661   3.0300   3.1040   3.1572   3.2761
     3.3226   3.3967   3.4607   3.5608   3.6708   3.7949   3.8157   3.8504

     occupation numbers 
     1.0000   1.0000   1.0000   1.0000   1.0000   1.0000   1.0000   1.0000
     1.0000   1.0000   1.0000   1.0000   1.0000   1.0000   1.0000   1.0000
     1.0000   1.0000   1.0000   1.0000   1.0000   1.0000   1.0000   1.0000
     1.0000   1.0000   1.0000   1.0000   1.0000   1.0000   1.0000   1.0000
     1.0000   1.0000   1.0000   1.0000   1.0000   1.0000   1.0000   1.0000
     1.0000   1.0000   1.0000   1.0000   1.0000   1.0000   1.0000   1.0000
     1.0000   1.0000   1.0000   1.0000   1.0000   1.0000   1.0000   1.0000
     1.0000   1.0000   1.0000   1.0000   1.0000   1.0000   1.0000   1.0000
     1.0000   1.0000   1.0000   1.0000   1.0000   1.0000   1.0000   1.0000
     1.0000   1.0000   1.0000   1.0000   1.0000   1.0000   1.0000   1.0000
     1.0000   1.0000   1.0000   1.0000   1.0000   1.0000   1.0000   1.0000
     1.0000   1.0000   1.0000   1.0000   1.0000   1.0000   1.0000   1.0000
     1.0000   1.0000   1.0000   1.0000   1.0000   1.0000   1.0000   1.0000
     1.0000   1.0000   1.0000   1.0000   1.0000   1.0000   1.0000   1.0000
     1.0000   1.0000   1.0000   1.0000   1.0000   1.0000   1.0000   1.0000
     1.0000   1.0000   1.0000   1.0000   1.0000   1.0000   1.0000   1.0000

          k = 0.1667 0.0000-0.1457 ( 25956 PWs)   bands (ev):

   -68.5531 -68.5054 -68.4434 -68.0722 -68.0142 -67.9741 -35.3120 -35.3063
   -35.3047 -35.2615 -35.2601 -35.2526 -35.2132 -35.1931 -35.1803 -34.8560
   -34.8145 -34.8073 -34.7709 -34.7672 -34.7604 -34.7490 -34.7460 -34.6760
   -23.0822 -23.0248 -17.8076 -17.6344 -17.5502 -17.4100 -15.3169 -15.2878
   -14.4261 -14.4062 -14.0214 -14.0024 -13.5317 -13.4953 -13.4727 -13.2159
   -13.1924 -13.1452 -12.9042 -12.8726 -12.6849 -12.5836 -12.4700 -12.4387
   -11.7574 -11.4953  -6.6102  -6.5844  -6.5803  -6.5464  -6.5228  -6.5120
    -4.4493  -4.4253  -2.6677  -2.5991  -2.0448  -1.7437  -1.4540  -1.1076
    -1.0415  -0.9162  -0.8469  -0.7694  -0.6579  -0.3677  -0.3193  -0.2476
    -0.2068  -0.1003   0.0029   0.1152   0.1470   0.3293   0.3490   0.4136
     0.5098   0.5357   0.6070   0.7203   0.7753   0.8853   1.0214   1.0830
     1.1205   1.2242   1.3045   1.3804   1.4385   1.4770   1.5279   1.7109
     1.7470   1.8124   1.8828   1.9987   2.0300   2.1188   2.1919   2.2530
     2.2704   2.3465   2.4197   2.4743   2.5706   2.6215   2.6315   2.6819
     2.8202   2.8673   2.9474   2.9847   3.0384   3.1251   3.1780   3.2688
     3.3128   3.3648   3.4741   3.5588   3.6523   3.7568   3.8383   3.8577

     occupation numbers 
     1.0000   1.0000   1.0000   1.0000   1.0000   1.0000   1.0000   1.0000
     1.0000   1.0000   1.0000   1.0000   1.0000   1.0000   1.0000   1.0000
     1.0000   1.0000   1.0000   1.0000   1.0000   1.0000   1.0000   1.0000
     1.0000   1.0000   1.0000   1.0000   1.0000   1.0000   1.0000   1.0000
     1.0000   1.0000   1.0000   1.0000   1.0000   1.0000   1.0000   1.0000
     1.0000   1.0000   1.0000   1.0000   1.0000   1.0000   1.0000   1.0000
     1.0000   1.0000   1.0000   1.0000   1.0000   1.0000   1.0000   1.0000
     1.0000   1.0000   1.0000   1.0000   1.0000   1.0000   1.0000   1.0000
     1.0000   1.0000   1.0000   1.0000   1.0000   1.0000   1.0000   1.0000
     1.0000   1.0000   1.0000   1.0000   1.0000   1.0000   1.0000   1.0000
     1.0000   1.0000   1.0000   1.0000   1.0000   1.0000   1.0000   1.0000
     1.0000   1.0000   1.0000   1.0000   1.0000   1.0000   1.0000   1.0000
     1.0000   1.0000   1.0000   1.0000   1.0000   1.0000   1.0000   1.0000
     1.0000   1.0000   1.0000   1.0000   1.0000   1.0000   1.0000   1.0000
     1.0000   1.0000   1.0000   1.0000   1.0000   1.0000   1.0000   1.0000
     1.0000   1.0000   1.0000   1.0000   1.0000   1.0000   1.0000   1.0000

          k = 0.1667 0.1921 0.0301 ( 25937 PWs)   bands (ev):

   -68.5531 -68.5054 -68.4434 -68.0722 -68.0142 -67.9741 -35.3120 -35.3063
   -35.3047 -35.2615 -35.2601 -35.2526 -35.2132 -35.1930 -35.1803 -34.8560
   -34.8144 -34.8073 -34.7709 -34.7672 -34.7605 -34.7490 -34.7460 -34.6760
   -23.0822 -23.0248 -17.8074 -17.6345 -17.5502 -17.4100 -15.3233 -15.2747
   -14.4577 -14.4182 -14.0153 -13.9874 -13.5179 -13.4353 -13.4074 -13.2781
   -13.2360 -13.1581 -12.9395 -12.8568 -12.6899 -12.5650 -12.4817 -12.4288
   -11.7571 -11.4938  -6.6094  -6.5841  -6.5798  -6.5476  -6.5230  -6.5123
    -4.4321  -4.3678  -2.8470  -2.7271  -1.9744  -1.5810  -1.4433  -1.0989
    -1.0584  -0.9342  -0.8414  -0.6835  -0.6303  -0.4106  -0.3541  -0.2770
    -0.1604  -0.1035  -0.0873   0.0244   0.2262   0.3481   0.3742   0.4240
     0.4888   0.5753   0.6543   0.7437   0.8481   0.9311   0.9621   1.1385
     1.2091   1.2344   1.2698   1.3541   1.4134   1.4806   1.5626   1.6856
     1.7321   1.7552   1.8196   1.8564   1.9405   2.1649   2.2330   2.3029
     2.3371   2.3877   2.4439   2.4736   2.5001   2.5486   2.6250   2.6442
     2.7876   2.8764   2.9493   2.9883   3.0281   3.1709   3.2350   3.2725
     3.3245   3.3835   3.4547   3.6088   3.6395   3.7161   3.7767   3.8547

     occupation numbers 
     1.0000   1.0000   1.0000   1.0000   1.0000   1.0000   1.0000   1.0000
     1.0000   1.0000   1.0000   1.0000   1.0000   1.0000   1.0000   1.0000
     1.0000   1.0000   1.0000   1.0000   1.0000   1.0000   1.0000   1.0000
     1.0000   1.0000   1.0000   1.0000   1.0000   1.0000   1.0000   1.0000
     1.0000   1.0000   1.0000   1.0000   1.0000   1.0000   1.0000   1.0000
     1.0000   1.0000   1.0000   1.0000   1.0000   1.0000   1.0000   1.0000
     1.0000   1.0000   1.0000   1.0000   1.0000   1.0000   1.0000   1.0000
     1.0000   1.0000   1.0000   1.0000   1.0000   1.0000   1.0000   1.0000
     1.0000   1.0000   1.0000   1.0000   1.0000   1.0000   1.0000   1.0000
     1.0000   1.0000   1.0000   1.0000   1.0000   1.0000   1.0000   1.0000
     1.0000   1.0000   1.0000   1.0000   1.0000   1.0000   1.0000   1.0000
     1.0000   1.0000   1.0000   1.0000   1.0000   1.0000   1.0000   1.0000
     1.0000   1.0000   1.0000   1.0000   1.0000   1.0000   1.0000   1.0000
     1.0000   1.0000   1.0000   1.0000   1.0000   1.0000   1.0000   1.0000
     1.0000   1.0000   1.0000   1.0000   1.0000   1.0000   1.0000   1.0000
     1.0000   1.0000   1.0000   1.0000   1.0000   1.0000   1.0000   1.0000

          k = 0.1667 0.1921 0.2059 ( 25944 PWs)   bands (ev):

   -68.5531 -68.5054 -68.4434 -68.0722 -68.0142 -67.9741 -35.3120 -35.3063
   -35.3047 -35.2615 -35.2601 -35.2526 -35.2132 -35.1930 -35.1803 -34.8561
   -34.8144 -34.8073 -34.7709 -34.7672 -34.7605 -34.7490 -34.7460 -34.6760
   -23.0822 -23.0248 -17.8074 -17.6345 -17.5502 -17.4100 -15.3090 -15.2898
   -14.4510 -14.4252 -14.0125 -13.9903 -13.5112 -13.4370 -13.4047 -13.2771
   -13.2401 -13.1671 -12.9274 -12.8681 -12.6732 -12.5782 -12.4674 -12.4417
   -11.7561 -11.4950  -6.6095  -6.5841  -6.5798  -6.5477  -6.5229  -6.5123
    -4.4296  -4.3705  -2.8170  -2.7607  -1.9344  -1.6059  -1.4107  -1.1152
    -1.0426  -0.9351  -0.8858  -0.7158  -0.6118  -0.4261  -0.3689  -0.2701
    -0.1746  -0.1267  -0.0891   0.0212   0.2177   0.3304   0.3574   0.4268
     0.4995   0.5675   0.6924   0.7752   0.8907   0.9340   1.0235   1.1087
     1.1946   1.2782   1.3369   1.3505   1.3966   1.4696   1.5544   1.6630
     1.7361   1.7614   1.8206   1.8656   2.0191   2.0709   2.2158   2.2883
     2.3338   2.3604   2.4342   2.4572   2.4862   2.5476   2.6426   2.6636
     2.8319   2.8798   2.9232   2.9585   3.0834   3.1389   3.1910   3.2648
     3.3330   3.3860   3.4494   3.5487   3.6433   3.7814   3.7979   3.8434

     occupation numbers 
     1.0000   1.0000   1.0000   1.0000   1.0000   1.0000   1.0000   1.0000
     1.0000   1.0000   1.0000   1.0000   1.0000   1.0000   1.0000   1.0000
     1.0000   1.0000   1.0000   1.0000   1.0000   1.0000   1.0000   1.0000
     1.0000   1.0000   1.0000   1.0000   1.0000   1.0000   1.0000   1.0000
     1.0000   1.0000   1.0000   1.0000   1.0000   1.0000   1.0000   1.0000
     1.0000   1.0000   1.0000   1.0000   1.0000   1.0000   1.0000   1.0000
     1.0000   1.0000   1.0000   1.0000   1.0000   1.0000   1.0000   1.0000
     1.0000   1.0000   1.0000   1.0000   1.0000   1.0000   1.0000   1.0000
     1.0000   1.0000   1.0000   1.0000   1.0000   1.0000   1.0000   1.0000
     1.0000   1.0000   1.0000   1.0000   1.0000   1.0000   1.0000   1.0000
     1.0000   1.0000   1.0000   1.0000   1.0000   1.0000   1.0000   1.0000
     1.0000   1.0000   1.0000   1.0000   1.0000   1.0000   1.0000   1.0000
     1.0000   1.0000   1.0000   1.0000   1.0000   1.0000   1.0000   1.0000
     1.0000   1.0000   1.0000   1.0000   1.0000   1.0000   1.0000   1.0000
     1.0000   1.0000   1.0000   1.0000   1.0000   1.0000   1.0000   1.0000
     1.0000   1.0000   1.0000   1.0000   1.0000   1.0000   1.0000   1.0000

          k = 0.1667 0.1921-0.1457 ( 25923 PWs)   bands (ev):

   -68.5531 -68.5054 -68.4434 -68.0722 -68.0142 -67.9741 -35.3120 -35.3063
   -35.3047 -35.2615 -35.2601 -35.2526 -35.2132 -35.1930 -35.1803 -34.8560
   -34.8144 -34.8073 -34.7709 -34.7672 -34.7605 -34.7490 -34.7460 -34.6760
   -23.0822 -23.0248 -17.8074 -17.6345 -17.5502 -17.4100 -15.3141 -15.2845
   -14.4481 -14.4283 -14.0106 -13.9924 -13.5126 -13.4266 -13.4176 -13.2645
   -13.2510 -13.1653 -12.9208 -12.8735 -12.6740 -12.5791 -12.4699 -12.4384
   -11.7559 -11.4949  -6.6095  -6.5842  -6.5797  -6.5477  -6.5229  -6.5123
    -4.4109  -4.3897  -2.8209  -2.7560  -1.9480  -1.5992  -1.4154  -1.1022
    -1.0598  -0.9166  -0.8860  -0.7115  -0.6277  -0.4050  -0.3627  -0.2811
    -0.1757  -0.1058  -0.0910   0.0108   0.2296   0.3501   0.3739   0.4239
     0.4941   0.5731   0.6733   0.7557   0.8476   0.9269   1.0013   1.1373
     1.2112   1.2660   1.2829   1.3530   1.3934   1.4911   1.5571   1.6948
     1.7494   1.7713   1.8266   1.8856   1.9588   2.1444   2.1795   2.2511
     2.3352   2.3796   2.4272   2.4634   2.4821   2.5616   2.5787   2.6848
     2.8454   2.8838   2.9373   2.9962   3.0838   3.1439   3.2224   3.2532
     3.3225   3.3660   3.4582   3.5422   3.6321   3.7418   3.8148   3.8510

     occupation numbers 
     1.0000   1.0000   1.0000   1.0000   1.0000   1.0000   1.0000   1.0000
     1.0000   1.0000   1.0000   1.0000   1.0000   1.0000   1.0000   1.0000
     1.0000   1.0000   1.0000   1.0000   1.0000   1.0000   1.0000   1.0000
     1.0000   1.0000   1.0000   1.0000   1.0000   1.0000   1.0000   1.0000
     1.0000   1.0000   1.0000   1.0000   1.0000   1.0000   1.0000   1.0000
     1.0000   1.0000   1.0000   1.0000   1.0000   1.0000   1.0000   1.0000
     1.0000   1.0000   1.0000   1.0000   1.0000   1.0000   1.0000   1.0000
     1.0000   1.0000   1.0000   1.0000   1.0000   1.0000   1.0000   1.0000
     1.0000   1.0000   1.0000   1.0000   1.0000   1.0000   1.0000   1.0000
     1.0000   1.0000   1.0000   1.0000   1.0000   1.0000   1.0000   1.0000
     1.0000   1.0000   1.0000   1.0000   1.0000   1.0000   1.0000   1.0000
     1.0000   1.0000   1.0000   1.0000   1.0000   1.0000   1.0000   1.0000
     1.0000   1.0000   1.0000   1.0000   1.0000   1.0000   1.0000   1.0000
     1.0000   1.0000   1.0000   1.0000   1.0000   1.0000   1.0000   1.0000
     1.0000   1.0000   1.0000   1.0000   1.0000   1.0000   1.0000   1.0000
     1.0000   1.0000   1.0000   1.0000   1.0000   1.0000   1.0000   1.0000

          k = 0.3333 0.0000 0.0601 ( 25907 PWs)   bands (ev):

   -68.5531 -68.5054 -68.4434 -68.0722 -68.0141 -67.9741 -35.3108 -35.3063
   -35.3058 -35.2615 -35.2598 -35.2528 -35.2133 -35.1929 -35.1804 -34.8559
   -34.8150 -34.8070 -34.7708 -34.7671 -34.7604 -34.7479 -34.7464 -34.6766
   -23.0819 -23.0245 -17.7865 -17.6172 -17.5686 -17.4252 -15.1687 -15.1218
   -14.5867 -14.5468 -14.1358 -14.0993 -13.4663 -13.3984 -13.3506 -13.2204
   -13.1859 -13.1301 -12.9758 -12.8930 -12.6773 -12.6032 -12.5763 -12.4830
   -11.7414 -11.5039  -6.6092  -6.5841  -6.5779  -6.5531  -6.5224  -6.5054
    -4.0544  -3.9765  -2.8539  -2.7187  -2.0952  -1.9215  -1.4085  -0.9973
    -0.9418  -0.9024  -0.7950  -0.7619  -0.6624  -0.4059  -0.2734  -0.2208
    -0.1423  -0.0645  -0.0102   0.0782   0.1306   0.2643   0.3002   0.3061
     0.4203   0.5241   0.6797   0.7253   0.8827   0.9144   0.9378   1.0734
     1.1863   1.2355   1.3001   1.3622   1.4245   1.4941   1.5412   1.5510
     1.6617   1.7082   1.7878   1.8749   2.0020   2.0740   2.2141   2.2938
     2.3722   2.4170   2.4683   2.4903   2.5361   2.5967   2.6214   2.7029
     2.7425   2.8535   2.9297   2.9439   2.9519   3.0538   3.1023   3.2605
     3.3109   3.4156   3.5111   3.5265   3.6121   3.6204   3.6419   3.7773

     occupation numbers 
     1.0000   1.0000   1.0000   1.0000   1.0000   1.0000   1.0000   1.0000
     1.0000   1.0000   1.0000   1.0000   1.0000   1.0000   1.0000   1.0000
     1.0000   1.0000   1.0000   1.0000   1.0000   1.0000   1.0000   1.0000
     1.0000   1.0000   1.0000   1.0000   1.0000   1.0000   1.0000   1.0000
     1.0000   1.0000   1.0000   1.0000   1.0000   1.0000   1.0000   1.0000
     1.0000   1.0000   1.0000   1.0000   1.0000   1.0000   1.0000   1.0000
     1.0000   1.0000   1.0000   1.0000   1.0000   1.0000   1.0000   1.0000
     1.0000   1.0000   1.0000   1.0000   1.0000   1.0000   1.0000   1.0000
     1.0000   1.0000   1.0000   1.0000   1.0000   1.0000   1.0000   1.0000
     1.0000   1.0000   1.0000   1.0000   1.0000   1.0000   1.0000   1.0000
     1.0000   1.0000   1.0000   1.0000   1.0000   1.0000   1.0000   1.0000
     1.0000   1.0000   1.0000   1.0000   1.0000   1.0000   1.0000   1.0000
     1.0000   1.0000   1.0000   1.0000   1.0000   1.0000   1.0000   1.0000
     1.0000   1.0000   1.0000   1.0000   1.0000   1.0000   1.0000   1.0000
     1.0000   1.0000   1.0000   1.0000   1.0000   1.0000   1.0000   1.0000
     1.0000   1.0000   1.0000   1.0000   1.0000   1.0000   1.0000   1.0000

          k = 0.3333 0.0000 0.2360 ( 25948 PWs)   bands (ev):

   -68.5531 -68.5054 -68.4434 -68.0722 -68.0142 -67.9741 -35.3108 -35.3063
   -35.3059 -35.2615 -35.2598 -35.2528 -35.2133 -35.1930 -35.1804 -34.8559
   -34.8150 -34.8070 -34.7708 -34.7671 -34.7605 -34.7479 -34.7464 -34.6766
   -23.0819 -23.0245 -17.7866 -17.6172 -17.5686 -17.4252 -15.1530 -15.1384
   -14.5840 -14.5496 -14.1288 -14.1067 -13.4610 -13.3970 -13.3477 -13.2262
   -13.1885 -13.1378 -12.9617 -12.9029 -12.6656 -12.6167 -12.5517 -12.5027
   -11.7397 -11.5054  -6.6093  -6.5840  -6.5779  -6.5531  -6.5224  -6.5054
    -4.0550  -3.9760  -2.8289  -2.7481  -2.0649  -1.9555  -1.3472  -0.9997
    -0.9545  -0.9055  -0.8221  -0.7559  -0.6642  -0.4366  -0.3066  -0.2325
    -0.1472  -0.0417  -0.0314   0.0605   0.1320   0.2934   0.3066   0.3206
     0.4320   0.5128   0.6771   0.7280   0.8836   0.8974   1.0256   1.0585
     1.1272   1.2636   1.2995   1.3958   1.4444   1.5002   1.5238   1.5590
     1.6520   1.6989   1.8545   1.8957   2.0153   2.0408   2.2275   2.2464
     2.3048   2.3515   2.4459   2.4976   2.5933   2.6208   2.6649   2.6747
     2.7504   2.8336   2.9235   2.9540   2.9975   3.0216   3.0930   3.2507
     3.3124   3.3960   3.4562   3.5411   3.5769   3.6505   3.7378   3.7484

     occupation numbers 
     1.0000   1.0000   1.0000   1.0000   1.0000   1.0000   1.0000   1.0000
     1.0000   1.0000   1.0000   1.0000   1.0000   1.0000   1.0000   1.0000
     1.0000   1.0000   1.0000   1.0000   1.0000   1.0000   1.0000   1.0000
     1.0000   1.0000   1.0000   1.0000   1.0000   1.0000   1.0000   1.0000
     1.0000   1.0000   1.0000   1.0000   1.0000   1.0000   1.0000   1.0000
     1.0000   1.0000   1.0000   1.0000   1.0000   1.0000   1.0000   1.0000
     1.0000   1.0000   1.0000   1.0000   1.0000   1.0000   1.0000   1.0000
     1.0000   1.0000   1.0000   1.0000   1.0000   1.0000   1.0000   1.0000
     1.0000   1.0000   1.0000   1.0000   1.0000   1.0000   1.0000   1.0000
     1.0000   1.0000   1.0000   1.0000   1.0000   1.0000   1.0000   1.0000
     1.0000   1.0000   1.0000   1.0000   1.0000   1.0000   1.0000   1.0000
     1.0000   1.0000   1.0000   1.0000   1.0000   1.0000   1.0000   1.0000
     1.0000   1.0000   1.0000   1.0000   1.0000   1.0000   1.0000   1.0000
     1.0000   1.0000   1.0000   1.0000   1.0000   1.0000   1.0000   1.0000
     1.0000   1.0000   1.0000   1.0000   1.0000   1.0000   1.0000   1.0000
     1.0000   1.0000   1.0000   1.0000   1.0000   1.0000   1.0000   1.0000

          k = 0.3333 0.0000-0.1157 ( 25913 PWs)   bands (ev):

   -68.5531 -68.5054 -68.4434 -68.0722 -68.0141 -67.9741 -35.3108 -35.3063
   -35.3059 -35.2615 -35.2598 -35.2528 -35.2133 -35.1930 -35.1804 -34.8559
   -34.8150 -34.8070 -34.7708 -34.7671 -34.7604 -34.7479 -34.7464 -34.6766
   -23.0819 -23.0245 -17.7865 -17.6172 -17.5686 -17.4252 -15.1621 -15.1289
   -14.5746 -14.5595 -14.1294 -14.1061 -13.4625 -13.3851 -13.3667 -13.2158
   -13.1837 -13.1439 -12.9509 -12.9137 -12.6583 -12.6263 -12.5590 -12.4934
   -11.7397 -11.5053  -6.6092  -6.5840  -6.5779  -6.5531  -6.5224  -6.5054
    -4.0188  -4.0135  -2.8430  -2.7324  -2.0741  -1.9458  -1.3776  -0.9853
    -0.9437  -0.9023  -0.7959  -0.7574  -0.7016  -0.4163  -0.2906  -0.2172
    -0.1514  -0.0676  -0.0130   0.0690   0.1372   0.2665   0.2864   0.3252
     0.4437   0.5353   0.6629   0.7277   0.8675   0.9098   0.9973   1.0734
     1.1362   1.2759   1.3197   1.3618   1.3741   1.5039   1.5472   1.5800
     1.6191   1.7269   1.8234   1.9620   1.9696   2.0715   2.2062   2.2661
     2.3123   2.3370   2.4537   2.4887   2.5619   2.5994   2.6607   2.6927
     2.7713   2.8199   2.9278   2.9605   2.9977   3.1039   3.1384   3.2184
     3.2936   3.3658   3.4792   3.5290   3.5847   3.6283   3.6876   3.7868

     occupation numbers 
     1.0000   1.0000   1.0000   1.0000   1.0000   1.0000   1.0000   1.0000
     1.0000   1.0000   1.0000   1.0000   1.0000   1.0000   1.0000   1.0000
     1.0000   1.0000   1.0000   1.0000   1.0000   1.0000   1.0000   1.0000
     1.0000   1.0000   1.0000   1.0000   1.0000   1.0000   1.0000   1.0000
     1.0000   1.0000   1.0000   1.0000   1.0000   1.0000   1.0000   1.0000
     1.0000   1.0000   1.0000   1.0000   1.0000   1.0000   1.0000   1.0000
     1.0000   1.0000   1.0000   1.0000   1.0000   1.0000   1.0000   1.0000
     1.0000   1.0000   1.0000   1.0000   1.0000   1.0000   1.0000   1.0000
     1.0000   1.0000   1.0000   1.0000   1.0000   1.0000   1.0000   1.0000
     1.0000   1.0000   1.0000   1.0000   1.0000   1.0000   1.0000   1.0000
     1.0000   1.0000   1.0000   1.0000   1.0000   1.0000   1.0000   1.0000
     1.0000   1.0000   1.0000   1.0000   1.0000   1.0000   1.0000   1.0000
     1.0000   1.0000   1.0000   1.0000   1.0000   1.0000   1.0000   1.0000
     1.0000   1.0000   1.0000   1.0000   1.0000   1.0000   1.0000   1.0000
     1.0000   1.0000   1.0000   1.0000   1.0000   1.0000   1.0000   1.0000
     1.0000   1.0000   1.0000   1.0000   1.0000   1.0000   1.0000   1.0000

          k = 0.3333 0.1921 0.0601 ( 25923 PWs)   bands (ev):

   -68.5531 -68.5054 -68.4434 -68.0722 -68.0141 -67.9741 -35.3108 -35.3063
   -35.3059 -35.2615 -35.2598 -35.2528 -35.2133 -35.1929 -35.1804 -34.8559
   -34.8149 -34.8070 -34.7708 -34.7671 -34.7605 -34.7479 -34.7464 -34.6766
   -23.0819 -23.0245 -17.7864 -17.6171 -17.5687 -17.4252 -15.1669 -15.1193
   -14.5956 -14.5550 -14.1294 -14.0962 -13.4664 -13.3695 -13.3089 -13.2501
   -13.2105 -13.1474 -12.9814 -12.8917 -12.6722 -12.5997 -12.5766 -12.4830
   -11.7410 -11.5039  -6.6091  -6.5842  -6.5780  -6.5537  -6.5219  -6.5056
    -4.0317  -3.9540  -2.9479  -2.8273  -2.0156  -1.8149  -1.3861  -1.0018
    -0.9581  -0.8882  -0.8041  -0.7517  -0.6728  -0.4572  -0.3180  -0.2221
    -0.1358  -0.0677  -0.0118   0.0681   0.1499   0.2915   0.3383   0.3776
     0.4676   0.5487   0.6912   0.7853   0.8231   0.9128   0.9848   1.0976
     1.1975   1.2177   1.2818   1.3183   1.3841   1.4725   1.5327   1.5744
     1.6535   1.7043   1.7531   1.7984   1.8932   2.1263   2.2374   2.3024
     2.3227   2.3914   2.4257   2.4768   2.5268   2.5488   2.6102   2.6914
     2.7210   2.8742   2.9038   2.9713   3.0090   3.1433   3.2027   3.2538
     3.3281   3.3977   3.5027   3.5317   3.5945   3.6169   3.6468   3.7779

     occupation numbers 
     1.0000   1.0000   1.0000   1.0000   1.0000   1.0000   1.0000   1.0000
     1.0000   1.0000   1.0000   1.0000   1.0000   1.0000   1.0000   1.0000
     1.0000   1.0000   1.0000   1.0000   1.0000   1.0000   1.0000   1.0000
     1.0000   1.0000   1.0000   1.0000   1.0000   1.0000   1.0000   1.0000
     1.0000   1.0000   1.0000   1.0000   1.0000   1.0000   1.0000   1.0000
     1.0000   1.0000   1.0000   1.0000   1.0000   1.0000   1.0000   1.0000
     1.0000   1.0000   1.0000   1.0000   1.0000   1.0000   1.0000   1.0000
     1.0000   1.0000   1.0000   1.0000   1.0000   1.0000   1.0000   1.0000
     1.0000   1.0000   1.0000   1.0000   1.0000   1.0000   1.0000   1.0000
     1.0000   1.0000   1.0000   1.0000   1.0000   1.0000   1.0000   1.0000
     1.0000   1.0000   1.0000   1.0000   1.0000   1.0000   1.0000   1.0000
     1.0000   1.0000   1.0000   1.0000   1.0000   1.0000   1.0000   1.0000
     1.0000   1.0000   1.0000   1.0000   1.0000   1.0000   1.0000   1.0000
     1.0000   1.0000   1.0000   1.0000   1.0000   1.0000   1.0000   1.0000
     1.0000   1.0000   1.0000   1.0000   1.0000   1.0000   1.0000   1.0000
     1.0000   1.0000   1.0000   1.0000   1.0000   1.0000   1.0000   1.0000

          k = 0.3333 0.1921 0.2360 ( 25909 PWs)   bands (ev):

   -68.5531 -68.5054 -68.4434 -68.0722 -68.0141 -67.9741 -35.3108 -35.3063
   -35.3059 -35.2615 -35.2598 -35.2528 -35.2133 -35.1929 -35.1804 -34.8559
   -34.8149 -34.8070 -34.7708 -34.7671 -34.7605 -34.7479 -34.7464 -34.6766
   -23.0819 -23.0245 -17.7865 -17.6171 -17.5686 -17.4252 -15.1511 -15.1360
   -14.5923 -14.5584 -14.1234 -14.1025 -13.4603 -13.3702 -13.3017 -13.2557
   -13.2116 -13.1589 -12.9672 -12.9028 -12.6620 -12.6117 -12.5514 -12.5029
   -11.7394 -11.5053  -6.6091  -6.5842  -6.5780  -6.5537  -6.5218  -6.5056
    -4.0300  -3.9558  -2.9133  -2.8663  -1.9916  -1.8408  -1.3281  -1.0202
    -0.9330  -0.9112  -0.8369  -0.7436  -0.6665  -0.4883  -0.3298  -0.2363
    -0.1589  -0.0535  -0.0237   0.0592   0.1440   0.2890   0.3422   0.3948
     0.4582   0.5741   0.7108   0.7889   0.8461   0.9380   1.0089   1.0684
     1.1389   1.2390   1.2960   1.3560   1.3915   1.4758   1.5115   1.5713
     1.6407   1.6931   1.7608   1.8571   1.9747   2.0369   2.2301   2.2796
     2.2978   2.3407   2.4259   2.4803   2.5036   2.5582   2.6463   2.6917
     2.7727   2.8324   2.9330   2.9515   3.0583   3.0893   3.1792   3.2847
     3.3239   3.3948   3.4441   3.5344   3.5696   3.6319   3.7418   3.7508

     occupation numbers 
     1.0000   1.0000   1.0000   1.0000   1.0000   1.0000   1.0000   1.0000
     1.0000   1.0000   1.0000   1.0000   1.0000   1.0000   1.0000   1.0000
     1.0000   1.0000   1.0000   1.0000   1.0000   1.0000   1.0000   1.0000
     1.0000   1.0000   1.0000   1.0000   1.0000   1.0000   1.0000   1.0000
     1.0000   1.0000   1.0000   1.0000   1.0000   1.0000   1.0000   1.0000
     1.0000   1.0000   1.0000   1.0000   1.0000   1.0000   1.0000   1.0000
     1.0000   1.0000   1.0000   1.0000   1.0000   1.0000   1.0000   1.0000
     1.0000   1.0000   1.0000   1.0000   1.0000   1.0000   1.0000   1.0000
     1.0000   1.0000   1.0000   1.0000   1.0000   1.0000   1.0000   1.0000
     1.0000   1.0000   1.0000   1.0000   1.0000   1.0000   1.0000   1.0000
     1.0000   1.0000   1.0000   1.0000   1.0000   1.0000   1.0000   1.0000
     1.0000   1.0000   1.0000   1.0000   1.0000   1.0000   1.0000   1.0000
     1.0000   1.0000   1.0000   1.0000   1.0000   1.0000   1.0000   1.0000
     1.0000   1.0000   1.0000   1.0000   1.0000   1.0000   1.0000   1.0000
     1.0000   1.0000   1.0000   1.0000   1.0000   1.0000   1.0000   1.0000
     1.0000   1.0000   1.0000   1.0000   1.0000   1.0000   1.0000   1.0000

          k = 0.3333 0.1921-0.1157 ( 25902 PWs)   bands (ev):

   -68.5531 -68.5054 -68.4434 -68.0722 -68.0141 -67.9741 -35.3108 -35.3063
   -35.3059 -35.2615 -35.2598 -35.2528 -35.2133 -35.1929 -35.1804 -34.8559
   -34.8149 -34.8070 -34.7708 -34.7671 -34.7605 -34.7479 -34.7464 -34.6766
   -23.0819 -23.0245 -17.7865 -17.6171 -17.5686 -17.4252 -15.1602 -15.1265
   -14.5836 -14.5676 -14.1232 -14.1027 -13.4628 -13.3616 -13.3179 -13.2394
   -13.2217 -13.1556 -12.9575 -12.9113 -12.6521 -12.6240 -12.5592 -12.4933
   -11.7393 -11.5052  -6.6091  -6.5842  -6.5780  -6.5537  -6.5218  -6.5055
    -3.9960  -3.9911  -2.9344  -2.8431  -2.0014  -1.8315  -1.3573  -0.9882
    -0.9560  -0.8874  -0.8152  -0.7478  -0.7007  -0.4705  -0.3280  -0.2235
    -0.1585  -0.0781  -0.0114   0.0683   0.1621   0.3045   0.3499   0.3889
     0.4588   0.5536   0.6951   0.7942   0.8209   0.9146   0.9937   1.1072
     1.1345   1.2439   1.2794   1.3305   1.3784   1.4645   1.5129   1.6003
     1.6585   1.7248   1.7709   1.8599   1.8877   2.1375   2.2189   2.2713
     2.3067   2.3336   2.4244   2.4616   2.5158   2.5506   2.5698   2.6853
     2.8099   2.8582   2.9316   2.9678   3.0616   3.1595   3.2019   3.2391
     3.2945   3.3859   3.4717   3.5272   3.5692   3.6293   3.6782   3.7854

     occupation numbers 
     1.0000   1.0000   1.0000   1.0000   1.0000   1.0000   1.0000   1.0000
     1.0000   1.0000   1.0000   1.0000   1.0000   1.0000   1.0000   1.0000
     1.0000   1.0000   1.0000   1.0000   1.0000   1.0000   1.0000   1.0000
     1.0000   1.0000   1.0000   1.0000   1.0000   1.0000   1.0000   1.0000
     1.0000   1.0000   1.0000   1.0000   1.0000   1.0000   1.0000   1.0000
     1.0000   1.0000   1.0000   1.0000   1.0000   1.0000   1.0000   1.0000
     1.0000   1.0000   1.0000   1.0000   1.0000   1.0000   1.0000   1.0000
     1.0000   1.0000   1.0000   1.0000   1.0000   1.0000   1.0000   1.0000
     1.0000   1.0000   1.0000   1.0000   1.0000   1.0000   1.0000   1.0000
     1.0000   1.0000   1.0000   1.0000   1.0000   1.0000   1.0000   1.0000
     1.0000   1.0000   1.0000   1.0000   1.0000   1.0000   1.0000   1.0000
     1.0000   1.0000   1.0000   1.0000   1.0000   1.0000   1.0000   1.0000
     1.0000   1.0000   1.0000   1.0000   1.0000   1.0000   1.0000   1.0000
     1.0000   1.0000   1.0000   1.0000   1.0000   1.0000   1.0000   1.0000
     1.0000   1.0000   1.0000   1.0000   1.0000   1.0000   1.0000   1.0000
     1.0000   1.0000   1.0000   1.0000   1.0000   1.0000   1.0000   1.0000

          k =-0.5000 0.0000-0.0902 ( 25894 PWs)   bands (ev):

   -68.5531 -68.5054 -68.4434 -68.0722 -68.0141 -67.9741 -35.3101 -35.3065
   -35.3062 -35.2614 -35.2597 -35.2530 -35.2133 -35.1929 -35.1804 -34.8559
   -34.8152 -34.8069 -34.7707 -34.7671 -34.7605 -34.7480 -34.7460 -34.6770
   -23.0817 -23.0243 -17.7745 -17.6076 -17.5790 -17.4339 -15.0176 -14.9734
   -14.7536 -14.7125 -14.1569 -14.1189 -13.4348 -13.3602 -13.2445 -13.2338
   -13.1941 -13.1366 -13.0180 -12.9244 -12.6649 -12.6344 -12.6063 -12.5081
   -11.7338 -11.5095  -6.6092  -6.5834  -6.5769  -6.5564  -6.5222  -6.5021
    -3.6716  -3.5951  -3.1510  -3.0674  -2.0376  -1.8889  -1.2378  -1.1196
    -0.9610  -0.8805  -0.7818  -0.7531  -0.6437  -0.4581  -0.2888  -0.1922
    -0.1316  -0.0269   0.0524   0.0601   0.1739   0.2455   0.2503   0.3405
     0.4439   0.5031   0.6942   0.7426   0.8416   0.8636   0.9306   1.0120
     1.1439   1.2132   1.2471   1.2885   1.4378   1.4746   1.5256   1.6299
     1.7023   1.7309   1.8096   1.8252   1.9466   1.9833   2.2460   2.3096
     2.3377   2.3847   2.4509   2.5169   2.5695   2.5711   2.6305   2.6991
     2.7255   2.7796   2.9433   2.9529   2.9820   3.0897   3.1742   3.2747
     3.3172   3.3204   3.3633   3.5346   3.5696   3.5941   3.5968   3.7519

     occupation numbers 
     1.0000   1.0000   1.0000   1.0000   1.0000   1.0000   1.0000   1.0000
     1.0000   1.0000   1.0000   1.0000   1.0000   1.0000   1.0000   1.0000
     1.0000   1.0000   1.0000   1.0000   1.0000   1.0000   1.0000   1.0000
     1.0000   1.0000   1.0000   1.0000   1.0000   1.0000   1.0000   1.0000
     1.0000   1.0000   1.0000   1.0000   1.0000   1.0000   1.0000   1.0000
     1.0000   1.0000   1.0000   1.0000   1.0000   1.0000   1.0000   1.0000
     1.0000   1.0000   1.0000   1.0000   1.0000   1.0000   1.0000   1.0000
     1.0000   1.0000   1.0000   1.0000   1.0000   1.0000   1.0000   1.0000
     1.0000   1.0000   1.0000   1.0000   1.0000   1.0000   1.0000   1.0000
     1.0000   1.0000   1.0000   1.0000   1.0000   1.0000   1.0000   1.0000
     1.0000   1.0000   1.0000   1.0000   1.0000   1.0000   1.0000   1.0000
     1.0000   1.0000   1.0000   1.0000   1.0000   1.0000   1.0000   1.0000
     1.0000   1.0000   1.0000   1.0000   1.0000   1.0000   1.0000   1.0000
     1.0000   1.0000   1.0000   1.0000   1.0000   1.0000   1.0000   1.0000
     1.0000   1.0000   1.0000   1.0000   1.0000   1.0000   1.0000   1.0000
     1.0000   1.0000   1.0000   1.0000   1.0000   1.0000   1.0000   1.0000

          k =-0.5000 0.0000 0.0856 ( 25921 PWs)   bands (ev):

   -68.5531 -68.5054 -68.4434 -68.0722 -68.0141 -67.9741 -35.3101 -35.3065
   -35.3062 -35.2614 -35.2598 -35.2530 -35.2133 -35.1929 -35.1804 -34.8559
   -34.8152 -34.8069 -34.7707 -34.7671 -34.7605 -34.7480 -34.7461 -34.6770
   -23.0817 -23.0243 -17.7745 -17.6076 -17.5790 -17.4339 -15.0080 -14.9836
   -14.7449 -14.7215 -14.1505 -14.1257 -13.4307 -13.3562 -13.2484 -13.2317
   -13.1973 -13.1473 -12.9958 -12.9404 -12.6603 -12.6310 -12.5983 -12.5216
   -11.7319 -11.5110  -6.6092  -6.5833  -6.5769  -6.5564  -6.5221  -6.5021
    -3.6530  -3.6145  -3.1323  -3.0893  -2.0210  -1.9090  -1.2016  -1.0993
    -0.9539  -0.8909  -0.8044  -0.7350  -0.6671  -0.4819  -0.3040  -0.2067
    -0.1550  -0.0336   0.0530   0.0663   0.1942   0.2527   0.2663   0.3246
     0.4678   0.5143   0.6872   0.7493   0.8661   0.8813   0.9095   0.9888
     1.0936   1.2246   1.2544   1.3420   1.4122   1.4474   1.5575   1.6301
     1.6999   1.7590   1.7931   1.8655   1.9594   2.0138   2.2310   2.2685
     2.2768   2.3129   2.4641   2.5409   2.5661   2.6238   2.6309   2.6414
     2.7240   2.8005   2.9586   2.9852   3.0180   3.1063   3.1883   3.2524
     3.2964   3.3309   3.3538   3.4188   3.5639   3.6279   3.6564   3.7523

     occupation numbers 
     1.0000   1.0000   1.0000   1.0000   1.0000   1.0000   1.0000   1.0000
     1.0000   1.0000   1.0000   1.0000   1.0000   1.0000   1.0000   1.0000
     1.0000   1.0000   1.0000   1.0000   1.0000   1.0000   1.0000   1.0000
     1.0000   1.0000   1.0000   1.0000   1.0000   1.0000   1.0000   1.0000
     1.0000   1.0000   1.0000   1.0000   1.0000   1.0000   1.0000   1.0000
     1.0000   1.0000   1.0000   1.0000   1.0000   1.0000   1.0000   1.0000
     1.0000   1.0000   1.0000   1.0000   1.0000   1.0000   1.0000   1.0000
     1.0000   1.0000   1.0000   1.0000   1.0000   1.0000   1.0000   1.0000
     1.0000   1.0000   1.0000   1.0000   1.0000   1.0000   1.0000   1.0000
     1.0000   1.0000   1.0000   1.0000   1.0000   1.0000   1.0000   1.0000
     1.0000   1.0000   1.0000   1.0000   1.0000   1.0000   1.0000   1.0000
     1.0000   1.0000   1.0000   1.0000   1.0000   1.0000   1.0000   1.0000
     1.0000   1.0000   1.0000   1.0000   1.0000   1.0000   1.0000   1.0000
     1.0000   1.0000   1.0000   1.0000   1.0000   1.0000   1.0000   1.0000
     1.0000   1.0000   1.0000   1.0000   1.0000   1.0000   1.0000   1.0000
     1.0000   1.0000   1.0000   1.0000   1.0000   1.0000   1.0000   1.0000

          k =-0.5000 0.1921-0.0902 ( 25924 PWs)   bands (ev):

   -68.5531 -68.5054 -68.4434 -68.0722 -68.0141 -67.9741 -35.3101 -35.3065
   -35.3062 -35.2614 -35.2598 -35.2530 -35.2133 -35.1928 -35.1804 -34.8559
   -34.8151 -34.8069 -34.7707 -34.7671 -34.7606 -34.7480 -34.7460 -34.6770
   -23.0817 -23.0243 -17.7745 -17.6073 -17.5793 -17.4339 -15.0182 -14.9731
   -14.7536 -14.7123 -14.1557 -14.1203 -13.4349 -13.3612 -13.2405 -13.2280
   -13.2035 -13.1401 -13.0161 -12.9225 -12.6649 -12.6366 -12.6026 -12.5079
   -11.7337 -11.5096  -6.6094  -6.5837  -6.5775  -6.5567  -6.5213  -6.5022
    -3.6829  -3.6025  -3.1640  -3.0798  -2.0148  -1.8621  -1.2281  -1.1219
    -0.9180  -0.8433  -0.7804  -0.7570  -0.6812  -0.5190  -0.3459  -0.2246
    -0.1187  -0.0155   0.1168   0.1211   0.1909   0.2344   0.3278   0.4156
     0.4362   0.4821   0.7038   0.7346   0.8435   0.8463   0.9502   1.0516
     1.1190   1.1891   1.2510   1.2915   1.4404   1.4719   1.5250   1.5296
     1.6391   1.7012   1.7422   1.7801   1.9808   1.9997   2.2332   2.2619
     2.2985   2.3758   2.4340   2.4424   2.5638   2.5675   2.6630   2.6648
     2.7682   2.7731   2.9120   2.9562   3.0119   3.1524   3.2372   3.2501
     3.3420   3.4039   3.4059   3.5241   3.5730   3.5927   3.6018   3.7514

     occupation numbers 
     1.0000   1.0000   1.0000   1.0000   1.0000   1.0000   1.0000   1.0000
     1.0000   1.0000   1.0000   1.0000   1.0000   1.0000   1.0000   1.0000
     1.0000   1.0000   1.0000   1.0000   1.0000   1.0000   1.0000   1.0000
     1.0000   1.0000   1.0000   1.0000   1.0000   1.0000   1.0000   1.0000
     1.0000   1.0000   1.0000   1.0000   1.0000   1.0000   1.0000   1.0000
     1.0000   1.0000   1.0000   1.0000   1.0000   1.0000   1.0000   1.0000
     1.0000   1.0000   1.0000   1.0000   1.0000   1.0000   1.0000   1.0000
     1.0000   1.0000   1.0000   1.0000   1.0000   1.0000   1.0000   1.0000
     1.0000   1.0000   1.0000   1.0000   1.0000   1.0000   1.0000   1.0000
     1.0000   1.0000   1.0000   1.0000   1.0000   1.0000   1.0000   1.0000
     1.0000   1.0000   1.0000   1.0000   1.0000   1.0000   1.0000   1.0000
[...]
     atom   32 type  5   force =     0.30995554    1.13261003  -12.44667300
     atom   33 type  5   force =     0.56975865    2.01424051   11.28929801
     atom   34 type  5   force =    -0.56977113    2.01424050  -11.28929788
     atom   35 type  5   force =    -1.22825345   -2.11532825  -10.67506907
     atom   36 type  5   force =     1.22824396   -2.11532895   10.67505821
     atom   37 type  2   force =    -0.23267809    0.91185098   18.03691897
     atom   38 type  2   force =     0.23265310    0.91185114  -18.03691900
     atom   39 type  2   force =     0.06544153   -0.74435861   17.30162317
     atom   40 type  2   force =    -0.06543294   -0.74435846  -17.30167417
     The core correction contribution to forces
     atom    1 type  3   force =    -0.00000000   -0.00160659   -0.00000000
     atom    2 type  3   force =     0.00000000    0.00179761   -0.00000000
     atom    3 type  4   force =    -0.00000000    0.00026959    0.00000000
     atom    4 type  4   force =     0.00000000   -0.00027012    0.00000000
     atom    5 type  4   force =     0.00000000    0.00007654   -0.00000000
     atom    6 type  4   force =     0.00000000   -0.00087536    0.00000000
     atom    7 type  4   force =     0.00000000   -0.00023453   -0.00000000
     atom    8 type  4   force =    -0.00000000    0.00101425    0.00000000
     atom    9 type  6   force =     0.00246104    0.01204773    0.00005585
     atom   10 type  6   force =    -0.00246099    0.01204771   -0.00005600
     atom   11 type  6   force =     0.00059434    0.00419383   -0.00917643
     atom   12 type  6   force =    -0.00059435    0.00419383    0.00917643
     atom   13 type  6   force =    -0.00147502   -0.01304820    0.00596839
     atom   14 type  6   force =     0.00147502   -0.01304820   -0.00596839
     atom   15 type  1   force =    -0.00068027   -0.00299803   -0.00618522
     atom   16 type  1   force =     0.00068030   -0.00299804    0.00618509
     atom   17 type  5   force =    -0.00008696    0.00021474    0.00589121
     atom   18 type  5   force =     0.00008693    0.00021474   -0.00589121
     atom   19 type  5   force =    -0.00005748    0.00006386   -0.00649496
     atom   20 type  5   force =     0.00005747    0.00006386    0.00649496
     atom   21 type  5   force =     0.00004375   -0.00018029    0.00630363
     atom   22 type  5   force =    -0.00004378   -0.00018029   -0.00630363
     atom   23 type  5   force =     0.00010184    0.00007003   -0.00275099
     atom   24 type  5   force =    -0.00010184    0.00007003    0.00275099
     atom   25 type  5   force =     0.00449572   -0.00131524   -0.00598973
     atom   26 type  5   force =    -0.00449571   -0.00131524    0.00598978
     atom   27 type  5   force =    -0.00296043    0.00088605   -0.00720174
     atom   28 type  5   force =     0.00296047    0.00088605    0.00720171
     atom   29 type  5   force =    -0.00148825    0.00208660    0.00728716
     atom   30 type  5   force =     0.00148825    0.00208662   -0.00728719
     atom   31 type  5   force =     0.00069414   -0.00183822   -0.00744480
     atom   32 type  5   force =    -0.00069414   -0.00183821    0.00744479
     atom   33 type  5   force =    -0.00210306   -0.00367307   -0.00662408
     atom   34 type  5   force =     0.00210307   -0.00367306    0.00662408
     atom   35 type  5   force =     0.00141876    0.00369559    0.00659082
     atom   36 type  5   force =    -0.00141875    0.00369560   -0.00659081
     atom   37 type  2   force =     0.00003604   -0.00031366   -0.00255212
     atom   38 type  2   force =    -0.00003608   -0.00031366    0.00255212
     atom   39 type  2   force =    -0.00012771    0.00026901   -0.00256808
     atom   40 type  2   force =     0.00012773    0.00026901    0.00256802
     The Hubbard contrib.    to forces
     atom    1 type  3   force =     0.00000000    0.00000000    0.00000000
     atom    2 type  3   force =     0.00000000    0.00000000    0.00000000
     atom    3 type  4   force =     0.00000000    0.00000000    0.00000000
     atom    4 type  4   force =     0.00000000    0.00000000    0.00000000
     atom    5 type  4   force =     0.00000000    0.00000000    0.00000000
     atom    6 type  4   force =     0.00000000    0.00000000    0.00000000
     atom    7 type  4   force =     0.00000000    0.00000000    0.00000000
     atom    8 type  4   force =     0.00000000    0.00000000    0.00000000
     atom    9 type  6   force =     0.00000000    0.00000000    0.00000000
     atom   10 type  6   force =     0.00000000    0.00000000    0.00000000
     atom   11 type  6   force =     0.00000000    0.00000000    0.00000000
     atom   12 type  6   force =     0.00000000    0.00000000    0.00000000
     atom   13 type  6   force =     0.00000000    0.00000000    0.00000000
     atom   14 type  6   force =     0.00000000    0.00000000    0.00000000
     atom   15 type  1   force =     0.00000000    0.00000000    0.00000000
     atom   16 type  1   force =     0.00000000    0.00000000    0.00000000
     atom   17 type  5   force =     0.00000000    0.00000000    0.00000000
     atom   18 type  5   force =     0.00000000    0.00000000    0.00000000
     atom   19 type  5   force =     0.00000000    0.00000000    0.00000000
     atom   20 type  5   force =     0.00000000    0.00000000    0.00000000
     atom   21 type  5   force =     0.00000000    0.00000000    0.00000000
     atom   22 type  5   force =     0.00000000    0.00000000    0.00000000
     atom   23 type  5   force =     0.00000000    0.00000000    0.00000000
     atom   24 type  5   force =     0.00000000    0.00000000    0.00000000
     atom   25 type  5   force =     0.00000000    0.00000000    0.00000000
     atom   26 type  5   force =     0.00000000    0.00000000    0.00000000
     atom   27 type  5   force =     0.00000000    0.00000000    0.00000000
     atom   28 type  5   force =     0.00000000    0.00000000    0.00000000
     atom   29 type  5   force =     0.00000000    0.00000000    0.00000000
     atom   30 type  5   force =     0.00000000    0.00000000    0.00000000
     atom   31 type  5   force =     0.00000000    0.00000000    0.00000000
     atom   32 type  5   force =     0.00000000    0.00000000    0.00000000
     atom   33 type  5   force =     0.00000000    0.00000000    0.00000000
     atom   34 type  5   force =     0.00000000    0.00000000    0.00000000
     atom   35 type  5   force =     0.00000000    0.00000000    0.00000000
     atom   36 type  5   force =     0.00000000    0.00000000    0.00000000
     atom   37 type  2   force =     0.00000000    0.00000000    0.00000000
     atom   38 type  2   force =     0.00000000    0.00000000    0.00000000
     atom   39 type  2   force =     0.00000000    0.00000000    0.00000000
     atom   40 type  2   force =     0.00000000    0.00000000    0.00000000
     The SCF correction term to forces
     atom    1 type  3   force =    -0.00000000   -0.00000919   -0.00000000
     atom    2 type  3   force =    -0.00000000    0.00001018   -0.00000000
     atom    3 type  4   force =    -0.00000000   -0.00000371    0.00000000
     atom    4 type  4   force =     0.00000000    0.00003642    0.00000000
     atom    5 type  4   force =     0.00000000   -0.00004345    0.00000000
     atom    6 type  4   force =    -0.00000000    0.00000069   -0.00000000
     atom    7 type  4   force =     0.00000000    0.00002910    0.00000000
     atom    8 type  4   force =     0.00000000   -0.00001619    0.00000000
     atom    9 type  6   force =     0.00000029    0.00002039   -0.00002138
     atom   10 type  6   force =    -0.00000029    0.00002039    0.00002138
     atom   11 type  6   force =     0.00000228   -0.00001430    0.00001530
     atom   12 type  6   force =    -0.00000228   -0.00001430   -0.00001530
     atom   13 type  6   force =     0.00000328   -0.00001178   -0.00002437
     atom   14 type  6   force =    -0.00000328   -0.00001178    0.00002437
     atom   15 type  1   force =    -0.00000182    0.00000436    0.00001819
     atom   16 type  1   force =     0.00000182    0.00000436   -0.00001819
     atom   17 type  5   force =     0.00000350    0.00000799   -0.00003589
     atom   18 type  5   force =    -0.00000350    0.00000799    0.00003589
     atom   19 type  5   force =     0.00000034   -0.00000565    0.00004757
     atom   20 type  5   force =    -0.00000034   -0.00000565   -0.00004757
     atom   21 type  5   force =     0.00000499   -0.00001339   -0.00005326
     atom   22 type  5   force =    -0.00000499   -0.00001339    0.00005326
     atom   23 type  5   force =    -0.00000145    0.00001134    0.00003465
     atom   24 type  5   force =     0.00000145    0.00001134   -0.00003465
     atom   25 type  5   force =     0.00000407    0.00002252   -0.00001482
     atom   26 type  5   force =    -0.00000407    0.00002252    0.00001482
     atom   27 type  5   force =     0.00000319   -0.00000371    0.00000258
     atom   28 type  5   force =    -0.00000319   -0.00000371   -0.00000258
     atom   29 type  5   force =    -0.00000264   -0.00001784    0.00000058
     atom   30 type  5   force =     0.00000264   -0.00001784   -0.00000058
     atom   31 type  5   force =    -0.00000514   -0.00001725    0.00000128
     atom   32 type  5   force =     0.00000514   -0.00001725   -0.00000128
     atom   33 type  5   force =     0.00000586   -0.00000205   -0.00001426
     atom   34 type  5   force =    -0.00000586   -0.00000205    0.00001426
     atom   35 type  5   force =     0.00000821    0.00002118    0.00001787
     atom   36 type  5   force =    -0.00000821    0.00002118   -0.00001787
     atom   37 type  2   force =    -0.00000502    0.00000037   -0.00002582
     atom   38 type  2   force =     0.00000502    0.00000037    0.00002582
     atom   39 type  2   force =    -0.00000499   -0.00000041   -0.00002411
     atom   40 type  2   force =     0.00000499   -0.00000041    0.00002411

     DFT-D3 dispersion contribution to forces:
     atom    1 type  3   force =     0.00000000    0.00133474   -0.00000000
     atom    2 type  3   force =     0.00000000   -0.00136578   -0.00000000
     atom    3 type  4   force =     0.00000000    0.00028633   -0.00000000
     atom    4 type  4   force =    -0.00000000    0.00146364    0.00000000
     atom    5 type  4   force =    -0.00000000   -0.00171773    0.00000000
     atom    6 type  4   force =    -0.00000000   -0.00048665    0.00000000
     atom    7 type  4   force =    -0.00000000    0.00166534   -0.00000000
     atom    8 type  4   force =    -0.00000000   -0.00106173    0.00000000
     atom    9 type  6   force =     0.00010340   -0.00009603   -0.00030266
     atom   10 type  6   force =    -0.00010340   -0.00009603    0.00030266
     atom   11 type  6   force =     0.00007663    0.00002062    0.00025033
     atom   12 type  6   force =    -0.00007663    0.00002062   -0.00025033
     atom   13 type  6   force =    -0.00009209    0.00006662   -0.00023474
     atom   14 type  6   force =     0.00009209    0.00006662    0.00023474
     atom   15 type  1   force =    -0.00005903    0.00000184   -0.00115177
     atom   16 type  1   force =     0.00005903    0.00000184    0.00115177
     atom   17 type  5   force =    -0.00000091    0.00000969    0.00046780
     atom   18 type  5   force =     0.00000091    0.00000970   -0.00046780
     atom   19 type  5   force =    -0.00001873    0.00002915   -0.00047582
     atom   20 type  5   force =     0.00001873    0.00002915    0.00047582
     atom   21 type  5   force =     0.00000697   -0.00008525    0.00049836
     atom   22 type  5   force =    -0.00000697   -0.00008525   -0.00049837
     atom   23 type  5   force =    -0.00005848    0.00000458    0.00004063
     atom   24 type  5   force =     0.00005849    0.00000458   -0.00004063
     atom   25 type  5   force =    -0.00009076    0.00079265    0.00026859
     atom   26 type  5   force =     0.00009076    0.00079265   -0.00026859
     atom   27 type  5   force =     0.00078160    0.00004551    0.00009655
     atom   28 type  5   force =    -0.00078160    0.00004551   -0.00009655
     atom   29 type  5   force =     0.00032676   -0.00050960    0.00014414
     atom   30 type  5   force =    -0.00032677   -0.00050960   -0.00014414
     atom   31 type  5   force =    -0.00016451    0.00027670   -0.00018120
     atom   32 type  5   force =     0.00016451    0.00027670    0.00018120
     atom   33 type  5   force =     0.00081247   -0.00040631    0.00033360
     atom   34 type  5   force =    -0.00081247   -0.00040631   -0.00033360
     atom   35 type  5   force =     0.00049224   -0.00024711   -0.00047185
     atom   36 type  5   force =    -0.00049224   -0.00024711    0.00047185
     atom   37 type  2   force =     0.00000938    0.00004960   -0.00050024
     atom   38 type  2   force =    -0.00000938    0.00004960    0.00050024
     atom   39 type  2   force =     0.00004792   -0.00001173   -0.00053937
     atom   40 type  2   force =    -0.00004792   -0.00001173    0.00053937

     Total force =     0.002349     Total SCF correction =     0.000182

     DFT-D3 dispersion Force =     0.005026


     Computing stress (Cartesian axis) and pressure

          total   stress  (Ry/bohr**3)                   (kbar)     P=       -0.13
  -0.00000082   0.00000000  -0.00000069           -0.12        0.00       -0.10
   0.00000000   0.00000024   0.00000000            0.00        0.04        0.00
  -0.00000069   0.00000000  -0.00000214           -0.10        0.00       -0.32

     kinetic stress (kbar)  19230.15      0.00     -1.40
                                0.00  19231.32      0.00
                               -1.40      0.00  19281.07

     local   stress (kbar) -38679.76     -0.00    -49.33
                               -0.00 -38366.23      0.00
                              -49.33      0.00  14502.97

     nonloc. stress (kbar)   5937.70      0.00     -0.17
                                0.00   5937.32      0.00
                               -0.17      0.00   5940.98

     hartree stress (kbar)  20906.35     -0.00     20.07
                               -0.00  20772.76      0.00
                               20.07      0.00  -4677.42

     exc-cor stress (kbar)  -2893.31      0.00     -0.02
                                0.00  -2893.49     -0.00
                               -0.02     -0.00  -2895.80

     corecor stress (kbar)  -1818.95     -0.00      0.08
                               -0.00  -1818.94      0.00
                                0.08      0.00  -1819.47

     ewald   stress (kbar)  -2668.07      0.00     30.59
                                0.00  -2848.30     -0.00
                               30.59     -0.00 -30321.30

     hubbard stress (kbar)      0.00      0.00      0.00
                                0.00      0.00      0.00
                                0.00      0.00      0.00

     DFT-D   stress (kbar)    -14.23      0.00      0.08
                                0.00    -14.40     -0.00
                                0.08     -0.00    -11.35

     XDM     stress (kbar)      0.00      0.00      0.00
                                0.00      0.00      0.00
                                0.00      0.00      0.00

     dft-nl  stress (kbar)      0.00      0.00      0.00
                                0.00      0.00      0.00
                                0.00      0.00      0.00

     TS-vdW  stress (kbar)      0.00      0.00      0.00
                                0.00      0.00      0.00
                                0.00      0.00      0.00

     MDB     stress (kbar)      0.00      0.00      0.00
                                0.00      0.00      0.00
                                0.00      0.00      0.00

     3D-RISM stress (kbar)      0.00      0.00      0.00
                                0.00      0.00      0.00
                                0.00      0.00      0.00


     Writing all to output data dir ./temp/phl-f.save/ :
     XML data file, charge density, pseudopotentials, collected wavefunctions

     init_run     :    313.05s CPU    318.67s WALL (       2 calls)
     electrons    : 101722.73s CPU 102319.82s WALL (      17 calls)
     update_pot   :     15.35s CPU     15.73s WALL (      15 calls)
     forces       :   1832.07s CPU   1843.08s WALL (      17 calls)
     force_dftd3  :     31.61s CPU     31.71s WALL (      17 calls)
     stress       :   2898.81s CPU   2945.30s WALL (      17 calls)
     stres_dftd3  :     31.61s CPU     31.72s WALL (      17 calls)

     Called by init_run:
     wfcinit      :    301.31s CPU    305.64s WALL (       2 calls)
     wfcinit:atom :      0.48s CPU      0.50s WALL (      40 calls)
     wfcinit:wfcr :    298.17s CPU    302.43s WALL (      40 calls)
     potinit      :      2.09s CPU      2.17s WALL (       2 calls)
     hinit0       :      1.00s CPU      1.05s WALL (       2 calls)

     Called by electrons:
     c_bands      :  94778.10s CPU  95190.16s WALL (     157 calls)
     sum_band     :   6217.57s CPU   6335.67s WALL (     157 calls)
     v_of_rho     :     49.56s CPU     51.36s WALL (     161 calls)
     v_h          :      5.15s CPU      5.36s WALL (     161 calls)
     v_xc         :     53.89s CPU     55.73s WALL (     195 calls)
     newd         :    631.39s CPU    703.33s WALL (     161 calls)
     PAW_pot      :     93.34s CPU     93.58s WALL (     176 calls)
     mix_rho      :      9.95s CPU     10.29s WALL (     157 calls)
     energy_dftd3 :     24.63s CPU     24.66s WALL (      17 calls)

     Called by c_bands:
     init_us_2    :    275.78s CPU    278.34s WALL (    7300 calls)
     cegterg      :  94514.49s CPU  94924.60s WALL (    3160 calls)

     Called by sum_band:
     sum_band:wei :      0.01s CPU      0.01s WALL (     157 calls)
     sum_band:loo :   5162.71s CPU   5204.37s WALL (     157 calls)
     sum_band:buf :     31.39s CPU     31.84s WALL (    3140 calls)
     sum_band:ini :    122.88s CPU    124.01s WALL (    3140 calls)
     sum_band:cal :   4034.02s CPU   4044.36s WALL (    3440 calls)
     sum_band:bec :      4.78s CPU      4.80s WALL (    3440 calls)
     addusdens    :   1046.34s CPU   1122.10s WALL (     157 calls)
                                        0.00s GPU  (     157 calls)
     addusd:skk   :      6.70s CPU      6.75s WALL (     942 calls)
                                        0.00s GPU  (     942 calls)

     Called by *egterg:
     cdiaghg      :    986.53s CPU    988.17s WALL (   23285 calls)
     cegterg:over :  10794.80s CPU  10827.02s WALL (   20705 calls)
     cegterg:upda :   7090.19s CPU   7108.82s WALL (   20705 calls)
     cegterg:last :  20896.58s CPU  20949.26s WALL (   12648 calls)
     h_psi        :  37258.37s CPU  37520.42s WALL (   23905 calls)
     s_psi        :  15338.38s CPU  15376.62s WALL (   23905 calls)
     g_psi        :     22.31s CPU     22.39s WALL (   20705 calls)

     Called by h_psi:
     h_psi:calbec :  15135.37s CPU  15174.06s WALL (   23905 calls)
     vloc_psi     :   6616.89s CPU   6801.53s WALL (   23905 calls)
     add_vuspsi   :  15379.47s CPU  15417.29s WALL (   23905 calls)

     General routines
     calbec       :  21153.53s CPU  21204.69s WALL (   29045 calls)
     fft          :     46.22s CPU     49.18s WALL (    2512 calls)
     ffts         :      1.27s CPU      1.32s WALL (     318 calls)
     fftw         :   3793.19s CPU   3886.23s WALL ( 3700286 calls)
     interpolate  :      4.63s CPU      4.84s WALL (     161 calls)

     Parallel routines

     PAW routines
     PAW_pot      :     93.34s CPU     93.58s WALL (     176 calls)
     PAW_symme    :      0.07s CPU      0.07s WALL (     333 calls)

     PWSCF        :   1d 5h46m CPU   1d 5h58m WALL


   This run was terminated on:  16:42:13  24Jan2025            

=------------------------------------------------------------------------------=
   JOB DONE.
=------------------------------------------------------------------------------=
